
     Program PWSCF v.7.3.1 starts on  5Apr2025 at 15:10:49 

     This program is part of the open-source Quantum ESPRESSO suite
     for quantum simulation of materials; please cite
         "P. Giannozzi et al., J. Phys.:Condens. Matter 21 395502 (2009);
         "P. Giannozzi et al., J. Phys.:Condens. Matter 29 465901 (2017);
         "P. Giannozzi et al., J. Chem. Phys. 152 154105 (2020);
          URL http://www.quantum-espresso.org", 
     in publications or presentations arising from this work. More details at
     http://www.quantum-espresso.org/quote

     Parallel version (MPI), running on    29 processors

     MPI processes distributed on     1 nodes
     212525 MiB available memory on the printing compute node when the environment starts

     Waiting for input...
     Reading input from standard input
Warning: card &CELL ignored
Warning: card   CELL_DOFREE = 'ALL' ignored
Warning: card / ignored

     Current dimensions of program PWSCF are:
     Max number of different atomic species (ntypx) = 10
     Max number of k-points (npk) =  40000
     Max angular momentum in pseudopotentials (lmaxx) =  4

     File ./tmp/04_Zn101_ABN_lean.update deleted, as requested

     File ./tmp/04_Zn101_ABN_lean.bfgs deleted, as requested
     file C.pbe-n-kjpaw_psl.1.0.0.UPF: wavefunction(s)  2S 2P renormalized

     R & G space division:  proc/nbgrp/npool/nimage =      29
     Subspace diagonalization in iterative solution of the eigenvalue problem:
     one sub-group per band group will be used
     custom distributed-memory algorithm (size of sub-group:  5*  5 procs)


     Parallelization info
     --------------------
     sticks:   dense  smooth     PW     G-vecs:    dense   smooth      PW
     Min         308     176     48                45962    19855    2880
     Max         309     177     49                45970    19862    2886
     Sum        8941    5109   1411              1332973   575857   83601

     Using Slab Decomposition



     bravais-lattice index     =            0
     lattice parameter (alat)  =      20.9009  a.u.
     unit-cell volume          =   16846.7507 (a.u.)^3
     number of atoms/cell      =           63
     number of atomic types    =            4
     number of electrons       =      1004.00
     number of Kohn-Sham states=          602
     kinetic-energy cutoff     =      40.0000  Ry
     charge density cutoff     =     280.0000  Ry
     scf convergence threshold =      1.0E-06
     mixing beta               =       0.4000
     number of iterations used =            8  plain     mixing
     energy convergence thresh.=      1.0E-05
     force convergence thresh. =      5.0E-04
     Exchange-correlation= PBE
                           (   1   4   3   4   0   0   0)
     nstep                     =          500


     celldm(1)=  20.900943  celldm(2)=   0.000000  celldm(3)=   0.000000
     celldm(4)=   0.000000  celldm(5)=   0.000000  celldm(6)=   0.000000

     crystal axes: (cart. coord. in units of alat)
               a(1) = (   1.000000   0.000000   0.000000 )  
               a(2) = (  -0.223489   0.918700   0.000000 )  
               a(3) = (  -4.200249  -1.021781   2.008375 )  

     reciprocal axes: (cart. coord. in units 2 pi/alat)
               b(1) = (  1.000000  0.243267  2.215131 )  
               b(2) = ( -0.000000  1.088495  0.553783 )  
               b(3) = (  0.000000 -0.000000  0.497915 )  


     PseudoPot. # 1 for Zn read from file:
     /home/yongsang/Research/PSID_server_room/qe/[00]QE/qepseudo/SSSP_1.3.0_PBE_efficiency/Zn_pbe_v1.uspp.F.UPF
     MD5 check sum: df62231357ef9e81f77b2b3087fa5675
     Pseudo is Ultrasoft, Zval = 20.0
     Generated by new atomic code, or converted to UPF format
     Using radial grid of  943 points,  6 beta functions with: 
                l(1) =   0
                l(2) =   0
                l(3) =   1
                l(4) =   1
                l(5) =   2
                l(6) =   2
     Q(r) pseudized with  8 coefficients,  rinner =    1.100   1.100   1.100
                                                       1.100   1.100

     PseudoPot. # 2 for N  read from file:
     /home/yongsang/Research/PSID_server_room/qe/[00]QE/qepseudo/SSSP_1.3.0_PBE_efficiency/N.pbe-n-radius_5.UPF
     MD5 check sum: 16739722b17309cd8fe442a2ace49922
     Pseudo is Ultrasoft + core correction, Zval =  5.0
     Generated using "atomic" code by A. Dal Corso  v.5.1
     Using radial grid of 1085 points,  4 beta functions with: 
                l(1) =   0
                l(2) =   0
                l(3) =   1
                l(4) =   1
     Q(r) pseudized with 0 coefficients 


     PseudoPot. # 3 for C  read from file:
     /home/yongsang/Research/PSID_server_room/qe/[00]QE/qepseudo/SSSP_1.3.0_PBE_efficiency/C.pbe-n-kjpaw_psl.1.0.0.UPF
     MD5 check sum: 5d2aebdfa2cae82b50a7e79e9516da0f
     Pseudo is Projector augmented-wave + core cor, Zval =  4.0
     Generated using "atomic" code by A. Dal Corso  v.5.1
     Shape of augmentation charge: PSQ
     Using radial grid of 1073 points,  4 beta functions with: 
                l(1) =   0
                l(2) =   0
                l(3) =   1
                l(4) =   1
     Q(r) pseudized with 0 coefficients 


     PseudoPot. # 4 for H  read from file:
     /home/yongsang/Research/PSID_server_room/qe/[00]QE/qepseudo/SSSP_1.3.0_PBE_efficiency/H.pbe-rrkjus_psl.1.0.0.UPF
     MD5 check sum: f52b6d4d1c606e5624b1dc7b2218f220
     Pseudo is Ultrasoft, Zval =  1.0
     Generated using "atomic" code by A. Dal Corso  v.5.1
     Using radial grid of  929 points,  2 beta functions with: 
                l(1) =   0
                l(2) =   0
     Q(r) pseudized with 0 coefficients 


     atomic species   valence    mass     pseudopotential
     Zn               20.00    65.38000     Zn( 1.00)
     N                 5.00    14.00674     N ( 1.00)
     C                 4.00    12.01070     C ( 1.00)
     H                 1.00     1.00794     H ( 1.00)

     No symmetry found


                                    s                        frac. trans.

      isym =  1     identity                                     

 cryst.   s( 1) = (     1          0          0      )
                  (     0          1          0      )
                  (     0          0          1      )

 cart.    s( 1) = (  1.0000000  0.0000000  0.0000000 )
                  (  0.0000000  1.0000000  0.0000000 )
                  (  0.0000000  0.0000000  1.0000000 )


   Cartesian axes

     site n.     atom                  positions (alat units)
         1        Zn     tau(   1) = (  -0.0970639   0.0980210   0.1082940  )
         2        Zn     tau(   2) = (  -0.2088085   0.5573710   0.1082940  )
         3        Zn     tau(   3) = (  -0.3881751   0.0267131   0.3855589  )
         4        Zn     tau(   4) = (  -0.5010058   0.4867715   0.3860775  )
         5        Zn     tau(   5) = (  -0.7472089  -0.0625161   0.5258693  )
         6        Zn     tau(   6) = (  -0.8657523   0.3956250   0.5205399  )
         7        Zn     tau(   7) = (  -0.1529361   0.3276960   0.1082940  )
         8        Zn     tau(   8) = (  -0.2646808   0.7870460   0.1082940  )
         9        Zn     tau(   9) = (  -0.4443517   0.2569196   0.3837725  )
        10        Zn     tau(  10) = (  -0.5565831   0.7155862   0.3899503  )
        11        Zn     tau(  11) = (  -0.8067362   0.1666005   0.5207230  )
        12        Zn     tau(  12) = (  -0.9145204   0.6261702   0.5299429  )
        13        Zn     tau(  13) = (   0.4029362   0.0980210   0.1082940  )
        14        Zn     tau(  14) = (   0.2911915   0.5573710   0.1082940  )
        15        Zn     tau(  15) = (   0.0352917   0.0088745   0.3147925  )
        16        Zn     tau(  16) = (  -0.0758276   0.4682252   0.3152026  )
        17        Zn     tau(  17) = (  -0.1953261  -0.0472412   0.5065114  )
        18        Zn     tau(  18) = (  -0.3094105   0.4130825   0.5063781  )
        19        Zn     tau(  19) = (   0.3470638   0.3276960   0.1082940  )
        20        Zn     tau(  20) = (   0.2353192   0.7870460   0.1082940  )
        21        Zn     tau(  21) = (  -0.0165566   0.2390924   0.3139992  )
        22        Zn     tau(  22) = (  -0.1322883   0.6971064   0.3149814  )
        23        Zn     tau(  23) = (  -0.2665052   0.1796256   0.5288084  )
        24        Zn     tau(  24) = (  -0.3613558   0.6421219   0.5088537  )
        25        Zn     tau(  25) = (   0.1529361   0.0372043   0.0773528  )
        26        Zn     tau(  26) = (   0.0411915   0.4965543   0.0773528  )
        27        Zn     tau(  27) = (  -0.2036636  -0.0493484   0.2577732  )
        28        Zn     tau(  28) = (  -0.3144628   0.4097693   0.2579519  )
        29        Zn     tau(  29) = (  -0.5538139  -0.1357387   0.4044004  )
        30        Zn     tau(  30) = (  -0.6651405   0.3244817   0.4028419  )
        31        Zn     tau(  31) = (   0.0970639   0.2668793   0.0773528  )
        32        Zn     tau(  32) = (  -0.0146808   0.7262293   0.0773528  )
        33        Zn     tau(  33) = (  -0.2530951   0.1817878   0.2669125  )
        34        Zn     tau(  34) = (  -0.3710438   0.6399151   0.2588336  )
        35        Zn     tau(  35) = (  -0.6083653   0.0949245   0.4026717  )
        36        Zn     tau(  36) = (  -0.7224414   0.5531514   0.4036386  )
        37        Zn     tau(  37) = (   0.6529362   0.0372043   0.0773528  )
        38        Zn     tau(  38) = (   0.5411915   0.4965543   0.0773528  )
        39        Zn     tau(  39) = (   0.2693804  -0.0564871   0.2652737  )
        40        Zn     tau(  40) = (   0.1596179   0.4034979   0.2614255  )
        41        Zn     tau(  41) = (   0.0295874  -0.1121647   0.5270023  )
        42        Zn     tau(  42) = (  -0.0908476   0.3417511   0.5243815  )
        43        Zn     tau(  43) = (   0.5970639   0.2668793   0.0773528  )
        44        Zn     tau(  44) = (   0.4853193   0.7262293   0.0773528  )
        45        Zn     tau(  45) = (   0.2154935   0.1733987   0.2631897  )
        46        Zn     tau(  46) = (   0.1015654   0.6329278   0.2646210  )
        47        Zn     tau(  47) = (  -0.0336223   0.1173544   0.5259160  )
        48        Zn     tau(  48) = (  -0.1380091   0.5746197   0.5279957  )
        49        C      tau(  49) = (  -0.7866780   0.4373433   0.8091801  )
        50        C      tau(  50) = (  -0.6823842   0.3641669   0.7910729  )
        51        C      tau(  51) = (  -0.6933337   0.2382308   0.7765211  )
        52        C      tau(  52) = (  -0.5671686   0.4173761   0.7842402  )
        53        C      tau(  53) = (  -0.5914562   0.1676587   0.7552262  )
        54        C      tau(  54) = (  -0.4655888   0.3468117   0.7635853  )
        55        C      tau(  55) = (  -0.4765486   0.2210153   0.7490423  )
        56        N      tau(  56) = (  -0.8726498   0.4975026   0.8212651  )
        57        N      tau(  57) = (  -0.3727876   0.1515645   0.7233646  )
        58        H      tau(  58) = (  -0.2985392   0.1737958   0.7731173  )
        59        H      tau(  59) = (  -0.3869120   0.0605863   0.7256891  )
        60        H      tau(  60) = (  -0.5583623   0.5148410   0.7938384  )
        61        H      tau(  61) = (  -0.7819314   0.1957154   0.7827223  )
        62        H      tau(  62) = (  -0.3765939   0.3890943   0.7586525  )
        63        H      tau(  63) = (  -0.6011291   0.0701212   0.7432412  )

     --------------------------------------------
     DFT-D3 Dispersion Correction (3-body terms):
     --------------------------------------------
       Reference C6 values for interpolation: 

         atom   Coordination number   C6
         H          0.912             6.05
         H          0.000            15.18
         C          0.000            98.23
         C          0.987            86.49
         C          1.998            58.72
         C          2.999            51.56
         C          3.984            36.41
         N          0.000            50.54
         N          0.994            44.25
         N          2.014            39.35
         N          2.990            31.16
         Zn         0.000           681.04
         Zn         1.942           306.91

       Values used:

         atom   Coordination number  R0_AB[au]  C6      C8
         Zn         6.223            3.053    306.91  23930.67
         Zn         6.247            3.053    306.91  23930.67
         Zn         7.002            3.053    306.91  23930.67
         Zn         7.004            3.053    306.91  23930.67
         Zn         5.046            3.053    306.91  23930.67
         Zn         5.139            3.053    306.91  23930.67
         Zn         6.214            3.053    306.91  23930.67
         Zn         6.246            3.053    306.91  23930.67
         Zn         7.022            3.053    306.91  23930.67
         Zn         6.973            3.053    306.91  23930.67
         Zn         5.156            3.053    306.91  23930.67
         Zn         4.948            3.053    306.91  23930.67
         Zn         4.858            3.053    306.91  23930.67
         Zn         4.869            3.053    306.91  23930.67
         Zn         7.204            3.053    306.91  23930.67
         Zn         7.204            3.053    306.91  23930.67
         Zn         6.037            3.053    306.91  23930.67
         Zn         6.063            3.053    306.91  23930.67
         Zn         4.909            3.053    306.91  23930.67
         Zn         4.814            3.053    306.91  23930.67
         Zn         7.327            3.053    306.91  23930.67
         Zn         7.194            3.053    306.91  23930.67
         Zn         5.925            3.053    306.91  23930.67
         Zn         5.970            3.053    306.91  23930.67
         Zn         5.581            3.053    306.91  23930.67
         Zn         5.597            3.053    306.91  23930.67
         Zn         8.122            3.053    306.91  23930.67
         Zn         8.139            3.053    306.91  23930.67
         Zn         7.002            3.053    306.91  23930.67
         Zn         7.005            3.053    306.91  23930.67
         Zn         5.637            3.053    306.91  23930.67
         Zn         5.574            3.053    306.91  23930.67
         Zn         7.744            3.053    306.91  23930.67
         Zn         8.093            3.053    306.91  23930.67
         Zn         7.011            3.053    306.91  23930.67
         Zn         7.014            3.053    306.91  23930.67
         Zn         4.885            3.053    306.91  23930.67
         Zn         5.003            3.053    306.91  23930.67
         Zn         8.292            3.053    306.91  23930.67
         Zn         8.435            3.053    306.91  23930.67
         Zn         6.000            3.053    306.91  23930.67
         Zn         6.047            3.053    306.91  23930.67
         Zn         4.886            3.053    306.91  23930.67
         Zn         5.005            3.053    306.91  23930.67
         Zn         8.428            3.053    306.91  23930.67
         Zn         8.258            3.053    306.91  23930.67
         Zn         5.991            3.053    306.91  23930.67
         Zn         5.989            3.053    306.91  23930.67
         C          2.120            2.750     58.53   1692.67
         C          3.160            2.750     50.45   1458.98
         C          3.204            2.750     50.01   1446.50
         C          3.181            2.750     50.26   1453.60
         C          3.176            2.750     50.30   1454.77
         C          3.183            2.750     50.24   1452.89
         C          3.167            2.750     50.38   1457.17
         N          1.037            2.478     44.22    975.52
         N          3.468            2.478     31.17    687.58
         H          1.014            2.062      6.17     74.57
         H          1.012            2.062      6.17     74.59
         H          1.005            2.062      6.18     74.67
         H          1.008            2.062      6.17     74.63
         H          1.008            2.062      6.17     74.63
         H          1.006            2.062      6.18     74.66

         Molecular C6 ( Ry / a.u.^6 ) =    840816.33


   Crystallographic axes

     site n.     atom                  positions (cryst. coord.)
         1        Zn     tau(   1) = (  0.1666667  0.1666667  0.0539212  )
         2        Zn     tau(   2) = (  0.1666668  0.6666667  0.0539212  )
         3        Zn     tau(   3) = (  0.4723869  0.2425930  0.1919756  )
         4        Zn     tau(   4) = (  0.4726220  0.7436512  0.1922338  )
         5        Zn     tau(   5) = (  0.4024526  0.2231689  0.2618382  )
         6        Zn     tau(   6) = (  0.3835545  0.7189018  0.2591846  )
         7        Zn     tau(   7) = (  0.1666668  0.4166667  0.0539212  )
         8        Zn     tau(   8) = (  0.1666667  0.9166667  0.0539212  )
         9        Zn     tau(   9) = (  0.4682548  0.4921822  0.1910861  )
        10        Zn     tau(  10) = (  0.4812864  0.9948594  0.1941621  )
        11        Zn     tau(  11) = (  0.3872620  0.4697112  0.2592758  )
        12        Zn     tau(  12) = (  0.4116992  0.9750562  0.2638665  )
        13        Zn     tau(  13) = (  0.6666668  0.1666667  0.0539212  )
        14        Zn     tau(  14) = (  0.6666667  0.6666667  0.0539212  )
        15        Zn     tau(  15) = (  0.7347573  0.1839866  0.1567399  )
        16        Zn     tau(  16) = (  0.7362912  0.6842144  0.1569441  )
        17        Zn     tau(  17) = (  0.9151709  0.2290755  0.2521996  )
        18        Zn     tau(  18) = (  0.9127728  0.7300616  0.2521332  )
        19        Zn     tau(  19) = (  0.6666668  0.4166667  0.0539212  )
        20        Zn     tau(  20) = (  0.6666668  0.9166667  0.0539212  )
        21        Zn     tau(  21) = (  0.7371560  0.4341381  0.1563449  )
        22        Zn     tau(  22) = (  0.7350198  0.9332279  0.1568340  )
        23        Zn     tau(  23) = (  0.9485717  0.4883665  0.2633016  )
        24        Zn     tau(  24) = (  0.9220290  0.9807407  0.2533659  )
        25        Zn     tau(  25) = (  0.3333333  0.0833333  0.0385151  )
        26        Zn     tau(  26) = (  0.3333333  0.5833333  0.0385151  )
        27        Zn     tau(  27) = (  0.3553331  0.0890349  0.1283492  )
        28        Zn     tau(  28) = (  0.3566177  0.5888810  0.1284381  )
        29        Zn     tau(  29) = (  0.3089653  0.0761991  0.2013570  )
        30        Zn     tau(  30) = (  0.3061429  0.5762835  0.2005810  )
        31        Zn     tau(  31) = (  0.3333333  0.3333333  0.0385151  )
        32        Zn     tau(  32) = (  0.3333333  0.8333333  0.0385151  )
        33        Zn     tau(  33) = (  0.3823740  0.3456866  0.1328997  )
        34        Zn     tau(  34) = (  0.3579767  0.8398817  0.1288771  )
        35        Zn     tau(  35) = (  0.3066973  0.3263174  0.2004963  )
        36        Zn     tau(  36) = (  0.3062345  0.8256304  0.2009777  )
        37        Zn     tau(  37) = (  0.8333333  0.0833333  0.0385151  )
        38        Zn     tau(  38) = (  0.8333333  0.5833333  0.0385151  )
        39        Zn     tau(  39) = (  0.8432551  0.0854182  0.1320838  )
        40        Zn     tau(  40) = (  0.8368673  0.5839782  0.1301677  )
        41        Zn     tau(  41) = (  1.1696807  0.1697542  0.2624023  )
        42        Zn     tau(  42) = (  1.1538630  0.6623876  0.2610974  )
        43        Zn     tau(  43) = (  0.8333333  0.3333333  0.0385151  )
        44        Zn     tau(  44) = (  0.8333333  0.8333333  0.0385151  )
        45        Zn     tau(  45) = (  0.8406754  0.3344935  0.1310461  )
        46        Zn     tau(  46) = (  0.8417059  0.8354810  0.1317587  )
        47        Zn     tau(  47) = (  1.1598991  0.4189829  0.2618614  )
        48        Zn     tau(  48) = (  1.1713567  0.9178654  0.2628970  )
        49        C      tau(  49) = (  1.1121534  0.9241559  0.4029029  )
        50        C      tau(  50) = (  1.1585359  0.8344762  0.3938870  )
        51        C      tau(  51) = (  1.0847161  0.6893369  0.3866415  )
        52        C      tau(  52) = (  1.2715603  0.8886104  0.3904850  )
        53        C      tau(  53) = (  1.1222549  0.6007269  0.3760385  )
        54        C      tau(  54) = (  1.3102206  0.8003630  0.3802006  )
        55        C      tau(  55) = (  1.2364442  0.6553807  0.3729594  )
        56        N      tau(  56) = (  1.0675861  0.9963314  0.4089202  )
        57        N      tau(  57) = (  1.2664305  0.5655639  0.3601741  )
        58        H      tau(  58) = (  1.4562959  0.6173148  0.3849467  )
        59        H      tau(  59) = (  1.2353232  0.4678220  0.3613315  )
        60        H      tau(  60) = (  1.3253378  1.0000158  0.3952641  )
        61        H      tau(  61) = (  0.9995124  0.6464933  0.3897292  )
        62        H      tau(  62) = (  1.3985748  0.8436557  0.3777445  )
        63        H      tau(  63) = (  1.0623060  0.4879208  0.3700709  )

     number of k points=     5  Marzari-Vanderbilt smearing, width (Ry)=  0.0200
                       cart. coord. in units 2pi/alat
        k(    1) = (   0.0000000   0.0000000   0.0000000), wk =   0.2222222
        k(    2) = (   0.0000000   0.3628315   0.1845943), wk =   0.4444444
        k(    3) = (   0.3333333   0.0810890   0.7383771), wk =   0.4444444
        k(    4) = (   0.3333333   0.4439205   0.9229714), wk =   0.4444444
        k(    5) = (   0.3333333  -0.2817426   0.5537829), wk =   0.4444444

                       cryst. coord.
        k(    1) = (   0.0000000   0.0000000   0.0000000), wk =   0.2222222
        k(    2) = (   0.0000000   0.3333333   0.0000000), wk =   0.4444444
        k(    3) = (   0.3333333   0.0000000   0.0000000), wk =   0.4444444
        k(    4) = (   0.3333333   0.3333333   0.0000000), wk =   0.4444444
        k(    5) = (   0.3333333  -0.3333333   0.0000000), wk =   0.4444444

     Dense  grid:  1332973 G-vectors     FFT dimensions: ( 120, 108, 540)

     Smooth grid:   575857 G-vectors     FFT dimensions: (  90,  80, 405)

     Dynamical RAM for                 wfc:      22.79 MB

     Dynamical RAM for     wfc (w. buffer):     136.74 MB

     Dynamical RAM for           str. fact:       2.81 MB

     Dynamical RAM for           local pot:       0.00 MB

     Dynamical RAM for          nlocal pot:      35.89 MB

     Dynamical RAM for                qrad:       5.37 MB

     Dynamical RAM for          rho,v,vnew:       7.74 MB

     Dynamical RAM for               rhoin:       2.58 MB

     Dynamical RAM for            rho*nmix:      11.22 MB

     Dynamical RAM for           G-vectors:       2.78 MB

     Dynamical RAM for          h,s,v(r/c):       2.64 MB

     Dynamical RAM for          <psi|beta>:       8.71 MB

     Dynamical RAM for                 psi:      45.58 MB

     Dynamical RAM for                hpsi:      45.58 MB

     Dynamical RAM for                spsi:      45.58 MB

     Dynamical RAM for      wfcinit/wfcrot:      60.58 MB

     Dynamical RAM for           addusdens:     164.12 MB

     Dynamical RAM for          addusforce:     230.58 MB

     Dynamical RAM for         addusstress:     140.97 MB

     Estimated static dynamical RAM per process >     206.81 MB

     Estimated max dynamical RAM per process >     448.61 MB

     Estimated total dynamical RAM >      12.70 GB

     Initial potential from superposition of free atoms

     starting charge    1003.9929, renormalised to    1004.0000

     negative rho (up, down):  3.406E-03 0.000E+00
     Starting wfcs are  666 randomized atomic wfcs
     Checking if some PAW data can be deallocated... 
       PAW data deallocated on   25 nodes for type:  3

     total cpu time spent up to now is       40.7 secs

     Self-consistent Calculation

     iteration #  1     ecut=    40.00 Ry     beta= 0.40
     Davidson diagonalization with overlap

---- Real-time Memory Report at c_bands before calling an iterative solver
           433 MiB given to the printing process from OS
             0 MiB allocation reported by mallinfo(arena+hblkhd)
        205662 MiB available memory on the node where the printing process lives
------------------
     ethr =  1.00E-02,  avg # of iterations =  7.8

     Threshold (ethr) on eigenvalues was too large:
     Diagonalizing with lowered threshold

     Davidson diagonalization with overlap

---- Real-time Memory Report at c_bands before calling an iterative solver
           568 MiB given to the printing process from OS
             0 MiB allocation reported by mallinfo(arena+hblkhd)
        204656 MiB available memory on the node where the printing process lives
------------------
     ethr =  9.11E-04,  avg # of iterations =  1.4

     negative rho (up, down):  4.206E-03 0.000E+00

     total cpu time spent up to now is      285.3 secs

     total energy              =  -22327.17205024 Ry
     estimated scf accuracy    <       9.22746434 Ry

     iteration #  2     ecut=    40.00 Ry     beta= 0.40
     Davidson diagonalization with overlap

---- Real-time Memory Report at c_bands before calling an iterative solver
           592 MiB given to the printing process from OS
             0 MiB allocation reported by mallinfo(arena+hblkhd)
        204620 MiB available memory on the node where the printing process lives
------------------
     ethr =  9.19E-04,  avg # of iterations =  8.4

     negative rho (up, down):  5.618E-03 0.000E+00

     total cpu time spent up to now is      427.7 secs

     total energy              =  -22313.81236854 Ry
     estimated scf accuracy    <     222.89556688 Ry

     iteration #  3     ecut=    40.00 Ry     beta= 0.40
     Davidson diagonalization with overlap

---- Real-time Memory Report at c_bands before calling an iterative solver
           594 MiB given to the printing process from OS
             0 MiB allocation reported by mallinfo(arena+hblkhd)
        204523 MiB available memory on the node where the printing process lives
------------------
     ethr =  9.19E-04,  avg # of iterations =  6.6

     negative rho (up, down):  5.614E-03 0.000E+00

     total cpu time spent up to now is      586.4 secs

     total energy              =  -22330.10893430 Ry
     estimated scf accuracy    <      13.70162262 Ry

     iteration #  4     ecut=    40.00 Ry     beta= 0.40
     Davidson diagonalization with overlap

---- Real-time Memory Report at c_bands before calling an iterative solver
           594 MiB given to the printing process from OS
             0 MiB allocation reported by mallinfo(arena+hblkhd)
        204500 MiB available memory on the node where the printing process lives
------------------
     ethr =  9.19E-04,  avg # of iterations =  3.6

     negative rho (up, down):  5.482E-03 0.000E+00

     total cpu time spent up to now is      706.3 secs

     total energy              =  -22330.91183472 Ry
     estimated scf accuracy    <       2.11270105 Ry

     iteration #  5     ecut=    40.00 Ry     beta= 0.40
     Davidson diagonalization with overlap

---- Real-time Memory Report at c_bands before calling an iterative solver
           595 MiB given to the printing process from OS
             0 MiB allocation reported by mallinfo(arena+hblkhd)
        204489 MiB available memory on the node where the printing process lives
------------------
     ethr =  2.10E-04,  avg # of iterations =  2.8

     negative rho (up, down):  5.310E-03 0.000E+00

     total cpu time spent up to now is      824.2 secs

     total energy              =  -22331.07242827 Ry
     estimated scf accuracy    <       0.36017913 Ry

     iteration #  6     ecut=    40.00 Ry     beta= 0.40
     Davidson diagonalization with overlap

---- Real-time Memory Report at c_bands before calling an iterative solver
           597 MiB given to the printing process from OS
             0 MiB allocation reported by mallinfo(arena+hblkhd)
        204469 MiB available memory on the node where the printing process lives
------------------
     ethr =  3.59E-05,  avg # of iterations = 13.0

     negative rho (up, down):  5.268E-03 0.000E+00

     total cpu time spent up to now is      964.5 secs

     total energy              =  -22331.07424799 Ry
     estimated scf accuracy    <       0.13223584 Ry

     iteration #  7     ecut=    40.00 Ry     beta= 0.40
     Davidson diagonalization with overlap

---- Real-time Memory Report at c_bands before calling an iterative solver
           598 MiB given to the printing process from OS
             0 MiB allocation reported by mallinfo(arena+hblkhd)
        204534 MiB available memory on the node where the printing process lives
------------------
     ethr =  1.32E-05,  avg # of iterations =  2.8

     negative rho (up, down):  5.304E-03 0.000E+00

     total cpu time spent up to now is     1081.5 secs

     total energy              =  -22331.07690501 Ry
     estimated scf accuracy    <       0.04846418 Ry

     iteration #  8     ecut=    40.00 Ry     beta= 0.40
     Davidson diagonalization with overlap

---- Real-time Memory Report at c_bands before calling an iterative solver
           598 MiB given to the printing process from OS
             0 MiB allocation reported by mallinfo(arena+hblkhd)
        204508 MiB available memory on the node where the printing process lives
------------------
     c_bands:  1 eigenvalues not converged
     ethr =  4.83E-06,  avg # of iterations = 18.0

     negative rho (up, down):  5.336E-03 0.000E+00

     total cpu time spent up to now is     1227.7 secs

     total energy              =  -22331.07883541 Ry
     estimated scf accuracy    <       0.03875817 Ry

     iteration #  9     ecut=    40.00 Ry     beta= 0.40
     Davidson diagonalization with overlap

---- Real-time Memory Report at c_bands before calling an iterative solver
           599 MiB given to the printing process from OS
             0 MiB allocation reported by mallinfo(arena+hblkhd)
        204480 MiB available memory on the node where the printing process lives
------------------
     ethr =  3.86E-06,  avg # of iterations =  2.8

     negative rho (up, down):  5.356E-03 0.000E+00

     total cpu time spent up to now is     1347.5 secs

     total energy              =  -22331.08104888 Ry
     estimated scf accuracy    <       0.00922271 Ry

     iteration # 10     ecut=    40.00 Ry     beta= 0.40
     Davidson diagonalization with overlap

---- Real-time Memory Report at c_bands before calling an iterative solver
           600 MiB given to the printing process from OS
             0 MiB allocation reported by mallinfo(arena+hblkhd)
        204453 MiB available memory on the node where the printing process lives
------------------
     ethr =  9.19E-07,  avg # of iterations =  5.8

     negative rho (up, down):  5.371E-03 0.000E+00

     total cpu time spent up to now is     1471.1 secs

     total energy              =  -22331.08053027 Ry
     estimated scf accuracy    <       0.00624864 Ry

     iteration # 11     ecut=    40.00 Ry     beta= 0.40
     Davidson diagonalization with overlap

---- Real-time Memory Report at c_bands before calling an iterative solver
           601 MiB given to the printing process from OS
             0 MiB allocation reported by mallinfo(arena+hblkhd)
        204431 MiB available memory on the node where the printing process lives
------------------
     ethr =  6.22E-07,  avg # of iterations = 10.4

     negative rho (up, down):  5.400E-03 0.000E+00

     total cpu time spent up to now is     1598.7 secs

     total energy              =  -22331.07898436 Ry
     estimated scf accuracy    <       0.00410781 Ry

     iteration # 12     ecut=    40.00 Ry     beta= 0.40
     Davidson diagonalization with overlap

---- Real-time Memory Report at c_bands before calling an iterative solver
           601 MiB given to the printing process from OS
             0 MiB allocation reported by mallinfo(arena+hblkhd)
        204431 MiB available memory on the node where the printing process lives
------------------
     c_bands:  1 eigenvalues not converged
     c_bands:  1 eigenvalues not converged
     ethr =  4.09E-07,  avg # of iterations = 16.2

     negative rho (up, down):  5.400E-03 0.000E+00

     total cpu time spent up to now is     1749.6 secs

     total energy              =  -22331.07936994 Ry
     estimated scf accuracy    <       0.00078381 Ry

     iteration # 13     ecut=    40.00 Ry     beta= 0.40
     Davidson diagonalization with overlap

---- Real-time Memory Report at c_bands before calling an iterative solver
           605 MiB given to the printing process from OS
             0 MiB allocation reported by mallinfo(arena+hblkhd)
        204422 MiB available memory on the node where the printing process lives
------------------
     c_bands:  1 eigenvalues not converged
     ethr =  7.81E-08,  avg # of iterations =  5.6

     negative rho (up, down):  5.402E-03 0.000E+00

     total cpu time spent up to now is     1871.0 secs

     total energy              =  -22331.07940332 Ry
     estimated scf accuracy    <       0.00011799 Ry

     iteration # 14     ecut=    40.00 Ry     beta= 0.40
     Davidson diagonalization with overlap

---- Real-time Memory Report at c_bands before calling an iterative solver
           606 MiB given to the printing process from OS
             0 MiB allocation reported by mallinfo(arena+hblkhd)
        204420 MiB available memory on the node where the printing process lives
------------------
     ethr =  1.18E-08,  avg # of iterations =  2.4

     negative rho (up, down):  5.403E-03 0.000E+00

     total cpu time spent up to now is     1987.9 secs

     total energy              =  -22331.07941010 Ry
     estimated scf accuracy    <       0.00022680 Ry

     iteration # 15     ecut=    40.00 Ry     beta= 0.40
     Davidson diagonalization with overlap

---- Real-time Memory Report at c_bands before calling an iterative solver
           606 MiB given to the printing process from OS
             0 MiB allocation reported by mallinfo(arena+hblkhd)
        204423 MiB available memory on the node where the printing process lives
------------------
     ethr =  1.18E-08,  avg # of iterations =  2.0

     negative rho (up, down):  5.404E-03 0.000E+00

     total cpu time spent up to now is     2100.7 secs

     total energy              =  -22331.07943042 Ry
     estimated scf accuracy    <       0.00001678 Ry

     iteration # 16     ecut=    40.00 Ry     beta= 0.40
     Davidson diagonalization with overlap

---- Real-time Memory Report at c_bands before calling an iterative solver
           606 MiB given to the printing process from OS
             0 MiB allocation reported by mallinfo(arena+hblkhd)
        204418 MiB available memory on the node where the printing process lives
------------------
     ethr =  1.67E-09,  avg # of iterations =  2.0

     negative rho (up, down):  5.404E-03 0.000E+00

     total cpu time spent up to now is     2216.9 secs

     total energy              =  -22331.07943149 Ry
     estimated scf accuracy    <       0.00000324 Ry

     iteration # 17     ecut=    40.00 Ry     beta= 0.40
     Davidson diagonalization with overlap

---- Real-time Memory Report at c_bands before calling an iterative solver
           606 MiB given to the printing process from OS
             0 MiB allocation reported by mallinfo(arena+hblkhd)
        204416 MiB available memory on the node where the printing process lives
------------------
     ethr =  3.23E-10,  avg # of iterations =  2.0

     negative rho (up, down):  5.405E-03 0.000E+00

     total cpu time spent up to now is     2333.4 secs

     total energy              =  -22331.07943166 Ry
     estimated scf accuracy    <       0.00000183 Ry

     iteration # 18     ecut=    40.00 Ry     beta= 0.40
     Davidson diagonalization with overlap

---- Real-time Memory Report at c_bands before calling an iterative solver
           606 MiB given to the printing process from OS
             0 MiB allocation reported by mallinfo(arena+hblkhd)
        204415 MiB available memory on the node where the printing process lives
------------------
     ethr =  1.82E-10,  avg # of iterations =  2.0

     negative rho (up, down):  5.405E-03 0.000E+00

     total cpu time spent up to now is     2446.0 secs

     End of self-consistent calculation

          k = 0.0000 0.0000 0.0000 ( 71933 PWs)   bands (ev):

  -125.0089-125.0051-124.9995-124.9959-124.9915-124.9820-124.9781-124.9374
  -124.8954-124.8939-124.8912-124.8891-124.8832-124.8812-124.8780-124.8768
  -124.8102-124.8055-124.7973-124.7958-124.7951-124.7948-124.7937-124.7908
  -124.7903-124.7848-124.7809-124.7789-124.7776-124.7763-124.7602-124.7126
  -124.7051-124.7022-124.6947-124.6907-124.6867-124.6855-124.6789-124.6787
  -124.6726-124.6702-124.6684-124.6651-124.6406-124.6397-124.6196-124.5963
   -79.1694 -79.1646 -79.1575 -79.1569 -79.1545 -79.1543 -79.1520 -79.1516
   -79.1511 -79.1504 -79.1432 -79.1407 -79.1400 -79.1392 -79.1367 -79.1364
   -79.1332 -79.1311 -79.1258 -79.1220 -79.1182 -79.0992 -79.0843 -79.0838
   -79.0563 -79.0525 -79.0516 -79.0474 -79.0442 -79.0418 -79.0411 -79.0403
   -79.0397 -79.0390 -79.0366 -79.0349 -79.0330 -79.0306 -79.0300 -79.0293
   -79.0270 -79.0265 -79.0256 -79.0245 -79.0231 -79.0203 -79.0189 -79.0166
   -78.9699 -78.9651 -78.9627 -78.9597 -78.9593 -78.9564 -78.9555 -78.9548
   -78.9541 -78.9525 -78.9523 -78.9502 -78.9496 -78.9485 -78.9478 -78.9476
   -78.9475 -78.9473 -78.9453 -78.9448 -78.9443 -78.9432 -78.9427 -78.9417
   -78.9408 -78.9397 -78.9385 -78.9378 -78.9371 -78.9354 -78.9349 -78.9319
   -78.9313 -78.9296 -78.9296 -78.9285 -78.9278 -78.9267 -78.9262 -78.9253
   -78.9188 -78.9162 -78.9150 -78.9061 -78.8922 -78.8850 -78.8735 -78.8665
   -78.8640 -78.8610 -78.8605 -78.8596 -78.8587 -78.8557 -78.8546 -78.8533
   -78.8508 -78.8504 -78.8493 -78.8463 -78.8454 -78.8434 -78.8411 -78.8405
   -78.8386 -78.8368 -78.8367 -78.8351 -78.8336 -78.8323 -78.8313 -78.8281
   -78.8278 -78.8267 -78.8264 -78.8257 -78.8203 -78.8201 -78.8185 -78.8152
   -78.8146 -78.8129 -78.8123 -78.8095 -78.8085 -78.8001 -78.7903 -78.7885
   -78.7878 -78.7872 -78.7768 -78.7706 -78.7647 -78.7626 -78.7460 -78.7373
   -18.7050 -17.3628 -16.4698 -14.0088 -13.9952 -10.9955 -10.7169  -8.8427
    -8.2673  -8.1208  -7.9773  -7.2066  -6.9264  -6.7779  -6.7652  -6.7495
    -6.7209  -6.6731  -6.6711  -6.6450  -6.6050  -6.5844  -6.5617  -6.5269
    -6.5221  -6.4924  -6.4723  -6.4553  -6.4448  -6.4332  -6.4217  -6.4060
    -6.3996  -6.3808  -6.3629  -6.3489  -6.3465  -6.3413  -6.3309  -6.3145
    -6.3124  -6.3071  -6.2857  -6.2771  -6.2749  -6.2687  -6.2545  -6.2528
    -6.2464  -6.2427  -6.2405  -6.2368  -6.2352  -6.2283  -6.2244  -6.2154
    -6.2092  -6.2037  -6.1981  -6.1937  -6.1917  -6.1729  -6.1667  -6.1624
    -6.1517  -6.1463  -6.1330  -6.1234  -6.1171  -6.1122  -6.1071  -6.0991
    -6.0914  -6.0865  -6.0694  -6.0651  -6.0588  -6.0468  -6.0426  -6.0299
    -6.0237  -6.0184  -6.0144  -6.0044  -6.0035  -5.9980  -5.9734  -5.9717
    -5.9648  -5.9606  -5.9575  -5.9318  -5.9299  -5.9269  -5.9230  -5.9175
    -5.9119  -5.9116  -5.9085  -5.8986  -5.8969  -5.8924  -5.8757  -5.8700
    -5.8687  -5.8648  -5.8631  -5.8526  -5.8365  -5.8224  -5.8197  -5.8165
    -5.7952  -5.7914  -5.7868  -5.7838  -5.7778  -5.7761  -5.7692  -5.7635
    -5.7523  -5.7492  -5.7405  -5.7392  -5.7343  -5.7334  -5.7284  -5.7259
    -5.7228  -5.7189  -5.7088  -5.7076  -5.7001  -5.6984  -5.6979  -5.6904
    -5.6894  -5.6797  -5.6754  -5.6731  -5.6710  -5.6641  -5.6614  -5.6591
    -5.6531  -5.6507  -5.6438  -5.6408  -5.6398  -5.6313  -5.6297  -5.6177
    -5.6139  -5.6079  -5.6057  -5.6009  -5.5883  -5.5808  -5.5786  -5.5740
    -5.5724  -5.5650  -5.5583  -5.5538  -5.5524  -5.5465  -5.5445  -5.5330
    -5.5307  -5.5273  -5.5247  -5.5233  -5.5214  -5.5150  -5.5113  -5.5077
    -5.5033  -5.4991  -5.4981  -5.4903  -5.4843  -5.4830  -5.4779  -5.4733
    -5.4693  -5.4675  -5.4644  -5.4577  -5.4534  -5.4494  -5.4479  -5.4440
    -5.4412  -5.4391  -5.4250  -5.4218  -5.4179  -5.4150  -5.4100  -5.4031
    -5.3954  -5.3939  -5.3915  -5.3899  -5.3860  -5.3810  -5.3764  -5.3738
    -5.3663  -5.3661  -5.3630  -5.3593  -5.3545  -5.3515  -5.3496  -5.3412
    -5.3388  -5.3362  -5.3334  -5.3311  -5.3250  -5.3201  -5.3194  -5.3169
    -5.3088  -5.3082  -5.2951  -5.2930  -5.2897  -5.2866  -5.2818  -5.2802
    -5.2728  -5.2676  -5.2658  -5.2648  -5.2612  -5.2600  -5.2586  -5.2567
    -5.2527  -5.2362  -5.2214  -5.2169  -5.2128  -5.2057  -5.1972  -5.1938
    -5.1848  -5.1780  -5.1746  -5.1608  -5.1446  -5.1378  -5.1286  -5.0940
    -5.0791  -5.0591  -5.0444  -4.9614  -4.9412  -4.9251  -4.8244  -4.5111
    -4.2275  -4.1615  -4.0425  -3.9677  -3.8254  -3.7093  -3.6958  -3.4871
    -3.3709  -3.2873  -2.9155  -2.8633  -2.5135  -2.2338  -2.2113  -2.1227
    -1.9201  -1.8473  -1.6874  -1.6689  -1.4869  -1.4453  -1.4147  -1.2607
    -1.2095  -1.1634  -1.1519  -1.0930  -0.9041  -0.6728  -0.6342  -0.1261
     0.0855   0.1449   0.1717   0.2730   0.3150   0.3428   0.4019   0.4348
     0.7395   0.8611   0.8870   0.9431   1.2083   1.2415   1.7992   2.0422
     2.0513   2.1288   2.1558   2.3099   2.3367   2.4269   2.4765   2.5428
     2.6059   2.6816   2.8706   2.9529   3.0224   3.0840   3.2646   3.4594
     3.5115   3.5322   3.6313   3.7153   3.9995   4.1568   4.2742   4.2777
     4.2889   4.4036   4.4698   4.4835   4.5895   4.8701   4.9073   4.9644
     5.0634   5.1183   5.2633   5.3741   5.5217   5.5566   5.6557   5.6840
     5.7100   5.7237   5.7653   5.7946   5.8690   5.9574   5.9789   6.0852
     6.1733   6.2157   6.2498   6.2631   6.2962   6.3182   6.3508   6.3557
     6.4159   6.4366   6.4623   6.4773   6.5229   6.5685   6.5933   6.6303
     6.6340   6.6829   6.6944   6.8231   6.8568   6.8771   6.9097   6.9617
     7.0998   7.1961   7.2698   7.3197   7.3387   7.3677   7.3968   7.4482
     7.4721   7.5174   7.5545   7.5621   7.6593   7.7360   7.7446   7.7655
     7.7883   7.8202   7.8256   7.8909   7.9440   8.0621   8.1090   8.1399
     8.2039   8.2301

     occupation numbers 
     1.0000   1.0000   1.0000   1.0000   1.0000   1.0000   1.0000   1.0000
     1.0000   1.0000   1.0000   1.0000   1.0000   1.0000   1.0000   1.0000
     1.0000   1.0000   1.0000   1.0000   1.0000   1.0000   1.0000   1.0000
     1.0000   1.0000   1.0000   1.0000   1.0000   1.0000   1.0000   1.0000
     1.0000   1.0000   1.0000   1.0000   1.0000   1.0000   1.0000   1.0000
     1.0000   1.0000   1.0000   1.0000   1.0000   1.0000   1.0000   1.0000
     1.0000   1.0000   1.0000   1.0000   1.0000   1.0000   1.0000   1.0000
     1.0000   1.0000   1.0000   1.0000   1.0000   1.0000   1.0000   1.0000
     1.0000   1.0000   1.0000   1.0000   1.0000   1.0000   1.0000   1.0000
     1.0000   1.0000   1.0000   1.0000   1.0000   1.0000   1.0000   1.0000
     1.0000   1.0000   1.0000   1.0000   1.0000   1.0000   1.0000   1.0000
     1.0000   1.0000   1.0000   1.0000   1.0000   1.0000   1.0000   1.0000
     1.0000   1.0000   1.0000   1.0000   1.0000   1.0000   1.0000   1.0000
     1.0000   1.0000   1.0000   1.0000   1.0000   1.0000   1.0000   1.0000
     1.0000   1.0000   1.0000   1.0000   1.0000   1.0000   1.0000   1.0000
     1.0000   1.0000   1.0000   1.0000   1.0000   1.0000   1.0000   1.0000
     1.0000   1.0000   1.0000   1.0000   1.0000   1.0000   1.0000   1.0000
     1.0000   1.0000   1.0000   1.0000   1.0000   1.0000   1.0000   1.0000
     1.0000   1.0000   1.0000   1.0000   1.0000   1.0000   1.0000   1.0000
     1.0000   1.0000   1.0000   1.0000   1.0000   1.0000   1.0000   1.0000
     1.0000   1.0000   1.0000   1.0000   1.0000   1.0000   1.0000   1.0000
     1.0000   1.0000   1.0000   1.0000   1.0000   1.0000   1.0000   1.0000
     1.0000   1.0000   1.0000   1.0000   1.0000   1.0000   1.0000   1.0000
     1.0000   1.0000   1.0000   1.0000   1.0000   1.0000   1.0000   1.0000
     1.0000   1.0000   1.0000   1.0000   1.0000   1.0000   1.0000   1.0000
     1.0000   1.0000   1.0000   1.0000   1.0000   1.0000   1.0000   1.0000
     1.0000   1.0000   1.0000   1.0000   1.0000   1.0000   1.0000   1.0000
     1.0000   1.0000   1.0000   1.0000   1.0000   1.0000   1.0000   1.0000
     1.0000   1.0000   1.0000   1.0000   1.0000   1.0000   1.0000   1.0000
     1.0000   1.0000   1.0000   1.0000   1.0000   1.0000   1.0000   1.0000
     1.0000   1.0000   1.0000   1.0000   1.0000   1.0000   1.0000   1.0000
     1.0000   1.0000   1.0000   1.0000   1.0000   1.0000   1.0000   1.0000
     1.0000   1.0000   1.0000   1.0000   1.0000   1.0000   1.0000   1.0000
     1.0000   1.0000   1.0000   1.0000   1.0000   1.0000   1.0000   1.0000
     1.0000   1.0000   1.0000   1.0000   1.0000   1.0000   1.0000   1.0000
     1.0000   1.0000   1.0000   1.0000   1.0000   1.0000   1.0000   1.0000
     1.0000   1.0000   1.0000   1.0000   1.0000   1.0000   1.0000   1.0000
     1.0000   1.0000   1.0000   1.0000   1.0000   1.0000   1.0000   1.0000
     1.0000   1.0000   1.0000   1.0000   1.0000   1.0000   1.0000   1.0000
     1.0000   1.0000   1.0000   1.0000   1.0000   1.0000   1.0000   1.0000
     1.0000   1.0000   1.0000   1.0000   1.0000   1.0000   1.0000   1.0000
     1.0000   1.0000   1.0000   1.0000   1.0000   1.0000   1.0000   1.0000
     1.0000   1.0000   1.0000   1.0000   1.0000   1.0000   1.0000   1.0000
     1.0000   1.0000   1.0000   1.0000   1.0000   1.0000   1.0000   1.0000
     1.0000   1.0000   1.0000   1.0000   1.0000   1.0000   1.0000   1.0000
     1.0000   1.0000   1.0000   1.0000   1.0000   1.0000   1.0000   1.0000
     1.0000   1.0000   1.0000   1.0000   1.0000   1.0000   1.0000   1.0000
     1.0000   1.0000   1.0000   1.0000   1.0000   1.0000   1.0000   1.0000
     1.0000   1.0000   1.0000   1.0000   1.0000   1.0000   1.0000   1.0000
     1.0000   1.0000   1.0000   1.0000   1.0000   1.0000   1.0000   1.0000
     1.0000   1.0000   1.0000   1.0000   1.0000   1.0000   1.0000   1.0000
     1.0000   1.0000   1.0000   1.0000   1.0000   1.0000   1.0000   1.0000
     1.0000   1.0000   1.0000   1.0000   1.0000   1.0000   1.0000   1.0000
     1.0000   1.0000   1.0000   1.0000   1.0000   1.0000   1.0000   1.0000
     1.0000   1.0000   1.0000   1.0000   1.0000   1.0000   1.0000   1.0000
     1.0000   1.0000   1.0000   1.0000   1.0000   1.0000   1.0000   1.0000
     1.0000   1.0000   1.0000   1.0000   1.0000   1.0000   1.0000   1.0000
     1.0000   1.0000   1.0000   1.0000   1.0000   1.0000   1.0000   1.0000
     1.0000   1.0000   1.0000   1.0000   1.0000   1.0000   1.0000   1.0000
     1.0000   1.0000   1.0000   1.0000   1.0000   1.0000   1.0000   1.0000
     1.0000   1.0000   1.0000   1.0000   1.0000   1.0000   1.0000   1.0000
     1.0000   1.0000   1.0000   1.0000   1.0000   1.0000   1.0000   1.0000
     1.0021   1.0115   1.0156   1.0278   1.0691   1.0461   0.0319   0.0007
     0.0005   0.0001   0.0001   0.0000   0.0000   0.0000   0.0000   0.0000
     0.0000   0.0000   0.0000   0.0000   0.0000   0.0000   0.0000   0.0000
     0.0000   0.0000   0.0000   0.0000   0.0000   0.0000   0.0000   0.0000
     0.0000   0.0000   0.0000   0.0000   0.0000   0.0000   0.0000   0.0000
     0.0000   0.0000   0.0000   0.0000   0.0000   0.0000   0.0000   0.0000
     0.0000   0.0000   0.0000   0.0000   0.0000   0.0000   0.0000   0.0000
     0.0000   0.0000   0.0000   0.0000   0.0000   0.0000   0.0000   0.0000
     0.0000   0.0000   0.0000   0.0000   0.0000   0.0000   0.0000   0.0000
     0.0000   0.0000   0.0000   0.0000   0.0000   0.0000   0.0000   0.0000
     0.0000   0.0000   0.0000   0.0000   0.0000   0.0000   0.0000   0.0000
     0.0000   0.0000   0.0000   0.0000   0.0000   0.0000   0.0000   0.0000
     0.0000   0.0000   0.0000   0.0000   0.0000   0.0000   0.0000   0.0000
     0.0000   0.0000

          k = 0.0000 0.3628 0.1846 ( 71963 PWs)   bands (ev):

  -125.0089-125.0051-124.9995-124.9959-124.9915-124.9820-124.9781-124.9374
  -124.8954-124.8939-124.8912-124.8891-124.8832-124.8812-124.8780-124.8768
  -124.8102-124.8055-124.7973-124.7958-124.7951-124.7949-124.7937-124.7908
  -124.7903-124.7848-124.7809-124.7789-124.7776-124.7763-124.7602-124.7126
  -124.7051-124.7022-124.6947-124.6907-124.6867-124.6855-124.6789-124.6787
  -124.6726-124.6702-124.6684-124.6651-124.6406-124.6397-124.6196-124.5963
   -79.1694 -79.1646 -79.1575 -79.1564 -79.1545 -79.1543 -79.1518 -79.1515
   -79.1514 -79.1504 -79.1432 -79.1414 -79.1406 -79.1397 -79.1367 -79.1364
   -79.1330 -79.1293 -79.1258 -79.1221 -79.1187 -79.0992 -79.0843 -79.0839
   -79.0559 -79.0522 -79.0509 -79.0476 -79.0468 -79.0430 -79.0411 -79.0402
   -79.0391 -79.0372 -79.0358 -79.0349 -79.0334 -79.0312 -79.0301 -79.0293
   -79.0278 -79.0259 -79.0245 -79.0239 -79.0230 -79.0203 -79.0189 -79.0175
   -78.9697 -78.9651 -78.9623 -78.9597 -78.9593 -78.9565 -78.9556 -78.9551
   -78.9541 -78.9526 -78.9522 -78.9509 -78.9491 -78.9489 -78.9485 -78.9478
   -78.9476 -78.9473 -78.9459 -78.9448 -78.9443 -78.9430 -78.9423 -78.9409
   -78.9398 -78.9392 -78.9387 -78.9381 -78.9376 -78.9354 -78.9349 -78.9319
   -78.9315 -78.9302 -78.9296 -78.9280 -78.9268 -78.9268 -78.9261 -78.9254
   -78.9186 -78.9167 -78.9153 -78.9061 -78.8921 -78.8850 -78.8735 -78.8665
   -78.8640 -78.8608 -78.8605 -78.8596 -78.8587 -78.8556 -78.8546 -78.8523
   -78.8508 -78.8504 -78.8492 -78.8463 -78.8459 -78.8453 -78.8434 -78.8405
   -78.8369 -78.8367 -78.8351 -78.8342 -78.8335 -78.8322 -78.8313 -78.8278
   -78.8277 -78.8273 -78.8262 -78.8255 -78.8203 -78.8201 -78.8189 -78.8181
   -78.8152 -78.8131 -78.8095 -78.8085 -78.8082 -78.8011 -78.7903 -78.7883
   -78.7878 -78.7872 -78.7774 -78.7706 -78.7647 -78.7621 -78.7460 -78.7373
   -18.7050 -17.3628 -16.4698 -14.0088 -13.9952 -10.9955 -10.7168  -8.8426
    -8.2673  -8.1209  -7.8142  -7.3513  -7.1063  -6.8391  -6.8003  -6.6708
    -6.6600  -6.6455  -6.6326  -6.6207  -6.5693  -6.5433  -6.5356  -6.5262
    -6.4910  -6.4806  -6.4634  -6.4606  -6.4403  -6.4350  -6.4251  -6.4188
    -6.4166  -6.4121  -6.3880  -6.3779  -6.3660  -6.3578  -6.3523  -6.3451
    -6.3391  -6.3258  -6.3119  -6.3095  -6.3060  -6.3005  -6.2810  -6.2735
    -6.2622  -6.2579  -6.2571  -6.2465  -6.2380  -6.2215  -6.2169  -6.2090
    -6.2051  -6.1931  -6.1852  -6.1798  -6.1723  -6.1630  -6.1560  -6.1534
    -6.1489  -6.1435  -6.1366  -6.1318  -6.1164  -6.1125  -6.0977  -6.0923
    -6.0884  -6.0849  -6.0754  -6.0681  -6.0530  -6.0489  -6.0409  -6.0306
    -6.0251  -6.0213  -6.0128  -6.0097  -6.0033  -5.9967  -5.9895  -5.9807
    -5.9723  -5.9644  -5.9622  -5.9586  -5.9469  -5.9417  -5.9365  -5.9325
    -5.9253  -5.9170  -5.9126  -5.9062  -5.9000  -5.8923  -5.8886  -5.8753
    -5.8697  -5.8675  -5.8610  -5.8548  -5.8506  -5.8460  -5.8358  -5.8338
    -5.8301  -5.8278  -5.8190  -5.8105  -5.8066  -5.7947  -5.7932  -5.7877
    -5.7825  -5.7774  -5.7714  -5.7664  -5.7592  -5.7529  -5.7447  -5.7405
    -5.7380  -5.7265  -5.7224  -5.7193  -5.7148  -5.7067  -5.7023  -5.6999
    -5.6903  -5.6871  -5.6842  -5.6754  -5.6738  -5.6681  -5.6626  -5.6578
    -5.6527  -5.6501  -5.6476  -5.6411  -5.6326  -5.6256  -5.6215  -5.6165
    -5.6149  -5.6019  -5.5959  -5.5873  -5.5808  -5.5754  -5.5694  -5.5584
    -5.5513  -5.5467  -5.5426  -5.5376  -5.5334  -5.5296  -5.5257  -5.5209
    -5.5181  -5.5163  -5.5106  -5.5009  -5.4980  -5.4966  -5.4927  -5.4870
    -5.4795  -5.4741  -5.4717  -5.4665  -5.4630  -5.4609  -5.4542  -5.4505
    -5.4466  -5.4450  -5.4423  -5.4388  -5.4338  -5.4311  -5.4262  -5.4216
    -5.4164  -5.4155  -5.4123  -5.4080  -5.4044  -5.4011  -5.3938  -5.3917
    -5.3902  -5.3866  -5.3812  -5.3771  -5.3678  -5.3639  -5.3592  -5.3566
    -5.3554  -5.3518  -5.3474  -5.3443  -5.3422  -5.3403  -5.3372  -5.3337
    -5.3262  -5.3234  -5.3201  -5.3174  -5.3151  -5.3131  -5.3057  -5.3000
    -5.2981  -5.2951  -5.2931  -5.2917  -5.2895  -5.2889  -5.2869  -5.2851
    -5.2771  -5.2748  -5.2693  -5.2664  -5.2601  -5.2558  -5.2529  -5.2496
    -5.2480  -5.2435  -5.2412  -5.2299  -5.2292  -5.2161  -5.2078  -5.1991
    -5.1936  -5.1917  -5.1783  -5.1626  -5.1509  -5.1499  -5.1375  -5.1082
    -5.1052  -5.0328  -5.0206  -5.0087  -4.8519  -4.7015  -4.6053  -4.5480
    -4.4336  -4.1977  -4.1296  -3.9112  -3.8236  -3.7376  -3.3086  -3.1913
    -3.1642  -3.1343  -2.9605  -2.9075  -2.8310  -2.5640  -2.4090  -2.3385
    -2.1893  -2.1167  -1.9978  -1.8103  -1.6742  -1.5434  -1.3001  -1.2499
    -1.2344  -1.0886  -0.9822  -0.8690  -0.8200  -0.7647  -0.4891  -0.2230
    -0.1886  -0.0423   0.0078   0.1660   0.3353   0.5251   0.5575   0.6960
     0.7463   0.9000   1.0793   1.1450   1.2174   1.3674   1.5823   1.8829
     2.0730   2.1400   2.2295   2.4549   2.4924   2.6261   2.7036   2.7679
     2.8305   2.8996   2.9694   3.2361   3.3037   3.3347   3.3841   3.5843
     3.7131   3.7617   3.7820   4.0954   4.1263   4.2060   4.2344   4.3056
     4.3649   4.4050   4.4601   4.5388   4.6136   4.7799   4.8307   4.8596
     4.8910   4.9467   4.9719   5.0298   5.0815   5.2399   5.2798   5.3577
     5.4168   5.4534   5.4952   5.5454   5.6441   5.7070   5.7433   5.7890
     5.8275   5.9019   5.9379   5.9718   6.0527   6.0934   6.1963   6.2639
     6.2924   6.3446   6.3888   6.4248   6.5293   6.5528   6.5926   6.6577
     6.6816   6.7133   6.7432   6.7836   6.8444   6.9229   6.9559   7.0210
     7.0938   7.1363   7.1729   7.2210   7.2803   7.3457   7.3854   7.4232
     7.4460   7.5024   7.5660   7.5910   7.6561   7.6976   7.7618   7.7914
     7.8364   7.8766   7.9133   8.0128   8.0720   8.1105   8.1445   8.1486
     8.2110   8.2533

     occupation numbers 
     1.0000   1.0000   1.0000   1.0000   1.0000   1.0000   1.0000   1.0000
     1.0000   1.0000   1.0000   1.0000   1.0000   1.0000   1.0000   1.0000
     1.0000   1.0000   1.0000   1.0000   1.0000   1.0000   1.0000   1.0000
     1.0000   1.0000   1.0000   1.0000   1.0000   1.0000   1.0000   1.0000
     1.0000   1.0000   1.0000   1.0000   1.0000   1.0000   1.0000   1.0000
     1.0000   1.0000   1.0000   1.0000   1.0000   1.0000   1.0000   1.0000
     1.0000   1.0000   1.0000   1.0000   1.0000   1.0000   1.0000   1.0000
     1.0000   1.0000   1.0000   1.0000   1.0000   1.0000   1.0000   1.0000
     1.0000   1.0000   1.0000   1.0000   1.0000   1.0000   1.0000   1.0000
     1.0000   1.0000   1.0000   1.0000   1.0000   1.0000   1.0000   1.0000
     1.0000   1.0000   1.0000   1.0000   1.0000   1.0000   1.0000   1.0000
     1.0000   1.0000   1.0000   1.0000   1.0000   1.0000   1.0000   1.0000
     1.0000   1.0000   1.0000   1.0000   1.0000   1.0000   1.0000   1.0000
     1.0000   1.0000   1.0000   1.0000   1.0000   1.0000   1.0000   1.0000
     1.0000   1.0000   1.0000   1.0000   1.0000   1.0000   1.0000   1.0000
     1.0000   1.0000   1.0000   1.0000   1.0000   1.0000   1.0000   1.0000
     1.0000   1.0000   1.0000   1.0000   1.0000   1.0000   1.0000   1.0000
     1.0000   1.0000   1.0000   1.0000   1.0000   1.0000   1.0000   1.0000
     1.0000   1.0000   1.0000   1.0000   1.0000   1.0000   1.0000   1.0000
     1.0000   1.0000   1.0000   1.0000   1.0000   1.0000   1.0000   1.0000
     1.0000   1.0000   1.0000   1.0000   1.0000   1.0000   1.0000   1.0000
     1.0000   1.0000   1.0000   1.0000   1.0000   1.0000   1.0000   1.0000
     1.0000   1.0000   1.0000   1.0000   1.0000   1.0000   1.0000   1.0000
     1.0000   1.0000   1.0000   1.0000   1.0000   1.0000   1.0000   1.0000
     1.0000   1.0000   1.0000   1.0000   1.0000   1.0000   1.0000   1.0000
     1.0000   1.0000   1.0000   1.0000   1.0000   1.0000   1.0000   1.0000
     1.0000   1.0000   1.0000   1.0000   1.0000   1.0000   1.0000   1.0000
     1.0000   1.0000   1.0000   1.0000   1.0000   1.0000   1.0000   1.0000
     1.0000   1.0000   1.0000   1.0000   1.0000   1.0000   1.0000   1.0000
     1.0000   1.0000   1.0000   1.0000   1.0000   1.0000   1.0000   1.0000
     1.0000   1.0000   1.0000   1.0000   1.0000   1.0000   1.0000   1.0000
     1.0000   1.0000   1.0000   1.0000   1.0000   1.0000   1.0000   1.0000
     1.0000   1.0000   1.0000   1.0000   1.0000   1.0000   1.0000   1.0000
     1.0000   1.0000   1.0000   1.0000   1.0000   1.0000   1.0000   1.0000
     1.0000   1.0000   1.0000   1.0000   1.0000   1.0000   1.0000   1.0000
     1.0000   1.0000   1.0000   1.0000   1.0000   1.0000   1.0000   1.0000
     1.0000   1.0000   1.0000   1.0000   1.0000   1.0000   1.0000   1.0000
     1.0000   1.0000   1.0000   1.0000   1.0000   1.0000   1.0000   1.0000
     1.0000   1.0000   1.0000   1.0000   1.0000   1.0000   1.0000   1.0000
     1.0000   1.0000   1.0000   1.0000   1.0000   1.0000   1.0000   1.0000
     1.0000   1.0000   1.0000   1.0000   1.0000   1.0000   1.0000   1.0000
     1.0000   1.0000   1.0000   1.0000   1.0000   1.0000   1.0000   1.0000
     1.0000   1.0000   1.0000   1.0000   1.0000   1.0000   1.0000   1.0000
     1.0000   1.0000   1.0000   1.0000   1.0000   1.0000   1.0000   1.0000
     1.0000   1.0000   1.0000   1.0000   1.0000   1.0000   1.0000   1.0000
     1.0000   1.0000   1.0000   1.0000   1.0000   1.0000   1.0000   1.0000
     1.0000   1.0000   1.0000   1.0000   1.0000   1.0000   1.0000   1.0000
     1.0000   1.0000   1.0000   1.0000   1.0000   1.0000   1.0000   1.0000
     1.0000   1.0000   1.0000   1.0000   1.0000   1.0000   1.0000   1.0000
     1.0000   1.0000   1.0000   1.0000   1.0000   1.0000   1.0000   1.0000
     1.0000   1.0000   1.0000   1.0000   1.0000   1.0000   1.0000   1.0000
     1.0000   1.0000   1.0000   1.0000   1.0000   1.0000   1.0000   1.0000
     1.0000   1.0000   1.0000   1.0000   1.0000   1.0000   1.0000   1.0000
     1.0000   1.0000   1.0000   1.0000   1.0000   1.0000   1.0000   1.0000
     1.0000   1.0000   1.0000   1.0000   1.0000   1.0000   1.0000   1.0000
     1.0000   1.0000   1.0000   1.0000   1.0000   1.0000   1.0000   1.0000
     1.0000   1.0000   1.0000   1.0000   1.0000   1.0000   1.0000   1.0000
     1.0000   1.0000   1.0000   1.0000   1.0000   1.0000   1.0000   1.0000
     1.0000   1.0000   1.0000   1.0000   1.0000   1.0000   1.0000   1.0000
     1.0000   1.0000   1.0000   1.0000   1.0000   1.0000   1.0000   1.0000
     1.0000   1.0000   1.0000   1.0000   1.0000   1.0000   1.0000   1.0000
     1.0000   1.0000   1.0000   1.0000   1.0000   1.0000   1.0001   1.0011
     1.0024   1.0180   1.0714   1.0833   1.0640   0.8396   0.2858   0.0099
     0.0004   0.0001   0.0000   0.0000   0.0000   0.0000   0.0000   0.0000
     0.0000   0.0000   0.0000   0.0000   0.0000   0.0000   0.0000   0.0000
     0.0000   0.0000   0.0000   0.0000   0.0000   0.0000   0.0000   0.0000
     0.0000   0.0000   0.0000   0.0000   0.0000   0.0000   0.0000   0.0000
     0.0000   0.0000   0.0000   0.0000   0.0000   0.0000   0.0000   0.0000
     0.0000   0.0000   0.0000   0.0000   0.0000   0.0000   0.0000   0.0000
     0.0000   0.0000   0.0000   0.0000   0.0000   0.0000   0.0000   0.0000
     0.0000   0.0000   0.0000   0.0000   0.0000   0.0000   0.0000   0.0000
     0.0000   0.0000   0.0000   0.0000   0.0000   0.0000   0.0000   0.0000
     0.0000   0.0000   0.0000   0.0000   0.0000   0.0000   0.0000   0.0000
     0.0000   0.0000   0.0000   0.0000   0.0000   0.0000   0.0000   0.0000
     0.0000   0.0000   0.0000   0.0000   0.0000   0.0000   0.0000   0.0000
     0.0000   0.0000

          k = 0.3333 0.0811 0.7384 ( 72005 PWs)   bands (ev):

  -125.0089-125.0051-124.9995-124.9959-124.9915-124.9820-124.9781-124.9374
  -124.8954-124.8939-124.8912-124.8891-124.8832-124.8812-124.8780-124.8768
  -124.8102-124.8055-124.7973-124.7958-124.7951-124.7948-124.7937-124.7908
  -124.7903-124.7848-124.7809-124.7789-124.7776-124.7763-124.7602-124.7126
  -124.7051-124.7022-124.6947-124.6907-124.6867-124.6855-124.6789-124.6787
  -124.6726-124.6702-124.6684-124.6651-124.6406-124.6397-124.6196-124.5963
   -79.1694 -79.1646 -79.1575 -79.1569 -79.1545 -79.1543 -79.1520 -79.1516
   -79.1511 -79.1504 -79.1432 -79.1407 -79.1400 -79.1392 -79.1367 -79.1364
   -79.1332 -79.1311 -79.1258 -79.1220 -79.1182 -79.0992 -79.0843 -79.0838
   -79.0563 -79.0525 -79.0516 -79.0474 -79.0442 -79.0418 -79.0411 -79.0403
   -79.0397 -79.0390 -79.0366 -79.0349 -79.0330 -79.0306 -79.0300 -79.0293
   -79.0270 -79.0265 -79.0256 -79.0245 -79.0231 -79.0203 -79.0189 -79.0166
   -78.9699 -78.9651 -78.9627 -78.9597 -78.9593 -78.9564 -78.9555 -78.9548
   -78.9541 -78.9525 -78.9523 -78.9502 -78.9496 -78.9485 -78.9478 -78.9476
   -78.9475 -78.9473 -78.9453 -78.9448 -78.9443 -78.9432 -78.9427 -78.9417
   -78.9408 -78.9397 -78.9385 -78.9378 -78.9371 -78.9354 -78.9349 -78.9319
   -78.9313 -78.9296 -78.9296 -78.9285 -78.9278 -78.9267 -78.9262 -78.9253
   -78.9188 -78.9162 -78.9150 -78.9061 -78.8922 -78.8850 -78.8735 -78.8665
   -78.8640 -78.8610 -78.8605 -78.8596 -78.8587 -78.8557 -78.8546 -78.8533
   -78.8508 -78.8504 -78.8493 -78.8463 -78.8454 -78.8434 -78.8411 -78.8405
   -78.8386 -78.8368 -78.8367 -78.8351 -78.8336 -78.8323 -78.8313 -78.8281
   -78.8278 -78.8267 -78.8264 -78.8257 -78.8203 -78.8201 -78.8185 -78.8152
   -78.8146 -78.8129 -78.8123 -78.8095 -78.8085 -78.8001 -78.7903 -78.7885
   -78.7878 -78.7872 -78.7768 -78.7706 -78.7647 -78.7626 -78.7460 -78.7373
   -18.7050 -17.3628 -16.4698 -14.0088 -13.9952 -10.9955 -10.7168  -8.8426
    -8.2676  -8.1212  -7.8592  -7.5001  -6.8184  -6.7856  -6.7567  -6.7344
    -6.7014  -6.6711  -6.6658  -6.6336  -6.6175  -6.5809  -6.5645  -6.5391
    -6.5253  -6.4929  -6.4786  -6.4631  -6.4477  -6.4382  -6.4344  -6.4085
    -6.3903  -6.3845  -6.3655  -6.3574  -6.3546  -6.3398  -6.3165  -6.3101
    -6.3078  -6.3027  -6.2844  -6.2770  -6.2745  -6.2686  -6.2611  -6.2542
    -6.2520  -6.2440  -6.2410  -6.2397  -6.2353  -6.2300  -6.2226  -6.2175
    -6.2055  -6.2025  -6.1969  -6.1933  -6.1814  -6.1745  -6.1645  -6.1591
    -6.1537  -6.1416  -6.1281  -6.1247  -6.1147  -6.1138  -6.1070  -6.0987
    -6.0956  -6.0909  -6.0783  -6.0661  -6.0606  -6.0492  -6.0331  -6.0299
    -6.0188  -6.0144  -6.0098  -6.0074  -5.9982  -5.9915  -5.9843  -5.9793
    -5.9713  -5.9667  -5.9515  -5.9396  -5.9290  -5.9261  -5.9209  -5.9182
    -5.9133  -5.9077  -5.8992  -5.8892  -5.8870  -5.8825  -5.8748  -5.8713
    -5.8645  -5.8615  -5.8475  -5.8401  -5.8348  -5.8253  -5.8189  -5.8116
    -5.8052  -5.8018  -5.7957  -5.7925  -5.7858  -5.7821  -5.7796  -5.7700
    -5.7582  -5.7538  -5.7487  -5.7429  -5.7398  -5.7370  -5.7313  -5.7298
    -5.7228  -5.7208  -5.7155  -5.7094  -5.7046  -5.6994  -5.6976  -5.6919
    -5.6895  -5.6827  -5.6788  -5.6689  -5.6649  -5.6618  -5.6588  -5.6544
    -5.6464  -5.6401  -5.6361  -5.6329  -5.6312  -5.6292  -5.6232  -5.6189
    -5.6127  -5.6083  -5.6033  -5.5976  -5.5907  -5.5839  -5.5818  -5.5745
    -5.5721  -5.5675  -5.5651  -5.5583  -5.5520  -5.5503  -5.5478  -5.5455
    -5.5430  -5.5311  -5.5269  -5.5253  -5.5174  -5.5165  -5.5136  -5.5097
    -5.5058  -5.4974  -5.4947  -5.4920  -5.4862  -5.4840  -5.4824  -5.4773
    -5.4715  -5.4675  -5.4663  -5.4600  -5.4521  -5.4511  -5.4490  -5.4456
    -5.4430  -5.4351  -5.4335  -5.4232  -5.4199  -5.4144  -5.4084  -5.4079
    -5.4064  -5.4012  -5.3986  -5.3944  -5.3915  -5.3887  -5.3811  -5.3773
    -5.3717  -5.3677  -5.3636  -5.3599  -5.3533  -5.3525  -5.3500  -5.3461
    -5.3381  -5.3310  -5.3292  -5.3268  -5.3240  -5.3211  -5.3157  -5.3134
    -5.3094  -5.3038  -5.2984  -5.2928  -5.2891  -5.2808  -5.2770  -5.2754
    -5.2723  -5.2651  -5.2617  -5.2589  -5.2554  -5.2537  -5.2504  -5.2377
    -5.2323  -5.2268  -5.2198  -5.2053  -5.2038  -5.2008  -5.1988  -5.1849
    -5.1801  -5.1649  -5.1584  -5.1530  -5.1434  -5.1331  -5.1030  -5.0852
    -5.0804  -5.0501  -5.0379  -4.9742  -4.8797  -4.7154  -4.6936  -4.6359
    -4.3488  -4.1593  -4.1004  -4.0113  -3.8308  -3.6180  -3.5359  -3.3392
    -3.2795  -3.2001  -3.1563  -2.9116  -2.8461  -2.6087  -2.4620  -2.3757
    -2.2287  -1.8743  -1.7337  -1.5686  -1.5373  -1.3226  -1.2870  -1.2374
    -1.0649  -0.9491  -0.8845  -0.7865  -0.7606  -0.3603  -0.2486  -0.2033
    -0.0734  -0.0095   0.0039   0.0750   0.0927   0.2065   0.4070   0.4772
     0.8127   0.8300   1.0102   1.2752   1.4096   1.6781   1.6925   1.7348
     1.7823   1.9772   2.0488   2.1502   2.1764   2.2564   2.6452   2.7547
     2.9019   2.9478   3.0202   3.0817   3.1553   3.1575   3.2050   3.3253
     3.4628   3.6848   3.7380   3.8269   3.8432   3.9903   4.0568   4.1284
     4.2333   4.4979   4.5938   4.6324   4.6988   4.8335   4.8926   4.9262
     4.9753   5.0044   5.0656   5.2193   5.2840   5.3261   5.4085   5.4476
     5.5062   5.5313   5.5479   5.6090   5.6799   5.7088   5.7395   5.7758
     5.8795   5.9496   6.1145   6.1379   6.2152   6.3070   6.4133   6.4632
     6.4751   6.5143   6.6390   6.6661   6.6904   6.7200   6.7545   6.7999
     6.8373   6.9053   6.9479   6.9840   7.0094   7.0650   7.1511   7.1809
     7.2141   7.2460   7.2799   7.2908   7.3276   7.3613   7.4201   7.4513
     7.4607   7.5220   7.5524   7.5758   7.6174   7.6833   7.7117   7.7467
     7.7800   7.8108   7.8719   7.8820   7.9606   8.0397   8.0863   8.1497
     8.1907   8.2683

     occupation numbers 
     1.0000   1.0000   1.0000   1.0000   1.0000   1.0000   1.0000   1.0000
     1.0000   1.0000   1.0000   1.0000   1.0000   1.0000   1.0000   1.0000
     1.0000   1.0000   1.0000   1.0000   1.0000   1.0000   1.0000   1.0000
     1.0000   1.0000   1.0000   1.0000   1.0000   1.0000   1.0000   1.0000
     1.0000   1.0000   1.0000   1.0000   1.0000   1.0000   1.0000   1.0000
     1.0000   1.0000   1.0000   1.0000   1.0000   1.0000   1.0000   1.0000
     1.0000   1.0000   1.0000   1.0000   1.0000   1.0000   1.0000   1.0000
     1.0000   1.0000   1.0000   1.0000   1.0000   1.0000   1.0000   1.0000
     1.0000   1.0000   1.0000   1.0000   1.0000   1.0000   1.0000   1.0000
     1.0000   1.0000   1.0000   1.0000   1.0000   1.0000   1.0000   1.0000
     1.0000   1.0000   1.0000   1.0000   1.0000   1.0000   1.0000   1.0000
     1.0000   1.0000   1.0000   1.0000   1.0000   1.0000   1.0000   1.0000
     1.0000   1.0000   1.0000   1.0000   1.0000   1.0000   1.0000   1.0000
     1.0000   1.0000   1.0000   1.0000   1.0000   1.0000   1.0000   1.0000
     1.0000   1.0000   1.0000   1.0000   1.0000   1.0000   1.0000   1.0000
     1.0000   1.0000   1.0000   1.0000   1.0000   1.0000   1.0000   1.0000
     1.0000   1.0000   1.0000   1.0000   1.0000   1.0000   1.0000   1.0000
     1.0000   1.0000   1.0000   1.0000   1.0000   1.0000   1.0000   1.0000
     1.0000   1.0000   1.0000   1.0000   1.0000   1.0000   1.0000   1.0000
     1.0000   1.0000   1.0000   1.0000   1.0000   1.0000   1.0000   1.0000
     1.0000   1.0000   1.0000   1.0000   1.0000   1.0000   1.0000   1.0000
     1.0000   1.0000   1.0000   1.0000   1.0000   1.0000   1.0000   1.0000
     1.0000   1.0000   1.0000   1.0000   1.0000   1.0000   1.0000   1.0000
     1.0000   1.0000   1.0000   1.0000   1.0000   1.0000   1.0000   1.0000
     1.0000   1.0000   1.0000   1.0000   1.0000   1.0000   1.0000   1.0000
     1.0000   1.0000   1.0000   1.0000   1.0000   1.0000   1.0000   1.0000
     1.0000   1.0000   1.0000   1.0000   1.0000   1.0000   1.0000   1.0000
     1.0000   1.0000   1.0000   1.0000   1.0000   1.0000   1.0000   1.0000
     1.0000   1.0000   1.0000   1.0000   1.0000   1.0000   1.0000   1.0000
     1.0000   1.0000   1.0000   1.0000   1.0000   1.0000   1.0000   1.0000
     1.0000   1.0000   1.0000   1.0000   1.0000   1.0000   1.0000   1.0000
     1.0000   1.0000   1.0000   1.0000   1.0000   1.0000   1.0000   1.0000
     1.0000   1.0000   1.0000   1.0000   1.0000   1.0000   1.0000   1.0000
     1.0000   1.0000   1.0000   1.0000   1.0000   1.0000   1.0000   1.0000
     1.0000   1.0000   1.0000   1.0000   1.0000   1.0000   1.0000   1.0000
     1.0000   1.0000   1.0000   1.0000   1.0000   1.0000   1.0000   1.0000
     1.0000   1.0000   1.0000   1.0000   1.0000   1.0000   1.0000   1.0000
     1.0000   1.0000   1.0000   1.0000   1.0000   1.0000   1.0000   1.0000
     1.0000   1.0000   1.0000   1.0000   1.0000   1.0000   1.0000   1.0000
     1.0000   1.0000   1.0000   1.0000   1.0000   1.0000   1.0000   1.0000
     1.0000   1.0000   1.0000   1.0000   1.0000   1.0000   1.0000   1.0000
     1.0000   1.0000   1.0000   1.0000   1.0000   1.0000   1.0000   1.0000
     1.0000   1.0000   1.0000   1.0000   1.0000   1.0000   1.0000   1.0000
     1.0000   1.0000   1.0000   1.0000   1.0000   1.0000   1.0000   1.0000
     1.0000   1.0000   1.0000   1.0000   1.0000   1.0000   1.0000   1.0000
     1.0000   1.0000   1.0000   1.0000   1.0000   1.0000   1.0000   1.0000
     1.0000   1.0000   1.0000   1.0000   1.0000   1.0000   1.0000   1.0000
     1.0000   1.0000   1.0000   1.0000   1.0000   1.0000   1.0000   1.0000
     1.0000   1.0000   1.0000   1.0000   1.0000   1.0000   1.0000   1.0000
     1.0000   1.0000   1.0000   1.0000   1.0000   1.0000   1.0000   1.0000
     1.0000   1.0000   1.0000   1.0000   1.0000   1.0000   1.0000   1.0000
     1.0000   1.0000   1.0000   1.0000   1.0000   1.0000   1.0000   1.0000
     1.0000   1.0000   1.0000   1.0000   1.0000   1.0000   1.0000   1.0000
     1.0000   1.0000   1.0000   1.0000   1.0000   1.0000   1.0000   1.0000
     1.0000   1.0000   1.0000   1.0000   1.0000   1.0000   1.0000   1.0000
     1.0000   1.0000   1.0000   1.0000   1.0000   1.0000   1.0000   1.0000
     1.0000   1.0000   1.0000   1.0000   1.0000   1.0000   1.0000   1.0000
     1.0000   1.0000   1.0000   1.0000   1.0000   1.0000   1.0000   1.0000
     1.0000   1.0000   1.0000   1.0000   1.0000   1.0000   1.0000   1.0000
     1.0000   1.0000   1.0000   1.0000   1.0000   1.0000   1.0000   1.0000
     1.0000   1.0000   1.0000   1.0000   1.0000   1.0000   1.0000   1.0000
     1.0000   1.0000   1.0000   1.0000   1.0000   1.0000   1.0000   1.0000
     1.0062   1.0078   1.0483   1.0096   0.7340   0.1253   0.1086   0.0692
     0.0395   0.0021   0.0006   0.0001   0.0000   0.0000   0.0000   0.0000
     0.0000   0.0000   0.0000   0.0000   0.0000   0.0000   0.0000   0.0000
     0.0000   0.0000   0.0000   0.0000   0.0000   0.0000   0.0000   0.0000
     0.0000   0.0000   0.0000   0.0000   0.0000   0.0000   0.0000   0.0000
     0.0000   0.0000   0.0000   0.0000   0.0000   0.0000   0.0000   0.0000
     0.0000   0.0000   0.0000   0.0000   0.0000   0.0000   0.0000   0.0000
     0.0000   0.0000   0.0000   0.0000   0.0000   0.0000   0.0000   0.0000
     0.0000   0.0000   0.0000   0.0000   0.0000   0.0000   0.0000   0.0000
     0.0000   0.0000   0.0000   0.0000   0.0000   0.0000   0.0000   0.0000
     0.0000   0.0000   0.0000   0.0000   0.0000   0.0000   0.0000   0.0000
     0.0000   0.0000   0.0000   0.0000   0.0000   0.0000   0.0000   0.0000
     0.0000   0.0000   0.0000   0.0000   0.0000   0.0000   0.0000   0.0000
     0.0000   0.0000

          k = 0.3333 0.4439 0.9230 ( 71974 PWs)   bands (ev):

  -125.0089-125.0051-124.9995-124.9959-124.9915-124.9820-124.9781-124.9374
  -124.8954-124.8939-124.8912-124.8891-124.8832-124.8812-124.8780-124.8768
  -124.8102-124.8055-124.7973-124.7958-124.7951-124.7949-124.7937-124.7908
  -124.7903-124.7848-124.7809-124.7789-124.7776-124.7763-124.7602-124.7126
  -124.7051-124.7022-124.6947-124.6907-124.6867-124.6855-124.6789-124.6787
  -124.6726-124.6702-124.6684-124.6651-124.6406-124.6397-124.6196-124.5963
   -79.1694 -79.1646 -79.1575 -79.1564 -79.1545 -79.1543 -79.1518 -79.1515
   -79.1514 -79.1504 -79.1432 -79.1414 -79.1406 -79.1397 -79.1367 -79.1364
   -79.1330 -79.1293 -79.1258 -79.1221 -79.1187 -79.0992 -79.0843 -79.0839
   -79.0559 -79.0522 -79.0509 -79.0476 -79.0468 -79.0430 -79.0411 -79.0402
   -79.0391 -79.0372 -79.0358 -79.0349 -79.0334 -79.0312 -79.0301 -79.0293
   -79.0278 -79.0259 -79.0245 -79.0239 -79.0230 -79.0203 -79.0189 -79.0175
   -78.9697 -78.9651 -78.9623 -78.9597 -78.9593 -78.9565 -78.9556 -78.9551
   -78.9541 -78.9526 -78.9522 -78.9509 -78.9491 -78.9489 -78.9485 -78.9478
   -78.9476 -78.9473 -78.9459 -78.9448 -78.9443 -78.9430 -78.9423 -78.9409
   -78.9398 -78.9392 -78.9387 -78.9381 -78.9376 -78.9354 -78.9349 -78.9319
   -78.9315 -78.9302 -78.9296 -78.9280 -78.9268 -78.9268 -78.9261 -78.9254
   -78.9186 -78.9167 -78.9153 -78.9061 -78.8921 -78.8850 -78.8735 -78.8665
   -78.8640 -78.8608 -78.8605 -78.8596 -78.8587 -78.8556 -78.8546 -78.8523
   -78.8508 -78.8504 -78.8492 -78.8463 -78.8459 -78.8453 -78.8434 -78.8405
   -78.8369 -78.8367 -78.8351 -78.8342 -78.8335 -78.8322 -78.8313 -78.8278
   -78.8277 -78.8273 -78.8262 -78.8255 -78.8203 -78.8201 -78.8189 -78.8181
   -78.8152 -78.8131 -78.8095 -78.8085 -78.8082 -78.8011 -78.7903 -78.7883
   -78.7878 -78.7872 -78.7774 -78.7706 -78.7647 -78.7621 -78.7460 -78.7373
   -18.7050 -17.3628 -16.4698 -14.0088 -13.9952 -10.9955 -10.7168  -8.8426
    -8.2676  -8.1213  -7.6493  -7.4437  -7.3469  -6.8403  -6.7064  -6.6757
    -6.6553  -6.6344  -6.6219  -6.6170  -6.5434  -6.5407  -6.5351  -6.5238
    -6.4944  -6.4813  -6.4734  -6.4623  -6.4445  -6.4395  -6.4374  -6.4283
    -6.4157  -6.4055  -6.3908  -6.3865  -6.3773  -6.3600  -6.3562  -6.3464
    -6.3443  -6.3337  -6.3100  -6.3058  -6.2938  -6.2923  -6.2790  -6.2734
    -6.2612  -6.2554  -6.2544  -6.2506  -6.2426  -6.2302  -6.2177  -6.2141
    -6.2039  -6.1893  -6.1837  -6.1782  -6.1676  -6.1618  -6.1554  -6.1486
    -6.1457  -6.1382  -6.1312  -6.1292  -6.1180  -6.1135  -6.0974  -6.0962
    -6.0906  -6.0865  -6.0840  -6.0708  -6.0531  -6.0490  -6.0457  -6.0381
    -6.0290  -6.0178  -6.0125  -6.0097  -5.9982  -5.9942  -5.9877  -5.9836
    -5.9718  -5.9702  -5.9672  -5.9545  -5.9470  -5.9423  -5.9367  -5.9303
    -5.9173  -5.9118  -5.9094  -5.9049  -5.8967  -5.8877  -5.8813  -5.8703
    -5.8667  -5.8651  -5.8553  -5.8493  -5.8418  -5.8360  -5.8337  -5.8293
    -5.8259  -5.8235  -5.8181  -5.8095  -5.8032  -5.8016  -5.7945  -5.7892
    -5.7866  -5.7832  -5.7751  -5.7709  -5.7647  -5.7567  -5.7478  -5.7440
    -5.7390  -5.7288  -5.7218  -5.7182  -5.7157  -5.7112  -5.7065  -5.6998
    -5.6933  -5.6898  -5.6863  -5.6782  -5.6705  -5.6651  -5.6589  -5.6566
    -5.6533  -5.6457  -5.6427  -5.6377  -5.6321  -5.6280  -5.6229  -5.6188
    -5.6093  -5.6015  -5.5980  -5.5939  -5.5882  -5.5799  -5.5762  -5.5670
    -5.5594  -5.5564  -5.5490  -5.5420  -5.5381  -5.5308  -5.5279  -5.5220
    -5.5151  -5.5136  -5.5119  -5.5076  -5.5015  -5.4994  -5.4961  -5.4905
    -5.4871  -5.4806  -5.4735  -5.4726  -5.4683  -5.4645  -5.4601  -5.4574
    -5.4555  -5.4532  -5.4428  -5.4420  -5.4373  -5.4348  -5.4309  -5.4284
    -5.4243  -5.4175  -5.4133  -5.4098  -5.4058  -5.4020  -5.3964  -5.3897
    -5.3870  -5.3830  -5.3799  -5.3728  -5.3682  -5.3648  -5.3617  -5.3589
    -5.3572  -5.3523  -5.3508  -5.3476  -5.3420  -5.3396  -5.3372  -5.3346
    -5.3320  -5.3219  -5.3178  -5.3146  -5.3125  -5.3105  -5.3081  -5.3025
    -5.2988  -5.2977  -5.2923  -5.2911  -5.2887  -5.2853  -5.2832  -5.2780
    -5.2766  -5.2687  -5.2655  -5.2612  -5.2585  -5.2532  -5.2507  -5.2461
    -5.2432  -5.2427  -5.2364  -5.2278  -5.2268  -5.2181  -5.2107  -5.1886
    -5.1846  -5.1813  -5.1689  -5.1558  -5.1485  -5.1420  -5.1355  -5.1058
    -5.0912  -5.0255  -5.0071  -4.8740  -4.7773  -4.6083  -4.5735  -4.5460
    -4.3269  -4.2202  -4.1093  -3.9640  -3.8268  -3.6461  -3.3369  -3.3050
    -3.2137  -3.1389  -2.9649  -2.9014  -2.8016  -2.5881  -2.4181  -2.3975
    -2.3590  -2.2240  -2.1087  -1.9471  -1.8626  -1.7614  -1.6820  -1.2750
    -1.2049  -1.0886  -1.0136  -0.8076  -0.6414  -0.5026  -0.2314  -0.2262
    -0.1808   0.1596   0.1758   0.3306   0.3839   0.5244   0.7561   0.7889
     0.8663   1.0890   1.1377   1.2184   1.3713   1.5838   1.7566   1.8262
     2.1422   2.1704   2.2298   2.3387   2.4711   2.5622   2.6932   2.8078
     2.8644   2.8947   2.9026   2.9859   3.2411   3.2643   3.3105   3.3302
     3.4059   3.5786   3.5881   3.7782   3.8256   4.0458   4.1194   4.2045
     4.2517   4.2900   4.3635   4.4590   4.6134   4.6701   4.7682   4.8059
     4.8388   4.8788   4.9823   5.0285   5.0755   5.2609   5.2900   5.4381
     5.4879   5.5002   5.5223   5.5814   5.7273   5.7548   5.7845   5.8461
     5.8877   5.9297   5.9813   6.0462   6.0781   6.1488   6.1879   6.2851
     6.3078   6.3805   6.4020   6.4848   6.5358   6.5536   6.6159   6.6648
     6.7108   6.7334   6.8270   6.8559   6.8859   6.9012   6.9677   7.0179
     7.1011   7.1809   7.2374   7.2614   7.3211   7.3960   7.4301   7.4804
     7.5209   7.5640   7.6005   7.6466   7.7194   7.7862   7.8642   7.9082
     7.9478   7.9715   8.0140   8.1010   8.1274   8.1450   8.1921   8.2321
     8.3118   8.3344

     occupation numbers 
     1.0000   1.0000   1.0000   1.0000   1.0000   1.0000   1.0000   1.0000
     1.0000   1.0000   1.0000   1.0000   1.0000   1.0000   1.0000   1.0000
     1.0000   1.0000   1.0000   1.0000   1.0000   1.0000   1.0000   1.0000
     1.0000   1.0000   1.0000   1.0000   1.0000   1.0000   1.0000   1.0000
     1.0000   1.0000   1.0000   1.0000   1.0000   1.0000   1.0000   1.0000
     1.0000   1.0000   1.0000   1.0000   1.0000   1.0000   1.0000   1.0000
     1.0000   1.0000   1.0000   1.0000   1.0000   1.0000   1.0000   1.0000
     1.0000   1.0000   1.0000   1.0000   1.0000   1.0000   1.0000   1.0000
     1.0000   1.0000   1.0000   1.0000   1.0000   1.0000   1.0000   1.0000
     1.0000   1.0000   1.0000   1.0000   1.0000   1.0000   1.0000   1.0000
     1.0000   1.0000   1.0000   1.0000   1.0000   1.0000   1.0000   1.0000
     1.0000   1.0000   1.0000   1.0000   1.0000   1.0000   1.0000   1.0000
     1.0000   1.0000   1.0000   1.0000   1.0000   1.0000   1.0000   1.0000
     1.0000   1.0000   1.0000   1.0000   1.0000   1.0000   1.0000   1.0000
     1.0000   1.0000   1.0000   1.0000   1.0000   1.0000   1.0000   1.0000
     1.0000   1.0000   1.0000   1.0000   1.0000   1.0000   1.0000   1.0000
     1.0000   1.0000   1.0000   1.0000   1.0000   1.0000   1.0000   1.0000
     1.0000   1.0000   1.0000   1.0000   1.0000   1.0000   1.0000   1.0000
     1.0000   1.0000   1.0000   1.0000   1.0000   1.0000   1.0000   1.0000
     1.0000   1.0000   1.0000   1.0000   1.0000   1.0000   1.0000   1.0000
     1.0000   1.0000   1.0000   1.0000   1.0000   1.0000   1.0000   1.0000
     1.0000   1.0000   1.0000   1.0000   1.0000   1.0000   1.0000   1.0000
     1.0000   1.0000   1.0000   1.0000   1.0000   1.0000   1.0000   1.0000
     1.0000   1.0000   1.0000   1.0000   1.0000   1.0000   1.0000   1.0000
     1.0000   1.0000   1.0000   1.0000   1.0000   1.0000   1.0000   1.0000
     1.0000   1.0000   1.0000   1.0000   1.0000   1.0000   1.0000   1.0000
     1.0000   1.0000   1.0000   1.0000   1.0000   1.0000   1.0000   1.0000
     1.0000   1.0000   1.0000   1.0000   1.0000   1.0000   1.0000   1.0000
     1.0000   1.0000   1.0000   1.0000   1.0000   1.0000   1.0000   1.0000
     1.0000   1.0000   1.0000   1.0000   1.0000   1.0000   1.0000   1.0000
     1.0000   1.0000   1.0000   1.0000   1.0000   1.0000   1.0000   1.0000
     1.0000   1.0000   1.0000   1.0000   1.0000   1.0000   1.0000   1.0000
     1.0000   1.0000   1.0000   1.0000   1.0000   1.0000   1.0000   1.0000
     1.0000   1.0000   1.0000   1.0000   1.0000   1.0000   1.0000   1.0000
     1.0000   1.0000   1.0000   1.0000   1.0000   1.0000   1.0000   1.0000
     1.0000   1.0000   1.0000   1.0000   1.0000   1.0000   1.0000   1.0000
     1.0000   1.0000   1.0000   1.0000   1.0000   1.0000   1.0000   1.0000
     1.0000   1.0000   1.0000   1.0000   1.0000   1.0000   1.0000   1.0000
     1.0000   1.0000   1.0000   1.0000   1.0000   1.0000   1.0000   1.0000
     1.0000   1.0000   1.0000   1.0000   1.0000   1.0000   1.0000   1.0000
     1.0000   1.0000   1.0000   1.0000   1.0000   1.0000   1.0000   1.0000
     1.0000   1.0000   1.0000   1.0000   1.0000   1.0000   1.0000   1.0000
     1.0000   1.0000   1.0000   1.0000   1.0000   1.0000   1.0000   1.0000
     1.0000   1.0000   1.0000   1.0000   1.0000   1.0000   1.0000   1.0000
     1.0000   1.0000   1.0000   1.0000   1.0000   1.0000   1.0000   1.0000
     1.0000   1.0000   1.0000   1.0000   1.0000   1.0000   1.0000   1.0000
     1.0000   1.0000   1.0000   1.0000   1.0000   1.0000   1.0000   1.0000
[...]
     atom   31 type  1   force =    -0.00000000   -0.00000000    0.00000000
     atom   32 type  1   force =    -0.00000000   -0.00000000    0.00000000
     atom   33 type  1   force =     0.00024082    0.00011694    0.00009666
     atom   34 type  1   force =     0.00025339   -0.00000076    0.00005561
     atom   35 type  1   force =    -0.00002875    0.00006206   -0.00008725
     atom   36 type  1   force =    -0.00006665   -0.00009942   -0.00005974
     atom   37 type  1   force =     0.00000000    0.00000000    0.00000000
     atom   38 type  1   force =     0.00000000   -0.00000000    0.00000000
     atom   39 type  1   force =    -0.00023366   -0.00000908   -0.00017655
     atom   40 type  1   force =    -0.00026547   -0.00012303   -0.00011949
     atom   41 type  1   force =    -0.00006216    0.00000911   -0.00007436
     atom   42 type  1   force =    -0.00006671   -0.00005386   -0.00014646
     atom   43 type  1   force =     0.00000000    0.00000000    0.00000000
     atom   44 type  1   force =     0.00000000    0.00000000   -0.00000000
     atom   45 type  1   force =    -0.00023206   -0.00002936   -0.00011232
     atom   46 type  1   force =    -0.00026571   -0.00010467   -0.00017960
     atom   47 type  1   force =    -0.00003571    0.00009352   -0.00012333
     atom   48 type  1   force =    -0.00007009   -0.00011355   -0.00008622
     atom   49 type  3   force =    -0.00002764    0.00000112    0.00000920
     atom   50 type  3   force =    -0.00000598   -0.00001301    0.00001171
     atom   51 type  3   force =    -0.00000845    0.00000644    0.00001515
     atom   52 type  3   force =     0.00000190   -0.00000172    0.00000462
     atom   53 type  3   force =    -0.00001087   -0.00001045    0.00001012
     atom   54 type  3   force =     0.00000976    0.00002305    0.00000818
     atom   55 type  3   force =    -0.00000683   -0.00000755    0.00001105
     atom   56 type  2   force =    -0.00003267   -0.00001247    0.00000078
     atom   57 type  2   force =     0.00004215   -0.00001644    0.00000579
     atom   58 type  4   force =     0.00000671   -0.00000131    0.00000125
     atom   59 type  4   force =     0.00000322   -0.00000480    0.00000106
     atom   60 type  4   force =     0.00000303    0.00000048    0.00000038
     atom   61 type  4   force =    -0.00000252    0.00000111    0.00000152
     atom   62 type  4   force =     0.00000322    0.00000237    0.00000066
     atom   63 type  4   force =     0.00000032    0.00000104    0.00000242

     DFT-D3 dispersion contribution to forces:
     atom    1 type  1   force =    -0.00074122   -0.00021449    0.00275447
     atom    2 type  1   force =    -0.00075395   -0.00018264    0.00281239
     atom    3 type  1   force =    -0.00131633    0.00005567   -0.00138419
     atom    4 type  1   force =    -0.00136299   -0.00067919   -0.00143407
     atom    5 type  1   force =     0.00120316    0.00123788   -0.00073431
     atom    6 type  1   force =     0.00200387   -0.00003413   -0.00026671
     atom    7 type  1   force =    -0.00075372   -0.00016672    0.00276617
     atom    8 type  1   force =    -0.00074899   -0.00020007    0.00279934
     atom    9 type  1   force =    -0.00131774   -0.00037701   -0.00096164
     atom   10 type  1   force =    -0.00128695   -0.00033212   -0.00208026
     atom   11 type  1   force =     0.00181092    0.00096452   -0.00030056
     atom   12 type  1   force =     0.00083187   -0.00034392   -0.00094664
     atom   13 type  1   force =     0.00061017    0.00021141    0.00286251
     atom   14 type  1   force =     0.00068069    0.00010905    0.00291502
     atom   15 type  1   force =    -0.00044331   -0.00036510   -0.00101032
     atom   16 type  1   force =    -0.00041271    0.00024266   -0.00091164
     atom   17 type  1   force =    -0.00075604    0.00034295   -0.00177393
     atom   18 type  1   force =    -0.00077905   -0.00052042   -0.00143722
     atom   19 type  1   force =     0.00060592    0.00016727    0.00295246
     atom   20 type  1   force =     0.00070834    0.00017731    0.00284512
     atom   21 type  1   force =    -0.00153893   -0.00038161   -0.00062727
     atom   22 type  1   force =    -0.00030589   -0.00020923   -0.00075730
     atom   23 type  1   force =    -0.00025644    0.00030989   -0.00270800
     atom   24 type  1   force =    -0.00057768   -0.00064953   -0.00189296
     atom   25 type  1   force =     0.00064409    0.00018225    0.00282918
     atom   26 type  1   force =     0.00062985    0.00012808    0.00281238
     atom   27 type  1   force =     0.00071171    0.00036313    0.00205808
     atom   28 type  1   force =     0.00070367    0.00001638    0.00214408
     atom   29 type  1   force =     0.00079133    0.00042054   -0.00143626
     atom   30 type  1   force =     0.00093957    0.00003353   -0.00043698
     atom   31 type  1   force =     0.00060468    0.00013671    0.00291928
     atom   32 type  1   force =     0.00062399    0.00017388    0.00278565
     atom   33 type  1   force =     0.00070404    0.00018636    0.00162564
     atom   34 type  1   force =     0.00075883    0.00024643    0.00180703
     atom   35 type  1   force =     0.00097362    0.00055074   -0.00047291
     atom   36 type  1   force =     0.00077719   -0.00013536   -0.00113176
     atom   37 type  1   force =     0.00039341    0.00004344    0.00228113
     atom   38 type  1   force =     0.00045063    0.00010540    0.00249160
     atom   39 type  1   force =    -0.00110614   -0.00040208    0.00166314
     atom   40 type  1   force =    -0.00081754   -0.00013960    0.00168564
     atom   41 type  1   force =    -0.00035455   -0.00036467   -0.00424628
     atom   42 type  1   force =    -0.00043114   -0.00007815   -0.00330761
     atom   43 type  1   force =     0.00037398    0.00015686    0.00226756
     atom   44 type  1   force =     0.00045622    0.00008281    0.00244237
     atom   45 type  1   force =    -0.00087703   -0.00025713    0.00169739
     atom   46 type  1   force =    -0.00110577   -0.00022852    0.00153632
     atom   47 type  1   force =    -0.00025932   -0.00009335   -0.00359632
     atom   48 type  1   force =    -0.00057189   -0.00035277   -0.00394315
     atom   49 type  3   force =    -0.00032791    0.00015192   -0.00102407
     atom   50 type  3   force =    -0.00024176    0.00003693   -0.00143453
     atom   51 type  3   force =    -0.00028969   -0.00012096   -0.00099576
     atom   52 type  3   force =     0.00011403    0.00040031   -0.00152951
     atom   53 type  3   force =    -0.00030101   -0.00037190   -0.00165185
     atom   54 type  3   force =     0.00019876    0.00030470   -0.00134784
     atom   55 type  3   force =     0.00009604   -0.00008219   -0.00162479
     atom   56 type  2   force =    -0.00016779   -0.00014545   -0.00180702
     atom   57 type  2   force =     0.00017430   -0.00013207   -0.00149271
     atom   58 type  4   force =     0.00027884    0.00003071   -0.00081202
     atom   59 type  4   force =     0.00049632    0.00003528   -0.00148388
     atom   60 type  4   force =     0.00014041    0.00012486   -0.00075300
     atom   61 type  4   force =    -0.00034988   -0.00009205   -0.00129195
     atom   62 type  4   force =     0.00043824    0.00006179   -0.00133427
     atom   63 type  4   force =    -0.00037534   -0.00013922   -0.00137246

     Total force =     0.007219     Total SCF correction =     0.001183

     DFT-D3 dispersion Force =     0.017564
     SCF correction compared to forces is large: reduce conv_thr to get better values


     Computing stress (Cartesian axis) and pressure


     negative rho (up, down):  5.416E-03 0.000E+00
          total   stress  (Ry/bohr**3)                   (kbar)     P=      -11.10
  -0.00012754  -0.00000313   0.00000994          -18.76       -0.46        1.46
  -0.00000313  -0.00009426   0.00000210           -0.46      -13.87        0.31
   0.00000994   0.00000210  -0.00000465            1.46        0.31       -0.68

     kinetic stress (kbar)  11676.38     12.75      6.64
                               12.75  11670.56     -8.03
                                6.64     -8.03  11782.66

     local   stress (kbar)-872528.16   3735.84   1089.77
                             3735.84-883851.67   -120.66
                             1089.77   -120.66 880666.91

     nonloc. stress (kbar)  -1080.55     -5.12     -2.98
                               -5.12  -1068.05      0.27
                               -2.98      0.27  -1113.15

     hartree stress (kbar) 460975.79  -1663.05   -441.25
                            -1663.05 466110.50     44.42
                             -441.25     44.42-408671.46

     exc-cor stress (kbar)  -5696.86     -1.02     -0.70
                               -1.02  -5695.39      0.38
                               -0.70      0.38  -5705.84

     corecor stress (kbar)    -75.57      0.14      0.15
                                0.14    -75.46     -0.14
                                0.15     -0.14    -74.42

     ewald   stress (kbar) 406718.05  -2080.18   -650.06
                            -2080.18 412904.04     84.08
                             -650.06     84.08-476880.70

     hubbard stress (kbar)      0.00      0.00      0.00
                                0.00      0.00      0.00
                                0.00      0.00      0.00

     DFT-D   stress (kbar)     -7.86      0.18     -0.11
                                0.18     -8.41     -0.02
                               -0.11     -0.02     -4.68

     XDM     stress (kbar)      0.00      0.00      0.00
                                0.00      0.00      0.00
                                0.00      0.00      0.00

     dft-nl  stress (kbar)      0.00      0.00      0.00
                                0.00      0.00      0.00
                                0.00      0.00      0.00

     TS-vdW  stress (kbar)      0.00      0.00      0.00
                                0.00      0.00      0.00
                                0.00      0.00      0.00

     MDB     stress (kbar)      0.00      0.00      0.00
                                0.00      0.00      0.00
                                0.00      0.00      0.00

     3D-RISM stress (kbar)      0.00      0.00      0.00
                                0.00      0.00      0.00
                                0.00      0.00      0.00

     Energy error            =      8.2E-05 Ry
     Gradient error          =      2.6E-03 Ry/Bohr

     number of scf cycles    =  14
     number of bfgs steps    =  12

     energy             old  =  -22331.0802437500 Ry
     energy             new  =  -22331.0803253714 Ry

     CASE: energy            _new < energy            _old

     new trust radius        =       0.0088725353 bohr
     new conv_thr            =       0.0000000517 Ry


ATOMIC_POSITIONS (angstrom)
Zn              -1.0735560000        1.0841420000        1.1977640000    0   0   0
Zn              -2.3094850000        6.1646920000        1.1977640000    0   0   0
Zn              -4.2952888133        0.3016122053        4.2863739511
Zn              -5.5456064319        5.3780741200        4.3003540979
Zn              -8.2492878404       -0.6908828630        5.8301152066
Zn              -9.5705653248        4.3845866937        5.7499676031
Zn              -1.6915200000        3.6244170000        1.1977640000    0   0   0
Zn              -2.9274500000        8.7049670000        1.1977640000    0   0   0
Zn              -4.9212812837        2.8401589400        4.2764100758
Zn              -6.1520291926        7.9182484274        4.2946762802
Zn              -8.9410780871        1.8305385807        5.7478416654
Zn             -10.0943086797        6.9408919016        5.8939850376
Zn               4.4565960000        1.0841420000        1.1977640000    0   0   0
Zn               3.2206660000        6.1646920000        1.1977640000    0   0   0
Zn               0.3805600970        0.0992927607        3.4716421793
Zn              -0.8448153214        5.1781682693        3.4679042451
Zn              -2.1808580889       -0.5345844485        5.6551138586
Zn              -3.4264710653        4.5742683521        5.6218156375
Zn               3.8386310000        3.6244170000        1.1977640000    0   0   0
Zn               2.6027020000        8.7049670000        1.1977640000    0   0   0
Zn              -0.1953533481        2.6469957909        3.4554140856
Zn              -1.4702310883        7.7122353770        3.4686879696
Zn              -2.9268383621        1.9931285869        5.8412421488
Zn              -4.0236032190        7.1009400438        5.6666432233
Zn               1.6915200000        0.4114910000        0.8555450000    0   0   0
Zn               0.4555910000        5.4920410000        0.8555450000    0   0   0
Zn              -2.2550254277       -0.5424942325        2.8687119155
Zn              -3.5008182979        4.5297083171        2.8561801811
Zn              -6.1159366673       -1.4942351016        4.4766781157
Zn              -7.3668431942        3.5796449546        4.4701353762
Zn               1.0735560000        2.9517660000        0.8555450000    0   0   0
Zn              -0.1623740000        8.0323160000        0.8555450000    0   0   0
Zn              -2.8266160871        2.0078614392        2.9449977071
Zn              -4.1083598836        7.0743588616        2.8713598341
Zn              -6.7409543964        1.0478877189        4.4539263615
Zn              -7.9820321312        6.1249264882        4.4837434615
Zn               7.2216720000        0.4114910000        0.8555450000    0   0   0
Zn               5.9857420000        5.4920410000        0.8555450000    0   0   0
Zn               2.9744017117       -0.6297175902        2.9327959622
Zn               1.7769253398        4.4731319953        2.8919055793
Zn               0.3278564230       -1.2489771443        5.8092723208
Zn              -0.9974337226        3.7904738936        5.7852085038
Zn               6.6037070000        2.9517660000        0.8555450000    0   0   0
Zn               5.3677780000        8.0323160000        0.8555450000    0   0   0
Zn               2.3841700839        1.9207772422        2.8931971636
Zn               1.1263626402        7.0020040665        2.9392080531
Zn              -0.3816196189        1.2899478714        5.7849734510
Zn              -1.5221798695        6.3609978693        5.8044353036
C               -8.6765368433        4.8381372205        8.9565956310
C               -7.5237166563        4.0259304706        8.7467145441
C               -7.6434057817        2.6311238188        8.5843825404
C               -6.2509762639        4.6207999296        8.6630664021
C               -6.5133019944        1.8549316795        8.3433043585
C               -5.1263167754        3.8390735205        8.4398279572
C               -5.2425751418        2.4474548278        8.2840280083
N               -9.6244435875        5.5064568296        9.1005245772
N               -4.0960122191        1.6788705181        8.0040037602
H               -3.2767127530        1.9336948629        8.5533168931
H               -4.2534898561        0.6735061327        8.0322685470
H               -6.1543340602        5.7017775049        8.7630321571
H               -8.6266122396        2.1626900745        8.6472009882
H               -4.1431509722        4.3089613698        8.3764744977
H               -6.6244940769        0.7783754352        8.2049238439



     Writing config-only to output data dir ./tmp/04_Zn101_ABN_lean.save/ :
     XML data file
     NEW-OLD atomic charge density approx. for the potential

     negative rho (up, down):  5.415E-03 0.000E+00

     total cpu time spent up to now is    20162.5 secs

     Self-consistent Calculation

     iteration #  1     ecut=    40.00 Ry     beta= 0.40
     Davidson diagonalization with overlap

---- Real-time Memory Report at c_bands before calling an iterative solver
           694 MiB given to the printing process from OS
             0 MiB allocation reported by mallinfo(arena+hblkhd)
        203996 MiB available memory on the node where the printing process lives
------------------
     ethr =  1.00E-06,  avg # of iterations =  4.0

     Threshold (ethr) on eigenvalues was too large:
     Diagonalizing with lowered threshold

     Davidson diagonalization with overlap

---- Real-time Memory Report at c_bands before calling an iterative solver
           694 MiB given to the printing process from OS
             0 MiB allocation reported by mallinfo(arena+hblkhd)
        203993 MiB available memory on the node where the printing process lives
------------------
     ethr =  5.49E-09,  avg # of iterations =  4.0

     negative rho (up, down):  5.415E-03 0.000E+00

     total cpu time spent up to now is    20487.7 secs

     total energy              =  -22331.08037731 Ry
     estimated scf accuracy    <       0.00006146 Ry

     iteration #  2     ecut=    40.00 Ry     beta= 0.40
     Davidson diagonalization with overlap

---- Real-time Memory Report at c_bands before calling an iterative solver
           694 MiB given to the printing process from OS
             0 MiB allocation reported by mallinfo(arena+hblkhd)
        203994 MiB available memory on the node where the printing process lives
------------------
     ethr =  6.12E-09,  avg # of iterations =  3.0

     negative rho (up, down):  5.415E-03 0.000E+00

     total cpu time spent up to now is    20607.5 secs

     total energy              =  -22331.08037718 Ry
     estimated scf accuracy    <       0.00002344 Ry

     iteration #  3     ecut=    40.00 Ry     beta= 0.40
     Davidson diagonalization with overlap

---- Real-time Memory Report at c_bands before calling an iterative solver
           694 MiB given to the printing process from OS
             0 MiB allocation reported by mallinfo(arena+hblkhd)
        203987 MiB available memory on the node where the printing process lives
------------------
     ethr =  2.33E-09,  avg # of iterations =  2.0

     negative rho (up, down):  5.415E-03 0.000E+00

     total cpu time spent up to now is    20724.7 secs

     total energy              =  -22331.08037227 Ry
     estimated scf accuracy    <       0.00009663 Ry

     iteration #  4     ecut=    40.00 Ry     beta= 0.40
     Davidson diagonalization with overlap

---- Real-time Memory Report at c_bands before calling an iterative solver
           694 MiB given to the printing process from OS
             0 MiB allocation reported by mallinfo(arena+hblkhd)
        203985 MiB available memory on the node where the printing process lives
------------------
     ethr =  2.33E-09,  avg # of iterations =  2.0

     negative rho (up, down):  5.415E-03 0.000E+00

     total cpu time spent up to now is    20841.5 secs

     total energy              =  -22331.08037866 Ry
     estimated scf accuracy    <       0.00004218 Ry

     iteration #  5     ecut=    40.00 Ry     beta= 0.40
     Davidson diagonalization with overlap

---- Real-time Memory Report at c_bands before calling an iterative solver
           694 MiB given to the printing process from OS
             0 MiB allocation reported by mallinfo(arena+hblkhd)
        203983 MiB available memory on the node where the printing process lives
------------------
     ethr =  2.33E-09,  avg # of iterations =  2.0

     negative rho (up, down):  5.415E-03 0.000E+00

     total cpu time spent up to now is    20957.1 secs

     total energy              =  -22331.08038179 Ry
     estimated scf accuracy    <       0.00000531 Ry

     iteration #  6     ecut=    40.00 Ry     beta= 0.40
     Davidson diagonalization with overlap

---- Real-time Memory Report at c_bands before calling an iterative solver
           694 MiB given to the printing process from OS
             0 MiB allocation reported by mallinfo(arena+hblkhd)
        203980 MiB available memory on the node where the printing process lives
------------------
