--------------------------------------------------------------------------
By default, for Open MPI 4.0 and later, infiniband ports on a device
are not used by default.  The intent is to use UCX for these devices.
You can override this policy by setting the btl_openib_allow_ib MCA parameter
to true.

  Local host:              psid03
  Local adapter:           mlx5_0
  Local port:              1

--------------------------------------------------------------------------
--------------------------------------------------------------------------
WARNING: There was an error initializing an OpenFabrics device.

  Local host:   psid03
  Local device: mlx5_0
--------------------------------------------------------------------------

     Program PWSCF v.7.3.1 starts on 22Mar2025 at  2:12:45 

     This program is part of the open-source Quantum ESPRESSO suite
     for quantum simulation of materials; please cite
         "P. Giannozzi et al., J. Phys.:Condens. Matter 21 395502 (2009);
         "P. Giannozzi et al., J. Phys.:Condens. Matter 29 465901 (2017);
         "P. Giannozzi et al., J. Chem. Phys. 152 154105 (2020);
          URL http://www.quantum-espresso.org", 
     in publications or presentations arising from this work. More details at
     http://www.quantum-espresso.org/quote

     Parallel version (MPI), running on    32 processors

     MPI processes distributed on     1 nodes
     108265 MiB available memory on the printing compute node when the environment starts

     Waiting for input...
     Reading input from standard input
Warning: card &CELL ignored
Warning: card   CELL_DOFREE = 'ALL' ignored
Warning: card / ignored

     Current dimensions of program PWSCF are:
     Max number of different atomic species (ntypx) = 10
     Max number of k-points (npk) =  40000
     Max angular momentum in pseudopotentials (lmaxx) =  4
     file C.pbe-n-kjpaw_psl.1.0.0.UPF: wavefunction(s)  2S 2P renormalized

     R & G space division:  proc/nbgrp/npool/nimage =      32
     Subspace diagonalization in iterative solution of the eigenvalue problem:
     one sub-group per band group will be used
     custom distributed-memory algorithm (size of sub-group:  5*  5 procs)


     Parallelization info
     --------------------
     sticks:   dense  smooth     PW     G-vecs:    dense   smooth      PW
     Min         168     168     44                22650    22650    3088
     Max         169     169     45                22663    22663    3101
     Sum        5389    5389   1417               724931   724931   99009

     Using Slab Decomposition



     bravais-lattice index     =            0
     lattice parameter (alat)  =      19.7617  a.u.
     unit-cell volume          =   15176.5939 (a.u.)^3
     number of atoms/cell      =           79
     number of atomic types    =            4
     number of electrons       =      1324.00
     number of Kohn-Sham states=          794
     kinetic-energy cutoff     =      50.0000  Ry
     charge density cutoff     =     200.0000  Ry
     scf convergence threshold =      7.3E-07
     mixing beta               =       0.7000
     number of iterations used =            8  plain     mixing
     Exchange-correlation= PBE
                           (   1   4   3   4   0   0   0)

     celldm(1)=  19.761696  celldm(2)=   0.000000  celldm(3)=   0.000000
     celldm(4)=   0.000000  celldm(5)=   0.000000  celldm(6)=   0.000000

     crystal axes: (cart. coord. in units of alat)
               a(1) = (   1.000000   0.000000   0.000000 )  
               a(2) = (  -0.500000   0.866025   0.000000 )  
               a(3) = (   0.000000   0.000000   2.270759 )  

     reciprocal axes: (cart. coord. in units 2 pi/alat)
               b(1) = (  1.000000  0.577350 -0.000000 )  
               b(2) = (  0.000000  1.154701  0.000000 )  
               b(3) = (  0.000000 -0.000000  0.440381 )  


     PseudoPot. # 1 for Zn read from file:
     /home/ys/qepseudo/SSSP_1.3.0_PBE_efficiency/Zn_pbe_v1.uspp.F.UPF
     MD5 check sum: df62231357ef9e81f77b2b3087fa5675
     Pseudo is Ultrasoft, Zval = 20.0
     Generated by new atomic code, or converted to UPF format
     Using radial grid of  943 points,  6 beta functions with: 
                l(1) =   0
                l(2) =   0
                l(3) =   1
                l(4) =   1
                l(5) =   2
                l(6) =   2
     Q(r) pseudized with  8 coefficients,  rinner =    1.100   1.100   1.100
                                                       1.100   1.100

     PseudoPot. # 2 for C  read from file:
     /home/ys/qepseudo/SSSP_1.3.0_PBE_efficiency/C.pbe-n-kjpaw_psl.1.0.0.UPF
     MD5 check sum: 5d2aebdfa2cae82b50a7e79e9516da0f
     Pseudo is Projector augmented-wave + core cor, Zval =  4.0
     Generated using "atomic" code by A. Dal Corso  v.5.1
     Shape of augmentation charge: PSQ
     Using radial grid of 1073 points,  4 beta functions with: 
                l(1) =   0
                l(2) =   0
                l(3) =   1
                l(4) =   1
     Q(r) pseudized with 0 coefficients 


     PseudoPot. # 3 for N  read from file:
     /home/ys/qepseudo/SSSP_1.3.0_PBE_efficiency/N.pbe-n-radius_5.UPF
     MD5 check sum: 16739722b17309cd8fe442a2ace49922
     Pseudo is Ultrasoft + core correction, Zval =  5.0
     Generated using "atomic" code by A. Dal Corso  v.5.1
     Using radial grid of 1085 points,  4 beta functions with: 
                l(1) =   0
                l(2) =   0
                l(3) =   1
                l(4) =   1
     Q(r) pseudized with 0 coefficients 


     PseudoPot. # 4 for H  read from file:
     /home/ys/qepseudo/SSSP_1.3.0_PBE_efficiency/H.pbe-rrkjus_psl.1.0.0.UPF
     MD5 check sum: f52b6d4d1c606e5624b1dc7b2218f220
     Pseudo is Ultrasoft, Zval =  1.0
     Generated using "atomic" code by A. Dal Corso  v.5.1
     Using radial grid of  929 points,  2 beta functions with: 
                l(1) =   0
                l(2) =   0
     Q(r) pseudized with 0 coefficients 


     atomic species   valence    mass     pseudopotential
     Zn               20.00    65.38000     Zn( 1.00)
     C                 4.00    12.01070     C ( 1.00)
     N                 5.00    14.00670     N ( 1.00)
     H                 1.00     1.00800     H ( 1.00)

     No symmetry found


                                    s                        frac. trans.

      isym =  1     identity                                     

 cryst.   s( 1) = (     1          0          0      )
                  (     0          1          0      )
                  (     0          0          1      )

 cart.    s( 1) = (  1.0000000  0.0000000  0.0000000 )
                  (  0.0000000  1.0000000  0.0000000 )
                  (  0.0000000  0.0000000  1.0000000 )


   Cartesian axes

     site n.     atom                  positions (alat units)
         1        Zn     tau(   1) = (  -0.0000000   0.1443376   0.1164999  )
         2        Zn     tau(   2) = (   0.5000000   0.1443376   0.1164999  )
         3        Zn     tau(   3) = (   0.0001063   0.1443772   0.5902127  )
         4        Zn     tau(   4) = (   0.4998958   0.1443643   0.5917156  )
         5        Zn     tau(   5) = (  -0.1250000   0.3608439   0.1164999  )
         6        Zn     tau(   6) = (   0.3750000   0.3608439   0.1164999  )
         7        Zn     tau(   7) = (  -0.1249761   0.3609302   0.5908726  )
         8        Zn     tau(   8) = (   0.3749642   0.3608477   0.5913644  )
         9        Zn     tau(   9) = (  -0.2500000   0.5773503   0.1164999  )
        10        Zn     tau(  10) = (   0.2500000   0.5773503   0.1164999  )
        11        Zn     tau(  11) = (  -0.2499911   0.5773738   0.5915504  )
        12        Zn     tau(  12) = (   0.2499824   0.5772583   0.5907382  )
        13        Zn     tau(  13) = (  -0.3750000   0.7938566   0.1164999  )
        14        Zn     tau(  14) = (   0.1250000   0.7938566   0.1164999  )
        15        Zn     tau(  15) = (  -0.3749161   0.7938269   0.5909604  )
        16        Zn     tau(  16) = (   0.1249053   0.7937898   0.5911170  )
        17        Zn     tau(  17) = (   0.2500000   0.1443376   0.1164999  )
        18        Zn     tau(  18) = (   0.7500000   0.1443376   0.1164999  )
        19        Zn     tau(  19) = (   0.2499566   0.1443139   0.5910485  )
        20        Zn     tau(  20) = (   0.7500401   0.1444360   0.5909256  )
        21        Zn     tau(  21) = (   0.1250000   0.3608439   0.1164999  )
        22        Zn     tau(  22) = (   0.6250000   0.3608439   0.1164999  )
        23        Zn     tau(  23) = (   0.1249684   0.3608327   0.5904686  )
        24        Zn     tau(  24) = (   0.6250220   0.3609386   0.5917101  )
        25        Zn     tau(  25) = (  -0.0000000   0.5773503   0.1164999  )
        26        Zn     tau(  26) = (   0.5000000   0.5773503   0.1164999  )
        27        Zn     tau(  27) = (  -0.0000983   0.5773031   0.5910657  )
        28        Zn     tau(  28) = (   0.5000885   0.5773473   0.5912976  )
        29        Zn     tau(  29) = (  -0.1250000   0.7938566   0.1164999  )
        30        Zn     tau(  30) = (   0.3750000   0.7938566   0.1164999  )
        31        Zn     tau(  31) = (  -0.1251014   0.7937984   0.5915674  )
        32        Zn     tau(  32) = (   0.3751324   0.7938157   0.5904624  )
        33        Zn     tau(  33) = (   0.1250000   0.0721688   0.3494996  )
        34        Zn     tau(  34) = (   0.6250000   0.0721688   0.3494996  )
        35        Zn     tau(  35) = (   0.1248704   0.0720543   0.8322872  )
        36        Zn     tau(  36) = (   0.6249662   0.0722631   0.8328120  )
        37        Zn     tau(  37) = (   0.0000000   0.2886751   0.3494996  )
        38        Zn     tau(  38) = (   0.5000000   0.2886751   0.3494996  )
        39        Zn     tau(  39) = (  -0.0001124   0.2887197   0.8323736  )
        40        Zn     tau(  40) = (   0.5000283   0.2886949   0.8337690  )
        41        Zn     tau(  41) = (  -0.1250000   0.5051815   0.3494996  )
        42        Zn     tau(  42) = (   0.3750000   0.5051815   0.3494996  )
        43        Zn     tau(  43) = (  -0.1249832   0.5052069   0.8329413  )
        44        Zn     tau(  44) = (   0.3751430   0.5054781   0.8266636  )
        45        Zn     tau(  45) = (  -0.2500000   0.7216878   0.3494996  )
        46        Zn     tau(  46) = (   0.2500000   0.7216878   0.3494996  )
        47        Zn     tau(  47) = (  -0.2499807   0.7217075   0.8330514  )
        48        Zn     tau(  48) = (   0.2498824   0.7218414   0.8325409  )
        49        Zn     tau(  49) = (   0.3750000   0.0721688   0.3494996  )
        50        Zn     tau(  50) = (   0.8750000   0.0721688   0.3494996  )
        51        Zn     tau(  51) = (   0.3750270   0.0721156   0.8331918  )
        52        Zn     tau(  52) = (   0.8749280   0.0722305   0.8320964  )
        53        Zn     tau(  53) = (   0.2500000   0.2886751   0.3494996  )
        54        Zn     tau(  54) = (   0.7500000   0.2886751   0.3494996  )
        55        Zn     tau(  55) = (   0.2498616   0.2884031   0.8275225  )
        56        Zn     tau(  56) = (   0.7499870   0.2887253   0.8329144  )
        57        Zn     tau(  57) = (   0.1250000   0.5051815   0.3494996  )
        58        Zn     tau(  58) = (   0.6250000   0.5051815   0.3494996  )
        59        Zn     tau(  59) = (   0.1248788   0.5052943   0.8329085  )
        60        Zn     tau(  60) = (   0.6250977   0.5052298   0.8331912  )
        61        Zn     tau(  61) = (   0.0000000   0.7216878   0.3494996  )
        62        Zn     tau(  62) = (   0.5000000   0.7216878   0.3494996  )
        63        Zn     tau(  63) = (   0.0000181   0.7217422   0.8329106  )
        64        Zn     tau(  64) = (   0.5000134   0.7218815   0.8324438  )
        65        C      tau(  65) = (   0.3338913   0.4086714   1.7082713  )
        66        C      tau(  66) = (   0.3299463   0.4087103   1.5718571  )
        67        C      tau(  67) = (   0.2638685   0.3122948   1.5044679  )
        68        C      tau(  68) = (   0.3904633   0.5064655   1.5013839  )
        69        C      tau(  69) = (   0.3854315   0.5078884   1.3690900  )
        70        C      tau(  70) = (   0.2588418   0.3133157   1.3718345  )
        71        C      tau(  71) = (   0.3191216   0.4115028   1.3010016  )
        72        N      tau(  72) = (   0.3370654   0.4094098   1.8205488  )
        73        N      tau(  73) = (   0.3137105   0.4135168   1.1704857  )
        74        H      tau(  74) = (   0.3568680   0.4838861   1.1192130  )
        75        H      tau(  75) = (   0.2662672   0.3451063   1.1203705  )
        76        H      tau(  76) = (   0.2165898   0.2357330   1.5578041  )
        77        H      tau(  77) = (   0.4416929   0.5820615   1.5523766  )
        78        H      tau(  78) = (   0.4329958   0.5847339   1.3161421  )
        79        H      tau(  79) = (   0.2070538   0.2375425   1.3214015  )

   Crystallographic axes

     site n.     atom                  positions (cryst. coord.)
         1        Zn     tau(   1) = (  0.0833333  0.1666667  0.0513044  )
         2        Zn     tau(   2) = (  0.5833333  0.1666667  0.0513044  )
         3        Zn     tau(   3) = (  0.0834625  0.1667124  0.2599187  )
         4        Zn     tau(   4) = (  0.5832446  0.1666976  0.2605806  )
         5        Zn     tau(   5) = (  0.0833333  0.4166667  0.0513044  )
         6        Zn     tau(   6) = (  0.5833333  0.4166667  0.0513044  )
         7        Zn     tau(   7) = (  0.0834070  0.4167663  0.2602093  )
         8        Zn     tau(   8) = (  0.5832997  0.4166711  0.2604259  )
         9        Zn     tau(   9) = (  0.0833333  0.6666667  0.0513044  )
        10        Zn     tau(  10) = (  0.5833333  0.6666667  0.0513044  )
        11        Zn     tau(  11) = (  0.0833558  0.6666938  0.2605078  )
        12        Zn     tau(  12) = (  0.5832626  0.6665605  0.2601501  )
        13        Zn     tau(  13) = (  0.0833333  0.9166667  0.0513044  )
        14        Zn     tau(  14) = (  0.5833333  0.9166667  0.0513044  )
        15        Zn     tau(  15) = (  0.0834001  0.9166324  0.2602480  )
        16        Zn     tau(  16) = (  0.5832000  0.9165895  0.2603170  )
        17        Zn     tau(  17) = (  0.3333333  0.1666667  0.0513044  )
        18        Zn     tau(  18) = (  0.8333333  0.1666667  0.0513044  )
        19        Zn     tau(  19) = (  0.3332763  0.1666393  0.2602868  )
        20        Zn     tau(  20) = (  0.8334303  0.1667804  0.2602327  )
        21        Zn     tau(  21) = (  0.3333333  0.4166667  0.0513044  )
        22        Zn     tau(  22) = (  0.8333333  0.4166667  0.0513044  )
        23        Zn     tau(  23) = (  0.3332952  0.4166537  0.2600314  )
        24        Zn     tau(  24) = (  0.8334099  0.4167759  0.2605781  )
        25        Zn     tau(  25) = (  0.3333333  0.6666667  0.0513044  )
        26        Zn     tau(  26) = (  0.8333333  0.6666667  0.0513044  )
        27        Zn     tau(  27) = (  0.3332078  0.6666122  0.2602944  )
        28        Zn     tau(  28) = (  0.8334201  0.6666632  0.2603965  )
        29        Zn     tau(  29) = (  0.3333333  0.9166667  0.0513044  )
        30        Zn     tau(  30) = (  0.8333333  0.9166667  0.0513044  )
        31        Zn     tau(  31) = (  0.3331983  0.9165994  0.2605153  )
        32        Zn     tau(  32) = (  0.8334421  0.9166194  0.2600287  )
        33        Zn     tau(  33) = (  0.1666667  0.0833333  0.1539131  )
        34        Zn     tau(  34) = (  0.6666667  0.0833333  0.1539131  )
        35        Zn     tau(  35) = (  0.1664710  0.0832011  0.3665238  )
        36        Zn     tau(  36) = (  0.6666873  0.0834422  0.3667549  )
        37        Zn     tau(  37) = (  0.1666667  0.3333333  0.1539131  )
        38        Zn     tau(  38) = (  0.6666667  0.3333333  0.1539131  )
        39        Zn     tau(  39) = (  0.1665799  0.3333847  0.3665619  )
        40        Zn     tau(  40) = (  0.6667064  0.3333561  0.3671764  )
        41        Zn     tau(  41) = (  0.1666667  0.5833333  0.1539131  )
        42        Zn     tau(  42) = (  0.6666667  0.5833333  0.1539131  )
        43        Zn     tau(  43) = (  0.1666982  0.5833627  0.3668119  )
        44        Zn     tau(  44) = (  0.6669809  0.5836758  0.3640473  )
        45        Zn     tau(  45) = (  0.1666667  0.8333333  0.1539131  )
        46        Zn     tau(  46) = (  0.6666667  0.8333333  0.1539131  )
        47        Zn     tau(  47) = (  0.1666973  0.8333560  0.3668604  )
        48        Zn     tau(  48) = (  0.6666377  0.8335107  0.3666355  )
        49        Zn     tau(  49) = (  0.4166667  0.0833333  0.1539131  )
        50        Zn     tau(  50) = (  0.9166667  0.0833333  0.1539131  )
        51        Zn     tau(  51) = (  0.4166629  0.0832719  0.3669222  )
        52        Zn     tau(  52) = (  0.9166302  0.0834045  0.3664398  )
        53        Zn     tau(  53) = (  0.4166667  0.3333333  0.1539131  )
        54        Zn     tau(  54) = (  0.9166667  0.3333333  0.1539131  )
        55        Zn     tau(  55) = (  0.4163712  0.3330192  0.3644255  )
        56        Zn     tau(  56) = (  0.9166827  0.3333913  0.3668001  )
        57        Zn     tau(  57) = (  0.4166667  0.5833333  0.1539131  )
        58        Zn     tau(  58) = (  0.9166667  0.5833333  0.1539131  )
        59        Zn     tau(  59) = (  0.4166106  0.5834636  0.3667974  )
        60        Zn     tau(  60) = (  0.9167923  0.5833891  0.3669219  )
        61        Zn     tau(  61) = (  0.4166667  0.8333333  0.1539131  )
        62        Zn     tau(  62) = (  0.9166667  0.8333333  0.1539131  )
        63        Zn     tau(  63) = (  0.4167161  0.8333961  0.3667984  )
        64        Zn     tau(  64) = (  0.9167919  0.8335569  0.3665928  )
        65        C      tau(  65) = (  0.5698379  0.4718931  0.7522909  )
        66        C      tau(  66) = (  0.5659153  0.4719381  0.6922167  )
        67        C      tau(  67) = (  0.4441719  0.3606069  0.6625397  )
        68        C      tau(  68) = (  0.6828713  0.5848160  0.6611816  )
        69        C      tau(  69) = (  0.6786610  0.5864590  0.6029218  )
        70        C      tau(  70) = (  0.4397347  0.3617858  0.6041304  )
        71        C      tau(  71) = (  0.5567029  0.4751625  0.5729369  )
        72        N      tau(  72) = (  0.5734382  0.4727457  0.8017359  )
        73        N      tau(  73) = (  0.5524546  0.4774881  0.5154602  )
        74        H      tau(  74) = (  0.6362397  0.5587436  0.4928806  )
        75        H      tau(  75) = (  0.4655144  0.3984944  0.4933904  )
        76        H      tau(  76) = (  0.3526903  0.2722010  0.6860280  )
        77        H      tau(  77) = (  0.7777462  0.6721067  0.6836378  )
        78        H      tau(  78) = (  0.7705920  0.6751926  0.5796046  )
        79        H      tau(  79) = (  0.3441990  0.2742905  0.5819207  )

     number of k points=     5  Marzari-Vanderbilt smearing, width (Ry)=  0.0200
                       cart. coord. in units 2pi/alat
        k(    1) = (   0.0000000   0.0000000   0.0000000), wk =   0.2222222
        k(    2) = (   0.0000000   0.3849002   0.0000000), wk =   0.4444444
        k(    3) = (   0.3333333   0.1924501   0.0000000), wk =   0.4444444
        k(    4) = (   0.3333333   0.5773503   0.0000000), wk =   0.4444444
        k(    5) = (   0.3333333  -0.1924501   0.0000000), wk =   0.4444444

                       cryst. coord.
        k(    1) = (   0.0000000   0.0000000   0.0000000), wk =   0.2222222
        k(    2) = (   0.0000000   0.3333333   0.0000000), wk =   0.4444444
        k(    3) = (   0.3333333   0.0000000   0.0000000), wk =   0.4444444
        k(    4) = (   0.3333333   0.3333333   0.0000000), wk =   0.4444444
        k(    5) = (   0.3333333  -0.3333333   0.0000000), wk =   0.4444444

     Dense  grid:   724931 G-vectors     FFT dimensions: (  90,  90, 216)

     Dynamical RAM for                 wfc:      34.30 MB

     Dynamical RAM for     wfc (w. buffer):     205.79 MB

     Dynamical RAM for           str. fact:       1.38 MB

     Dynamical RAM for           local pot:       0.00 MB

     Dynamical RAM for          nlocal pot:      53.39 MB

     Dynamical RAM for                qrad:       4.54 MB

     Dynamical RAM for          rho,v,vnew:       2.33 MB

     Dynamical RAM for               rhoin:       0.78 MB

     Dynamical RAM for            rho*nmix:       5.53 MB

     Dynamical RAM for           G-vectors:       1.47 MB

     Dynamical RAM for          h,s,v(r/c):       4.60 MB

     Dynamical RAM for          <psi|beta>:      14.97 MB

     Dynamical RAM for                 psi:      68.60 MB

     Dynamical RAM for                hpsi:      68.60 MB

     Dynamical RAM for                spsi:      68.60 MB

     Dynamical RAM for      wfcinit/wfcrot:      93.00 MB

     Dynamical RAM for           addusdens:      86.43 MB

     Dynamical RAM for          addusforce:     130.41 MB

     Dynamical RAM for         addusstress:      69.49 MB

     Estimated static dynamical RAM per process >     273.59 MB

     Estimated max dynamical RAM per process >     504.49 MB

     Estimated total dynamical RAM >      15.77 GB

     Check: negative core charge=   -0.000007

     Initial potential from superposition of free atoms

     starting charge    1323.9906, renormalised to    1324.0000

     negative rho (up, down):  3.066E-03 0.000E+00
     Starting wfcs are  874 randomized atomic wfcs
[psid03:225127] 31 more processes have sent help message help-mpi-btl-openib.txt / ib port not selected
[psid03:225127] Set MCA parameter "orte_base_help_aggregate" to 0 to see all help / error messages
[psid03:225127] 31 more processes have sent help message help-mpi-btl-openib.txt / error in device init
     Checking if some PAW data can be deallocated... 
       PAW data deallocated on   28 nodes for type:  2

     total cpu time spent up to now is      158.3 secs

     Self-consistent Calculation

     iteration #  1     ecut=    50.00 Ry     beta= 0.70
     Davidson diagonalization with overlap

---- Real-time Memory Report at c_bands before calling an iterative solver
           376 MiB given to the printing process from OS
             0 MiB allocation reported by mallinfo(arena+hblkhd)
         98051 MiB available memory on the node where the printing process lives
------------------
     ethr =  1.00E-02,  avg # of iterations =  7.6

     Threshold (ethr) on eigenvalues was too large:
     Diagonalizing with lowered threshold

     Davidson diagonalization with overlap

---- Real-time Memory Report at c_bands before calling an iterative solver
           541 MiB given to the printing process from OS
             0 MiB allocation reported by mallinfo(arena+hblkhd)
         98017 MiB available memory on the node where the printing process lives
------------------
     ethr =  8.74E-04,  avg # of iterations =  2.4

     negative rho (up, down):  3.766E-03 0.000E+00

     total cpu time spent up to now is     1277.3 secs

     total energy              =  -29707.66348611 Ry
     estimated scf accuracy    <      11.65247822 Ry

     iteration #  2     ecut=    50.00 Ry     beta= 0.70
     Davidson diagonalization with overlap

---- Real-time Memory Report at c_bands before calling an iterative solver
           543 MiB given to the printing process from OS
             0 MiB allocation reported by mallinfo(arena+hblkhd)
         98009 MiB available memory on the node where the printing process lives
------------------
     ethr =  8.80E-04,  avg # of iterations = 11.0

     negative rho (up, down):  3.818E-03 0.000E+00

     total cpu time spent up to now is     2141.9 secs

     total energy              =  -29671.47700422 Ry
     estimated scf accuracy    <     796.66635380 Ry

     iteration #  3     ecut=    50.00 Ry     beta= 0.70
     Davidson diagonalization with overlap

---- Real-time Memory Report at c_bands before calling an iterative solver
           548 MiB given to the printing process from OS
             0 MiB allocation reported by mallinfo(arena+hblkhd)
         97840 MiB available memory on the node where the printing process lives
------------------
     ethr =  8.80E-04,  avg # of iterations = 10.0

     negative rho (up, down):  3.002E-03 0.000E+00

     total cpu time spent up to now is     3462.6 secs

     total energy              =  -29707.90024748 Ry
     estimated scf accuracy    <      86.85099983 Ry

     iteration #  4     ecut=    50.00 Ry     beta= 0.70
     Davidson diagonalization with overlap

---- Real-time Memory Report at c_bands before calling an iterative solver
           549 MiB given to the printing process from OS
             0 MiB allocation reported by mallinfo(arena+hblkhd)
         97802 MiB available memory on the node where the printing process lives
------------------
     ethr =  8.80E-04,  avg # of iterations =  8.4

     negative rho (up, down):  2.332E-03 0.000E+00

     total cpu time spent up to now is     4071.7 secs

     total energy              =  -29709.98330119 Ry
     estimated scf accuracy    <     116.97172157 Ry

     iteration #  5     ecut=    50.00 Ry     beta= 0.70
     Davidson diagonalization with overlap

---- Real-time Memory Report at c_bands before calling an iterative solver
           550 MiB given to the printing process from OS
             0 MiB allocation reported by mallinfo(arena+hblkhd)
         97770 MiB available memory on the node where the printing process lives
------------------
     ethr =  8.80E-04,  avg # of iterations =  6.4

     negative rho (up, down):  2.323E-03 0.000E+00

     total cpu time spent up to now is     4636.7 secs

     total energy              =  -29715.21076202 Ry
     estimated scf accuracy    <       4.51645901 Ry

     iteration #  6     ecut=    50.00 Ry     beta= 0.70
     Davidson diagonalization with overlap

---- Real-time Memory Report at c_bands before calling an iterative solver
           551 MiB given to the printing process from OS
             0 MiB allocation reported by mallinfo(arena+hblkhd)
         97737 MiB available memory on the node where the printing process lives
------------------
     ethr =  3.41E-04,  avg # of iterations =  6.4

     negative rho (up, down):  2.829E-03 0.000E+00

     total cpu time spent up to now is     5169.1 secs

     total energy              =  -29715.67332000 Ry
     estimated scf accuracy    <       0.25131896 Ry

     iteration #  7     ecut=    50.00 Ry     beta= 0.70
     Davidson diagonalization with overlap

---- Real-time Memory Report at c_bands before calling an iterative solver
           552 MiB given to the printing process from OS
             0 MiB allocation reported by mallinfo(arena+hblkhd)
         97705 MiB available memory on the node where the printing process lives
------------------
     c_bands:  1 eigenvalues not converged
     ethr =  1.90E-05,  avg # of iterations = 15.8

     negative rho (up, down):  3.362E-03 0.000E+00

     total cpu time spent up to now is     5777.4 secs

     total energy              =  -29715.68791238 Ry
     estimated scf accuracy    <       0.06005876 Ry

     iteration #  8     ecut=    50.00 Ry     beta= 0.70
     Davidson diagonalization with overlap

---- Real-time Memory Report at c_bands before calling an iterative solver
           553 MiB given to the printing process from OS
             0 MiB allocation reported by mallinfo(arena+hblkhd)
         97678 MiB available memory on the node where the printing process lives
------------------
     ethr =  4.54E-06,  avg # of iterations =  9.4

     negative rho (up, down):  3.712E-03 0.000E+00

     total cpu time spent up to now is     6391.4 secs

     total energy              =  -29715.68863684 Ry
     estimated scf accuracy    <       0.05889147 Ry

     iteration #  9     ecut=    50.00 Ry     beta= 0.70
     Davidson diagonalization with overlap

---- Real-time Memory Report at c_bands before calling an iterative solver
           554 MiB given to the printing process from OS
             0 MiB allocation reported by mallinfo(arena+hblkhd)
         97645 MiB available memory on the node where the printing process lives
------------------
     ethr =  4.45E-06,  avg # of iterations =  2.8

     negative rho (up, down):  3.791E-03 0.000E+00

     total cpu time spent up to now is     6926.7 secs

     total energy              =  -29715.69376496 Ry
     estimated scf accuracy    <       0.03392776 Ry

     iteration # 10     ecut=    50.00 Ry     beta= 0.70
     Davidson diagonalization with overlap

---- Real-time Memory Report at c_bands before calling an iterative solver
           555 MiB given to the printing process from OS
             0 MiB allocation reported by mallinfo(arena+hblkhd)
         97599 MiB available memory on the node where the printing process lives
------------------
     ethr =  2.56E-06,  avg # of iterations =  3.0

     negative rho (up, down):  3.832E-03 0.000E+00

     total cpu time spent up to now is     7445.2 secs

     total energy              =  -29715.69536526 Ry
     estimated scf accuracy    <       0.01508980 Ry

     iteration # 11     ecut=    50.00 Ry     beta= 0.70
     Davidson diagonalization with overlap

---- Real-time Memory Report at c_bands before calling an iterative solver
           555 MiB given to the printing process from OS
             0 MiB allocation reported by mallinfo(arena+hblkhd)
         97569 MiB available memory on the node where the printing process lives
------------------
     c_bands:  2 eigenvalues not converged
     ethr =  1.14E-06,  avg # of iterations =  9.4

     negative rho (up, down):  4.429E-03 0.000E+00

     total cpu time spent up to now is     7971.8 secs

     total energy              =  -29715.68751258 Ry
     estimated scf accuracy    <       0.01257724 Ry

     iteration # 12     ecut=    50.00 Ry     beta= 0.70
     Davidson diagonalization with overlap

---- Real-time Memory Report at c_bands before calling an iterative solver
           555 MiB given to the printing process from OS
             0 MiB allocation reported by mallinfo(arena+hblkhd)
         97566 MiB available memory on the node where the printing process lives
------------------
     ethr =  9.50E-07,  avg # of iterations = 15.4

     negative rho (up, down):  4.116E-03 0.000E+00

     total cpu time spent up to now is     8608.4 secs

     total energy              =  -29715.68822351 Ry
     estimated scf accuracy    <       0.00962341 Ry

     iteration # 13     ecut=    50.00 Ry     beta= 0.70
     Davidson diagonalization with overlap

---- Real-time Memory Report at c_bands before calling an iterative solver
           555 MiB given to the printing process from OS
             0 MiB allocation reported by mallinfo(arena+hblkhd)
         97563 MiB available memory on the node where the printing process lives
------------------
     ethr =  7.27E-07,  avg # of iterations =  3.0

     negative rho (up, down):  4.093E-03 0.000E+00

     total cpu time spent up to now is     9132.0 secs

     total energy              =  -29715.68613684 Ry
     estimated scf accuracy    <       0.00672697 Ry

     iteration # 14     ecut=    50.00 Ry     beta= 0.70
     Davidson diagonalization with overlap

---- Real-time Memory Report at c_bands before calling an iterative solver
           555 MiB given to the printing process from OS
             0 MiB allocation reported by mallinfo(arena+hblkhd)
         97563 MiB available memory on the node where the printing process lives
------------------
     c_bands:  1 eigenvalues not converged
     ethr =  5.08E-07,  avg # of iterations = 15.2

     negative rho (up, down):  4.025E-03 0.000E+00

     total cpu time spent up to now is     9755.2 secs

     total energy              =  -29715.68093216 Ry
     estimated scf accuracy    <       0.14881853 Ry

     iteration # 15     ecut=    50.00 Ry     beta= 0.70
     Davidson diagonalization with overlap

---- Real-time Memory Report at c_bands before calling an iterative solver
           555 MiB given to the printing process from OS
             0 MiB allocation reported by mallinfo(arena+hblkhd)
         97558 MiB available memory on the node where the printing process lives
------------------
     ethr =  5.08E-07,  avg # of iterations =  8.6

     negative rho (up, down):  4.014E-03 0.000E+00

     total cpu time spent up to now is    10320.3 secs

     total energy              =  -29715.68898512 Ry
     estimated scf accuracy    <       0.00049097 Ry

     iteration # 16     ecut=    50.00 Ry     beta= 0.70
     Davidson diagonalization with overlap

---- Real-time Memory Report at c_bands before calling an iterative solver
           555 MiB given to the printing process from OS
             0 MiB allocation reported by mallinfo(arena+hblkhd)
         97557 MiB available memory on the node where the printing process lives
------------------
     ethr =  3.71E-08,  avg # of iterations =  3.0

     negative rho (up, down):  3.993E-03 0.000E+00

     total cpu time spent up to now is    10890.8 secs

     total energy              =  -29715.68904872 Ry
     estimated scf accuracy    <       0.00040579 Ry

     iteration # 17     ecut=    50.00 Ry     beta= 0.70
     Davidson diagonalization with overlap

---- Real-time Memory Report at c_bands before calling an iterative solver
           555 MiB given to the printing process from OS
             0 MiB allocation reported by mallinfo(arena+hblkhd)
         97557 MiB available memory on the node where the printing process lives
------------------
     ethr =  3.06E-08,  avg # of iterations =  2.0

     negative rho (up, down):  3.967E-03 0.000E+00

     total cpu time spent up to now is    11387.8 secs

     total energy              =  -29715.68909986 Ry
     estimated scf accuracy    <       0.00007262 Ry

     iteration # 18     ecut=    50.00 Ry     beta= 0.70
     Davidson diagonalization with overlap

---- Real-time Memory Report at c_bands before calling an iterative solver
           555 MiB given to the printing process from OS
             0 MiB allocation reported by mallinfo(arena+hblkhd)
         97554 MiB available memory on the node where the printing process lives
------------------
     ethr =  5.49E-09,  avg # of iterations =  2.2

     negative rho (up, down):  3.956E-03 0.000E+00

     total cpu time spent up to now is    11889.4 secs

     total energy              =  -29715.68910796 Ry
     estimated scf accuracy    <       0.00001076 Ry

     iteration # 19     ecut=    50.00 Ry     beta= 0.70
     Davidson diagonalization with overlap

---- Real-time Memory Report at c_bands before calling an iterative solver
           555 MiB given to the printing process from OS
             0 MiB allocation reported by mallinfo(arena+hblkhd)
         97555 MiB available memory on the node where the printing process lives
------------------
     ethr =  8.13E-10,  avg # of iterations =  3.0

     negative rho (up, down):  3.951E-03 0.000E+00

     total cpu time spent up to now is    12398.4 secs

     total energy              =  -29715.68910966 Ry
     estimated scf accuracy    <       0.00000104 Ry

     iteration # 20     ecut=    50.00 Ry     beta= 0.70
     Davidson diagonalization with overlap

---- Real-time Memory Report at c_bands before calling an iterative solver
           555 MiB given to the printing process from OS
             0 MiB allocation reported by mallinfo(arena+hblkhd)
         97556 MiB available memory on the node where the printing process lives
------------------
     ethr =  7.88E-11,  avg # of iterations =  4.0

     negative rho (up, down):  3.950E-03 0.000E+00

     total cpu time spent up to now is    12924.1 secs

     total energy              =  -29715.68910970 Ry
     estimated scf accuracy    <       0.00000109 Ry

     iteration # 21     ecut=    50.00 Ry     beta= 0.70
     Davidson diagonalization with overlap

---- Real-time Memory Report at c_bands before calling an iterative solver
           555 MiB given to the printing process from OS
             0 MiB allocation reported by mallinfo(arena+hblkhd)
         97557 MiB available memory on the node where the printing process lives
------------------
     ethr =  7.88E-11,  avg # of iterations =  2.0

     negative rho (up, down):  3.947E-03 0.000E+00

     total cpu time spent up to now is    13427.5 secs

     End of self-consistent calculation

          k = 0.0000 0.0000 0.0000 ( 90569 PWs)   bands (ev):

  -122.8169-122.8156-122.8155-122.8152-122.8143-122.8141-122.8138-122.8132
  -122.8124-122.8114-122.8111-122.8107-122.8102-122.8101-122.8096-122.8094
  -122.7859-122.7801-122.7797-122.7787-122.7782-122.7710-122.7693-122.7687
  -122.7674-122.7661-122.7655-122.7650-122.7645-122.7639-122.7634-122.7628
  -122.6266-122.6216-122.6115-122.6101-122.6100-122.6096-122.6091-122.6086
  -122.6085-122.6080-122.6079-122.6075-122.6073-122.6069-122.6065-122.6061
  -122.6053-122.6036-122.5940-122.5919-122.5901-122.5898-122.5893-122.5882
  -122.5877-122.5870-122.5867-122.5856-122.5850-122.5848-122.5843-122.5841
   -76.9802 -76.9798 -76.9797 -76.9740 -76.9738 -76.9728 -76.9726 -76.9726
   -76.9724 -76.9685 -76.9669 -76.9668 -76.9665 -76.9655 -76.9653 -76.9649
   -76.9643 -76.9637 -76.9628 -76.9627 -76.9626 -76.9623 -76.9620 -76.9618
   -76.9616 -76.9613 -76.9612 -76.9612 -76.9611 -76.9607 -76.9604 -76.9604
   -76.9603 -76.9601 -76.9600 -76.9590 -76.9588 -76.9539 -76.9528 -76.9526
   -76.9493 -76.9490 -76.9489 -76.9478 -76.9477 -76.9475 -76.9439 -76.9438
   -76.9432 -76.9427 -76.9403 -76.9368 -76.9352 -76.9327 -76.9319 -76.9311
   -76.9310 -76.9306 -76.9298 -76.9296 -76.9292 -76.9290 -76.9245 -76.9241
   -76.9228 -76.9220 -76.9218 -76.9206 -76.9202 -76.9197 -76.9190 -76.9185
   -76.9184 -76.9173 -76.9171 -76.9165 -76.9164 -76.9161 -76.9155 -76.9152
   -76.9149 -76.9145 -76.9139 -76.9138 -76.9135 -76.9126 -76.9088 -76.9084
   -76.9078 -76.9057 -76.9052 -76.9029 -76.9028 -76.9021 -76.8995 -76.8978
   -76.7868 -76.7818 -76.7769 -76.7734 -76.7727 -76.7724 -76.7723 -76.7704
   -76.7689 -76.7687 -76.7686 -76.7683 -76.7678 -76.7673 -76.7671 -76.7666
   -76.7665 -76.7665 -76.7664 -76.7660 -76.7659 -76.7657 -76.7655 -76.7655
   -76.7654 -76.7652 -76.7652 -76.7647 -76.7640 -76.7638 -76.7622 -76.7553
   -76.7551 -76.7548 -76.7544 -76.7542 -76.7542 -76.7540 -76.7532 -76.7531
   -76.7528 -76.7524 -76.7523 -76.7521 -76.7520 -76.7508 -76.7504 -76.7501
   -76.7499 -76.7495 -76.7486 -76.7485 -76.7481 -76.7469 -76.7468 -76.7461
   -76.7460 -76.7458 -76.7458 -76.7451 -76.7450 -76.7449 -76.7447 -76.7444
   -76.7439 -76.7425 -76.7419 -76.7416 -76.7414 -76.7411 -76.7409 -76.7406
   -76.7405 -76.7393 -76.7391 -76.7365 -76.7364 -76.7343 -76.7337 -76.7335
   -76.7332 -76.7326 -76.7323 -76.7319 -76.7311 -76.7310 -76.7258 -76.7254
   -76.7228 -76.7226 -76.7222 -76.7204 -76.7202 -76.7199 -76.7170 -76.7155
   -15.5480 -14.0902 -13.2683 -10.8916 -10.8127  -7.9399  -7.6335  -6.4452
    -5.7311  -5.6532  -5.2888  -5.2336  -4.9305  -4.8512  -4.8497  -4.8449
    -4.8430  -4.8405  -4.8400  -4.8369  -4.6517  -4.6516  -4.6516  -4.5977
    -4.5972  -4.5966  -4.4954  -4.4916  -4.4865  -4.4857  -4.4855  -4.4852
    -4.4614  -4.4609  -4.4606  -4.3894  -4.3881  -4.3863  -4.3254  -4.3247
    -4.3240  -4.3234  -4.3232  -4.3230  -4.2874  -4.2873  -4.2872  -4.2551
    -4.2515  -4.2492  -4.2483  -4.2475  -4.2452  -4.2305  -4.2298  -4.2292
    -4.2276  -4.2267  -4.2265  -4.2184  -4.2183  -4.2181  -4.1872  -4.1871
    -4.1862  -4.1860  -4.1852  -4.1850  -4.1477  -4.1473  -4.1459  -4.1446
    -4.1437  -4.1433  -4.0716  -4.0592  -4.0553  -4.0515  -4.0507  -4.0496
    -4.0491  -4.0469  -4.0468  -4.0456  -4.0453  -4.0441  -4.0439  -4.0025
    -4.0000  -3.9991  -3.9983  -3.9970  -3.9967  -3.9960  -3.9950  -3.9941
    -3.9913  -3.9905  -3.9898  -3.9893  -3.9889  -3.9879  -3.9569  -3.9548
    -3.9530  -3.9506  -3.9491  -3.9488  -3.9121  -3.9117  -3.9116  -3.9083
    -3.9071  -3.9057  -3.8677  -3.8668  -3.8664  -3.8644  -3.8637  -3.8634
    -3.8632  -3.8630  -3.8603  -3.8592  -3.8585  -3.8567  -3.8555  -3.8545
    -3.8539  -3.8536  -3.8534  -3.8375  -3.8144  -3.8142  -3.7954  -3.7947
    -3.7937  -3.7927  -3.7916  -3.7911  -3.7787  -3.7773  -3.7755  -3.7750
    -3.7742  -3.7742  -3.7409  -3.7395  -3.7388  -3.7378  -3.7375  -3.7373
    -3.7143  -3.7125  -3.7116  -3.7115  -3.7113  -3.7105  -3.6509  -3.6509
    -3.6363  -3.6354  -3.6351  -3.6346  -3.6344  -3.6335  -3.6293  -3.6290
    -3.5950  -3.5946  -3.5944  -3.5897  -3.5880  -3.5877  -3.5856  -3.5850
    -3.5835  -3.5627  -3.5616  -3.5611  -3.5591  -3.5579  -3.5571  -3.5417
    -3.5389  -3.5377  -3.5371  -3.5364  -3.5333  -3.5289  -3.5288  -3.5284
    -3.5282  -3.5281  -3.5280  -3.5132  -3.5124  -3.5119  -3.5111  -3.5095
    -3.5081  -3.5069  -3.5065  -3.5061  -3.5051  -3.5048  -3.5045  -3.5043
    -3.5039  -3.5037  -3.5015  -3.4993  -3.4991  -3.4987  -3.4979  -3.4950
    -3.4745  -3.4744  -3.4739  -3.4736  -3.4730  -3.4728  -3.4319  -3.4312
    -3.4298  -3.4254  -3.4233  -3.4231  -3.4222  -3.4215  -3.4197  -3.4186
    -3.4185  -3.4181  -3.4160  -3.4151  -3.4142  -3.3741  -3.3733  -3.3712
    -3.3711  -3.3707  -3.3678  -3.3667  -3.3656  -3.3574  -3.3572  -3.3570
    -3.3564  -3.3561  -3.3556  -3.3478  -3.3467  -3.3464  -3.3451  -3.3450
    -3.3440  -3.3417  -3.3409  -3.3408  -3.3400  -3.3395  -3.3393  -3.2764
    -3.2763  -3.2681  -3.2672  -3.2670  -3.2386  -3.2384  -3.2381  -3.2377
    -3.2376  -3.2373  -3.2308  -3.2307  -3.2293  -3.2255  -3.2246  -3.2232
    -3.2194  -3.2191  -3.2185  -3.2161  -3.2133  -3.2118  -3.1948  -3.1947
    -3.1943  -3.1874  -3.1841  -3.1827  -3.1826  -3.1820  -3.1817  -3.1664
    -3.1660  -3.1659  -3.1646  -3.1644  -3.1642  -3.1509  -3.1504  -3.1503
    -3.1477  -3.1475  -3.1473  -3.1468  -3.1331  -3.1318  -3.1272  -3.1186
    -3.1186  -3.1059  -3.1051  -3.0549  -3.0549  -3.0546  -3.0544  -3.0543
    -3.0540  -3.0414  -3.0413  -3.0404  -3.0401  -3.0400  -3.0391  -3.0232
    -3.0231  -3.0231  -3.0084  -2.9807  -2.9803  -2.9798  -2.9439  -2.8214
    -2.8187  -2.8153  -2.8150  -2.8149  -2.8148  -2.8127  -2.8115  -2.8104
    -2.8000  -2.7980  -2.7961  -2.5874  -2.0755  -1.8552  -1.4264  -1.4256
    -1.4235  -1.4213  -1.4210  -1.4164  -0.9587  -0.9207  -0.7290  -0.1249
     0.0443   0.0462   0.0483   0.0492   0.0500   0.0509   0.3056   0.4569
     0.4627   0.4630   0.4638   0.4655   0.4683   0.5453   0.8780   0.8804
     0.8859   0.8874   0.8880   0.8897   1.2052   1.2713   1.3337   1.3342
     1.3346   1.8939   1.8968   1.8995   2.2456   2.2473   2.2500   2.2969
     2.2979   2.2983   2.2987   2.2993   2.3004   2.4856   2.4876   2.4890
     2.6694   3.4954   3.4976   3.5114   3.5149   3.5160   3.5243   3.9837
     3.9867   3.9878   3.9911   3.9935   3.9958   4.1735   4.5834   4.5866
     4.5887   4.8662   4.8680   4.8702   5.6886   5.6902   5.6915   6.0020
     6.0154   6.0317   6.0471   6.0493   6.0593   6.2587   6.4187   6.5582
     6.5932   6.5989   6.6054   7.2475   7.3430   7.3654   7.3713   7.3748
     7.3783   7.3835   7.5412   7.5825   7.5834   7.5857   7.5868   7.5894
     7.5903   7.7622   7.7630   7.7662   7.7679   7.7699   7.7704   7.9069
     8.0493   8.1413   8.2768   8.3561   8.3738   8.4372   8.4728   8.4770
     8.4773   8.4820   8.4823   8.4852   8.5172   8.5354   8.5471   8.5668
     8.5694   8.5714   8.5748   8.5757   8.5771   8.7069   8.8293   8.9562
     8.9647   9.0667   9.1221   9.1838   9.2205   9.2583   9.2736   9.4360
     9.4496   9.4755   9.5094   9.5505   9.5699   9.5832   9.5961   9.6335
     9.6887   9.7409   9.9881  10.0035  10.0134  10.0156  10.0165  10.0236
    10.0631  10.0650  10.0661  10.0687  10.0749  10.0781  10.1655  10.1673
    10.1871  10.4967  10.5429  10.5789  10.6033  10.7046  10.7467  10.9102
    10.9470  11.0135  11.0391  11.0535  11.1080  11.1292  11.1691  11.2474
    11.3128  11.3237  11.4101  11.4338  11.4389  11.4488  11.4509  11.4574
    11.5711  11.6084

     occupation numbers 
     1.0000   1.0000   1.0000   1.0000   1.0000   1.0000   1.0000   1.0000
     1.0000   1.0000   1.0000   1.0000   1.0000   1.0000   1.0000   1.0000
     1.0000   1.0000   1.0000   1.0000   1.0000   1.0000   1.0000   1.0000
     1.0000   1.0000   1.0000   1.0000   1.0000   1.0000   1.0000   1.0000
     1.0000   1.0000   1.0000   1.0000   1.0000   1.0000   1.0000   1.0000
     1.0000   1.0000   1.0000   1.0000   1.0000   1.0000   1.0000   1.0000
     1.0000   1.0000   1.0000   1.0000   1.0000   1.0000   1.0000   1.0000
     1.0000   1.0000   1.0000   1.0000   1.0000   1.0000   1.0000   1.0000
     1.0000   1.0000   1.0000   1.0000   1.0000   1.0000   1.0000   1.0000
     1.0000   1.0000   1.0000   1.0000   1.0000   1.0000   1.0000   1.0000
     1.0000   1.0000   1.0000   1.0000   1.0000   1.0000   1.0000   1.0000
     1.0000   1.0000   1.0000   1.0000   1.0000   1.0000   1.0000   1.0000
     1.0000   1.0000   1.0000   1.0000   1.0000   1.0000   1.0000   1.0000
     1.0000   1.0000   1.0000   1.0000   1.0000   1.0000   1.0000   1.0000
     1.0000   1.0000   1.0000   1.0000   1.0000   1.0000   1.0000   1.0000
     1.0000   1.0000   1.0000   1.0000   1.0000   1.0000   1.0000   1.0000
     1.0000   1.0000   1.0000   1.0000   1.0000   1.0000   1.0000   1.0000
     1.0000   1.0000   1.0000   1.0000   1.0000   1.0000   1.0000   1.0000
     1.0000   1.0000   1.0000   1.0000   1.0000   1.0000   1.0000   1.0000
     1.0000   1.0000   1.0000   1.0000   1.0000   1.0000   1.0000   1.0000
     1.0000   1.0000   1.0000   1.0000   1.0000   1.0000   1.0000   1.0000
     1.0000   1.0000   1.0000   1.0000   1.0000   1.0000   1.0000   1.0000
     1.0000   1.0000   1.0000   1.0000   1.0000   1.0000   1.0000   1.0000
     1.0000   1.0000   1.0000   1.0000   1.0000   1.0000   1.0000   1.0000
     1.0000   1.0000   1.0000   1.0000   1.0000   1.0000   1.0000   1.0000
     1.0000   1.0000   1.0000   1.0000   1.0000   1.0000   1.0000   1.0000
     1.0000   1.0000   1.0000   1.0000   1.0000   1.0000   1.0000   1.0000
     1.0000   1.0000   1.0000   1.0000   1.0000   1.0000   1.0000   1.0000
     1.0000   1.0000   1.0000   1.0000   1.0000   1.0000   1.0000   1.0000
     1.0000   1.0000   1.0000   1.0000   1.0000   1.0000   1.0000   1.0000
     1.0000   1.0000   1.0000   1.0000   1.0000   1.0000   1.0000   1.0000
     1.0000   1.0000   1.0000   1.0000   1.0000   1.0000   1.0000   1.0000
     1.0000   1.0000   1.0000   1.0000   1.0000   1.0000   1.0000   1.0000
     1.0000   1.0000   1.0000   1.0000   1.0000   1.0000   1.0000   1.0000
     1.0000   1.0000   1.0000   1.0000   1.0000   1.0000   1.0000   1.0000
     1.0000   1.0000   1.0000   1.0000   1.0000   1.0000   1.0000   1.0000
     1.0000   1.0000   1.0000   1.0000   1.0000   1.0000   1.0000   1.0000
     1.0000   1.0000   1.0000   1.0000   1.0000   1.0000   1.0000   1.0000
     1.0000   1.0000   1.0000   1.0000   1.0000   1.0000   1.0000   1.0000
     1.0000   1.0000   1.0000   1.0000   1.0000   1.0000   1.0000   1.0000
     1.0000   1.0000   1.0000   1.0000   1.0000   1.0000   1.0000   1.0000
     1.0000   1.0000   1.0000   1.0000   1.0000   1.0000   1.0000   1.0000
     1.0000   1.0000   1.0000   1.0000   1.0000   1.0000   1.0000   1.0000
     1.0000   1.0000   1.0000   1.0000   1.0000   1.0000   1.0000   1.0000
     1.0000   1.0000   1.0000   1.0000   1.0000   1.0000   1.0000   1.0000
     1.0000   1.0000   1.0000   1.0000   1.0000   1.0000   1.0000   1.0000
     1.0000   1.0000   1.0000   1.0000   1.0000   1.0000   1.0000   1.0000
     1.0000   1.0000   1.0000   1.0000   1.0000   1.0000   1.0000   1.0000
     1.0000   1.0000   1.0000   1.0000   1.0000   1.0000   1.0000   1.0000
     1.0000   1.0000   1.0000   1.0000   1.0000   1.0000   1.0000   1.0000
     1.0000   1.0000   1.0000   1.0000   1.0000   1.0000   1.0000   1.0000
     1.0000   1.0000   1.0000   1.0000   1.0000   1.0000   1.0000   1.0000
     1.0000   1.0000   1.0000   1.0000   1.0000   1.0000   1.0000   1.0000
     1.0000   1.0000   1.0000   1.0000   1.0000   1.0000   1.0000   1.0000
     1.0000   1.0000   1.0000   1.0000   1.0000   1.0000   1.0000   1.0000
     1.0000   1.0000   1.0000   1.0000   1.0000   1.0000   1.0000   1.0000
     1.0000   1.0000   1.0000   1.0000   1.0000   1.0000   1.0000   1.0000
     1.0000   1.0000   1.0000   1.0000   1.0000   1.0000   1.0000   1.0000
     1.0000   1.0000   1.0000   1.0000   1.0000   1.0000   1.0000   1.0000
     1.0000   1.0000   1.0000   1.0000   1.0000   1.0000   1.0000   1.0000
     1.0000   1.0000   1.0000   1.0000   1.0000   1.0000   1.0000   1.0000
     1.0000   1.0000   1.0000   1.0000   1.0000   1.0000   1.0000   1.0000
     1.0000   1.0000   1.0000   1.0000   1.0000   1.0000   1.0000   1.0000
     1.0000   1.0000   1.0000   1.0000   1.0000   1.0000   1.0000   1.0000
     1.0000   1.0000   1.0000   1.0000   1.0000   1.0000   1.0000   1.0000
     1.0000   1.0000   1.0000   1.0000   1.0000   1.0000   1.0000   1.0000
     1.0000   1.0000   1.0000   1.0000   1.0000   1.0000   1.0000   1.0000
     1.0000   1.0000   1.0000   1.0000   1.0000   1.0000   1.0000   1.0000
     1.0000   1.0000   1.0000   1.0000   1.0000   1.0000   1.0000   1.0000
     1.0000   1.0000   1.0000   1.0000   1.0000   1.0000   1.0000   1.0000
     1.0000   1.0000   1.0000   1.0000   1.0000   1.0000   1.0000   1.0000
     1.0000   1.0000   1.0000   1.0000   1.0000   1.0000   1.0000   1.0000
     1.0000   1.0000   1.0000   1.0000   1.0000   1.0000   1.0000   1.0000
     1.0000   1.0000   1.0000   1.0000   1.0000   1.0000   1.0000   1.0000
     1.0000   1.0000   1.0000   1.0000   1.0000   1.0000   1.0000   1.0000
     1.0000   1.0000   1.0000   1.0000   1.0000   1.0000   1.0000   1.0000
     1.0000   1.0000   1.0000   1.0000   1.0000   1.0000   1.0000   1.0000
     1.0000   1.0000   1.0000   1.0000   1.0000   1.0000   1.0000   1.0000
     1.0000   1.0000   1.0000   1.0000   1.0000   1.0000   1.0000   1.0000
     1.0000   1.0000   1.0000   1.0000   1.0000   1.0000   1.0000   1.0000
     1.0000   1.0000   1.0000   1.0000   1.0000   1.0000   1.0000   1.0000
     1.0000   1.0000   1.0000   1.0000   1.0000   1.0000   1.0000   1.0000
     1.0000   1.0370   1.0376   1.0420   1.0432   1.0435   1.0463   0.5868
     0.5785   0.5754   0.5663   0.5598   0.5533   0.1585   0.0004   0.0004
     0.0004   0.0000   0.0000   0.0000   0.0000   0.0000   0.0000   0.0000
     0.0000   0.0000   0.0000   0.0000   0.0000   0.0000   0.0000   0.0000
     0.0000   0.0000   0.0000   0.0000   0.0000   0.0000   0.0000   0.0000
     0.0000   0.0000   0.0000   0.0000   0.0000   0.0000   0.0000   0.0000
     0.0000   0.0000   0.0000   0.0000   0.0000   0.0000   0.0000   0.0000
     0.0000   0.0000   0.0000   0.0000   0.0000   0.0000   0.0000   0.0000
     0.0000   0.0000   0.0000   0.0000   0.0000   0.0000   0.0000   0.0000
     0.0000   0.0000   0.0000   0.0000   0.0000   0.0000   0.0000   0.0000
     0.0000   0.0000   0.0000   0.0000   0.0000   0.0000   0.0000   0.0000
     0.0000   0.0000   0.0000   0.0000   0.0000   0.0000   0.0000   0.0000
     0.0000   0.0000   0.0000   0.0000   0.0000   0.0000   0.0000   0.0000
     0.0000   0.0000   0.0000   0.0000   0.0000   0.0000   0.0000   0.0000
     0.0000   0.0000   0.0000   0.0000   0.0000   0.0000   0.0000   0.0000
     0.0000   0.0000   0.0000   0.0000   0.0000   0.0000   0.0000   0.0000
     0.0000   0.0000   0.0000   0.0000   0.0000   0.0000   0.0000   0.0000
     0.0000   0.0000

          k = 0.0000 0.3849 0.0000 ( 90604 PWs)   bands (ev):

  -122.8168-122.8160-122.8153-122.8149-122.8144-122.8142-122.8137-122.8132
  -122.8123-122.8117-122.8108-122.8106-122.8103-122.8101-122.8096-122.8094
  -122.7859-122.7801-122.7797-122.7787-122.7782-122.7710-122.7693-122.7687
  -122.7674-122.7662-122.7655-122.7649-122.7645-122.7639-122.7634-122.7628
  -122.6266-122.6216-122.6115-122.6104-122.6099-122.6095-122.6092-122.6086
  -122.6084-122.6081-122.6077-122.6076-122.6072-122.6070-122.6065-122.6061
  -122.6053-122.6036-122.5940-122.5919-122.5901-122.5898-122.5894-122.5882
  -122.5876-122.5870-122.5867-122.5856-122.5851-122.5847-122.5843-122.5841
   -76.9788 -76.9785 -76.9778 -76.9756 -76.9755 -76.9741 -76.9729 -76.9706
   -76.9704 -76.9703 -76.9684 -76.9674 -76.9666 -76.9666 -76.9663 -76.9661
   -76.9657 -76.9654 -76.9648 -76.9643 -76.9637 -76.9636 -76.9635 -76.9630
   -76.9619 -76.9617 -76.9613 -76.9611 -76.9606 -76.9603 -76.9590 -76.9583
   -76.9578 -76.9576 -76.9561 -76.9552 -76.9549 -76.9535 -76.9527 -76.9519
   -76.9514 -76.9509 -76.9497 -76.9483 -76.9477 -76.9459 -76.9454 -76.9442
   -76.9431 -76.9422 -76.9394 -76.9368 -76.9360 -76.9346 -76.9323 -76.9310
   -76.9306 -76.9303 -76.9296 -76.9294 -76.9290 -76.9278 -76.9275 -76.9255
   -76.9235 -76.9220 -76.9219 -76.9209 -76.9203 -76.9200 -76.9197 -76.9184
   -76.9184 -76.9173 -76.9172 -76.9166 -76.9161 -76.9159 -76.9155 -76.9150
   -76.9145 -76.9141 -76.9139 -76.9130 -76.9117 -76.9094 -76.9091 -76.9083
   -76.9078 -76.9065 -76.9045 -76.9038 -76.9029 -76.9017 -76.9002 -76.8991
   -76.7868 -76.7818 -76.7767 -76.7733 -76.7715 -76.7711 -76.7703 -76.7702
   -76.7692 -76.7686 -76.7685 -76.7681 -76.7680 -76.7678 -76.7678 -76.7672
   -76.7671 -76.7667 -76.7665 -76.7663 -76.7662 -76.7662 -76.7658 -76.7656
   -76.7651 -76.7648 -76.7646 -76.7638 -76.7636 -76.7635 -76.7631 -76.7622
   -76.7594 -76.7593 -76.7564 -76.7562 -76.7542 -76.7520 -76.7513 -76.7510
   -76.7506 -76.7504 -76.7504 -76.7500 -76.7500 -76.7496 -76.7492 -76.7485
   -76.7482 -76.7480 -76.7480 -76.7472 -76.7471 -76.7469 -76.7468 -76.7467
   -76.7457 -76.7457 -76.7454 -76.7452 -76.7451 -76.7448 -76.7442 -76.7440
   -76.7440 -76.7440 -76.7436 -76.7435 -76.7429 -76.7423 -76.7413 -76.7411
   -76.7408 -76.7406 -76.7391 -76.7385 -76.7383 -76.7369 -76.7367 -76.7332
   -76.7327 -76.7322 -76.7302 -76.7295 -76.7276 -76.7262 -76.7261 -76.7249
   -76.7243 -76.7236 -76.7221 -76.7215 -76.7203 -76.7189 -76.7178 -76.7168
   -15.5480 -14.0902 -13.2683 -10.8916 -10.8127  -7.9399  -7.6335  -6.2330
    -5.7310  -5.6259  -5.4556  -5.2888  -5.2331  -5.0824  -5.0793  -4.9227
    -4.7892  -4.7266  -4.6235  -4.5826  -4.5780  -4.5780  -4.5672  -4.5339
    -4.5285  -4.5250  -4.5233  -4.5218  -4.5194  -4.4961  -4.4877  -4.4386
    -4.4285  -4.4035  -4.4034  -4.3868  -4.3851  -4.3751  -4.3748  -4.3583
    -4.3497  -4.3288  -4.3282  -4.3152  -4.3147  -4.3107  -4.3100  -4.2883
    -4.2857  -4.2856  -4.2751  -4.2748  -4.2612  -4.2608  -4.2564  -4.2553
    -4.2546  -4.2395  -4.2394  -4.2246  -4.2208  -4.2109  -4.2099  -4.2048
    -4.2045  -4.1896  -4.1875  -4.1867  -4.1852  -4.1844  -4.1710  -4.1700
    -4.1691  -4.1373  -4.1372  -4.1339  -4.1318  -4.1162  -4.1150  -4.1125
    -4.1110  -4.1065  -4.1049  -4.1042  -4.0609  -4.0592  -4.0550  -4.0534
    -4.0493  -4.0330  -4.0300  -4.0284  -4.0280  -4.0169  -4.0167  -4.0080
    -3.9900  -3.9886  -3.9841  -3.9806  -3.9799  -3.9792  -3.9741  -3.9733
    -3.9711  -3.9532  -3.9519  -3.9446  -3.9436  -3.9419  -3.9394  -3.9362
    -3.9357  -3.9345  -3.9330  -3.9237  -3.9229  -3.9132  -3.9119  -3.9101
    -3.8915  -3.8717  -3.8648  -3.8613  -3.8550  -3.8443  -3.8420  -3.8395
    -3.8386  -3.8371  -3.8315  -3.8304  -3.8280  -3.8257  -3.8248  -3.8118
    -3.8016  -3.8011  -3.7960  -3.7956  -3.7767  -3.7758  -3.7634  -3.7587
    -3.7545  -3.7519  -3.7496  -3.7458  -3.7446  -3.7283  -3.7263  -3.7223
    -3.7200  -3.7091  -3.7067  -3.7039  -3.6844  -3.6837  -3.6804  -3.6798
    -3.6781  -3.6693  -3.6668  -3.6576  -3.6565  -3.6551  -3.6530  -3.6519
    -3.6254  -3.6248  -3.6233  -3.6229  -3.6194  -3.6015  -3.6015  -3.5999
    -3.5994  -3.5816  -3.5788  -3.5679  -3.5675  -3.5484  -3.5475  -3.5466
    -3.5459  -3.5456  -3.5410  -3.5404  -3.5384  -3.5363  -3.5345  -3.5275
    -3.5267  -3.5155  -3.5150  -3.5097  -3.5083  -3.5068  -3.5059  -3.4959
    -3.4954  -3.4875  -3.4857  -3.4842  -3.4838  -3.4822  -3.4760  -3.4746
    -3.4676  -3.4622  -3.4619  -3.4505  -3.4483  -3.4448  -3.4437  -3.4425
    -3.4354  -3.4346  -3.4309  -3.4291  -3.4274  -3.4253  -3.4247  -3.4212
    -3.4202  -3.4048  -3.4031  -3.4027  -3.4012  -3.4008  -3.4001  -3.3964
    -3.3952  -3.3941  -3.3850  -3.3682  -3.3675  -3.3666  -3.3639  -3.3624
    -3.3465  -3.3451  -3.3361  -3.3358  -3.3145  -3.3107  -3.3092  -3.3065
    -3.3049  -3.3043  -3.3030  -3.3010  -3.2980  -3.2968  -3.2961  -3.2953
    -3.2876  -3.2875  -3.2836  -3.2813  -3.2805  -3.2780  -3.2778  -3.2746
    -3.2730  -3.2675  -3.2669  -3.2657  -3.2648  -3.2629  -3.2555  -3.2488
    -3.2484  -3.2408  -3.2406  -3.2245  -3.2231  -3.2226  -3.2150  -3.2119
    -3.2115  -3.2112  -3.2105  -3.1893  -3.1848  -3.1821  -3.1808  -3.1795
    -3.1751  -3.1727  -3.1713  -3.1702  -3.1699  -3.1693  -3.1691  -3.1673
    -3.1663  -3.1603  -3.1579  -3.1567  -3.1551  -3.1519  -3.1495  -3.1489
    -3.1427  -3.1417  -3.1400  -3.1357  -3.1290  -3.1286  -3.1261  -3.1246
    -3.1208  -3.1188  -3.1118  -3.0954  -3.0953  -3.0809  -3.0645  -3.0643
    -3.0594  -3.0592  -3.0394  -3.0367  -3.0365  -3.0360  -3.0352  -3.0323
    -3.0210  -3.0204  -3.0156  -3.0075  -2.9665  -2.9663  -2.9094  -2.9094
    -2.8930  -2.8925  -2.8743  -2.8574  -2.7664  -2.7652  -2.7051  -2.5879
    -2.4286  -2.2335  -2.1048  -2.1006  -2.0743  -1.8564  -1.7495  -1.7427
    -1.6106  -1.6080  -1.6003  -0.9226  -0.8329  -0.8270  -0.8073  -0.7310
    -0.6598  -0.6565  -0.5945  -0.3495  -0.1248  -0.1078   0.1354   0.1358
     0.1977   0.1980   0.2394   0.3057   0.5327   0.5951   0.5983   0.6893
     0.6895   1.0314   1.0317   1.1860   1.1872   1.2712   1.4822   1.4855
     1.4938   1.6387   1.7111   2.1357   2.1393   2.2902   2.3626   2.3652
     2.4206   2.4227   2.6478   2.6696   2.6888   2.9760   2.9827   3.0340
     3.0448   3.1048   3.1055   3.1548   3.9683   3.9691   4.2722   4.2736
     4.3815   4.4226   4.4268   4.5735   4.5777   4.8099   4.8106   5.0139
     5.0682   5.1698   5.2120   5.2125   5.6298   5.6359   5.6516   5.6520
     5.7295   5.7359   5.8044   5.8083   5.8114   5.9182   5.9190   6.2235
     6.2734   6.2774   6.3670   6.3674   6.4120   6.6799   6.7513   6.8392
     6.8552   7.0714   7.0720   7.2337   7.2362   7.3045   7.3511   7.3538
     7.3677   7.4177   7.4955   7.5661   7.5686   7.7276   7.8950   7.9138
     7.9718   7.9889   7.9976   8.0020   8.0070   8.0187   8.1390   8.1431
     8.1471   8.1700   8.1723   8.3836   8.5276   8.5393   8.5510   8.5531
     8.6650   8.7405   8.7732   8.7813   8.8471   8.8829   8.9921   9.0510
     9.1824   9.1913   9.2379   9.2590   9.2897   9.2973   9.3588   9.3766
     9.4203   9.4277   9.5815   9.6693   9.6762   9.7090   9.7901   9.7930
     9.8316   9.8857   9.9511  10.0538  10.1170  10.1353  10.1581  10.1884
    10.2542  10.2655  10.2958  10.3074  10.3562  10.4407  10.4517  10.4749
    10.4899  10.5708  10.6462  10.6889  10.7383  10.7981  10.8745  10.8996
    10.9032  10.9976  11.0201  11.0964  11.1142  11.1377  11.1516  11.1535
    11.1735  11.2097  11.2225  11.2898  11.3407  11.3835  11.4354  11.5590
    11.6279  11.7097

     occupation numbers 
     1.0000   1.0000   1.0000   1.0000   1.0000   1.0000   1.0000   1.0000
     1.0000   1.0000   1.0000   1.0000   1.0000   1.0000   1.0000   1.0000
     1.0000   1.0000   1.0000   1.0000   1.0000   1.0000   1.0000   1.0000
     1.0000   1.0000   1.0000   1.0000   1.0000   1.0000   1.0000   1.0000
     1.0000   1.0000   1.0000   1.0000   1.0000   1.0000   1.0000   1.0000
     1.0000   1.0000   1.0000   1.0000   1.0000   1.0000   1.0000   1.0000
     1.0000   1.0000   1.0000   1.0000   1.0000   1.0000   1.0000   1.0000
     1.0000   1.0000   1.0000   1.0000   1.0000   1.0000   1.0000   1.0000
     1.0000   1.0000   1.0000   1.0000   1.0000   1.0000   1.0000   1.0000
     1.0000   1.0000   1.0000   1.0000   1.0000   1.0000   1.0000   1.0000
     1.0000   1.0000   1.0000   1.0000   1.0000   1.0000   1.0000   1.0000
     1.0000   1.0000   1.0000   1.0000   1.0000   1.0000   1.0000   1.0000
     1.0000   1.0000   1.0000   1.0000   1.0000   1.0000   1.0000   1.0000
     1.0000   1.0000   1.0000   1.0000   1.0000   1.0000   1.0000   1.0000
     1.0000   1.0000   1.0000   1.0000   1.0000   1.0000   1.0000   1.0000
     1.0000   1.0000   1.0000   1.0000   1.0000   1.0000   1.0000   1.0000
     1.0000   1.0000   1.0000   1.0000   1.0000   1.0000   1.0000   1.0000
     1.0000   1.0000   1.0000   1.0000   1.0000   1.0000   1.0000   1.0000
     1.0000   1.0000   1.0000   1.0000   1.0000   1.0000   1.0000   1.0000
     1.0000   1.0000   1.0000   1.0000   1.0000   1.0000   1.0000   1.0000
     1.0000   1.0000   1.0000   1.0000   1.0000   1.0000   1.0000   1.0000
     1.0000   1.0000   1.0000   1.0000   1.0000   1.0000   1.0000   1.0000
     1.0000   1.0000   1.0000   1.0000   1.0000   1.0000   1.0000   1.0000
     1.0000   1.0000   1.0000   1.0000   1.0000   1.0000   1.0000   1.0000
     1.0000   1.0000   1.0000   1.0000   1.0000   1.0000   1.0000   1.0000
     1.0000   1.0000   1.0000   1.0000   1.0000   1.0000   1.0000   1.0000
     1.0000   1.0000   1.0000   1.0000   1.0000   1.0000   1.0000   1.0000
     1.0000   1.0000   1.0000   1.0000   1.0000   1.0000   1.0000   1.0000
     1.0000   1.0000   1.0000   1.0000   1.0000   1.0000   1.0000   1.0000
     1.0000   1.0000   1.0000   1.0000   1.0000   1.0000   1.0000   1.0000
     1.0000   1.0000   1.0000   1.0000   1.0000   1.0000   1.0000   1.0000
     1.0000   1.0000   1.0000   1.0000   1.0000   1.0000   1.0000   1.0000
     1.0000   1.0000   1.0000   1.0000   1.0000   1.0000   1.0000   1.0000
     1.0000   1.0000   1.0000   1.0000   1.0000   1.0000   1.0000   1.0000
     1.0000   1.0000   1.0000   1.0000   1.0000   1.0000   1.0000   1.0000
     1.0000   1.0000   1.0000   1.0000   1.0000   1.0000   1.0000   1.0000
     1.0000   1.0000   1.0000   1.0000   1.0000   1.0000   1.0000   1.0000
     1.0000   1.0000   1.0000   1.0000   1.0000   1.0000   1.0000   1.0000
     1.0000   1.0000   1.0000   1.0000   1.0000   1.0000   1.0000   1.0000
     1.0000   1.0000   1.0000   1.0000   1.0000   1.0000   1.0000   1.0000
     1.0000   1.0000   1.0000   1.0000   1.0000   1.0000   1.0000   1.0000
     1.0000   1.0000   1.0000   1.0000   1.0000   1.0000   1.0000   1.0000
     1.0000   1.0000   1.0000   1.0000   1.0000   1.0000   1.0000   1.0000
     1.0000   1.0000   1.0000   1.0000   1.0000   1.0000   1.0000   1.0000
     1.0000   1.0000   1.0000   1.0000   1.0000   1.0000   1.0000   1.0000
     1.0000   1.0000   1.0000   1.0000   1.0000   1.0000   1.0000   1.0000
     1.0000   1.0000   1.0000   1.0000   1.0000   1.0000   1.0000   1.0000
     1.0000   1.0000   1.0000   1.0000   1.0000   1.0000   1.0000   1.0000
     1.0000   1.0000   1.0000   1.0000   1.0000   1.0000   1.0000   1.0000
     1.0000   1.0000   1.0000   1.0000   1.0000   1.0000   1.0000   1.0000
     1.0000   1.0000   1.0000   1.0000   1.0000   1.0000   1.0000   1.0000
     1.0000   1.0000   1.0000   1.0000   1.0000   1.0000   1.0000   1.0000
     1.0000   1.0000   1.0000   1.0000   1.0000   1.0000   1.0000   1.0000
     1.0000   1.0000   1.0000   1.0000   1.0000   1.0000   1.0000   1.0000
     1.0000   1.0000   1.0000   1.0000   1.0000   1.0000   1.0000   1.0000
     1.0000   1.0000   1.0000   1.0000   1.0000   1.0000   1.0000   1.0000
     1.0000   1.0000   1.0000   1.0000   1.0000   1.0000   1.0000   1.0000
     1.0000   1.0000   1.0000   1.0000   1.0000   1.0000   1.0000   1.0000
     1.0000   1.0000   1.0000   1.0000   1.0000   1.0000   1.0000   1.0000
     1.0000   1.0000   1.0000   1.0000   1.0000   1.0000   1.0000   1.0000
     1.0000   1.0000   1.0000   1.0000   1.0000   1.0000   1.0000   1.0000
     1.0000   1.0000   1.0000   1.0000   1.0000   1.0000   1.0000   1.0000
     1.0000   1.0000   1.0000   1.0000   1.0000   1.0000   1.0000   1.0000
     1.0000   1.0000   1.0000   1.0000   1.0000   1.0000   1.0000   1.0000
     1.0000   1.0000   1.0000   1.0000   1.0000   1.0000   1.0000   1.0000
     1.0000   1.0000   1.0000   1.0000   1.0000   1.0000   1.0000   1.0000
     1.0000   1.0000   1.0000   1.0000   1.0000   1.0000   1.0000   1.0000
     1.0000   1.0000   1.0000   1.0000   1.0000   1.0000   1.0000   1.0000
     1.0000   1.0000   1.0000   1.0000   1.0000   1.0000   1.0000   1.0000
     1.0000   1.0000   1.0000   1.0000   1.0000   1.0000   1.0000   1.0000
     1.0000   1.0000   1.0000   1.0000   1.0000   1.0000   1.0000   1.0000
     1.0000   1.0000   1.0000   1.0000   1.0000   1.0000   1.0000   1.0000
     1.0000   1.0000   1.0000   1.0000   1.0000   1.0000   1.0000   1.0000
     1.0000   1.0000   1.0000   1.0000   1.0000   1.0000   1.0000   1.0000
     1.0000   1.0000   1.0000   1.0000   1.0000   1.0000   1.0000   1.0000
     1.0000   1.0000   1.0000   1.0000   1.0000   1.0000   1.0000   1.0000
     1.0000   1.0000   1.0000   1.0000   1.0000   1.0000   1.0000   1.0000
     1.0000   1.0000   1.0000   1.0000   1.0000   1.0000   1.0000   1.0000
     1.0000   1.0000   1.0000   1.0000   1.0000   1.0000   1.0000   1.0000
     1.0000   1.0000   1.0000   1.0000   1.0000   1.0000   1.0000   1.0000
     1.0000   1.0000   1.0000   1.0000   1.0000   1.0000   1.0000   1.0000
     1.0000   1.0000   1.0000   1.0000   1.0000   1.0000   1.0000   1.0000
     1.0000   1.0001   1.0001   1.0004   0.6295   0.6271   0.0568   0.0559
     0.0137   0.0074   0.0069   0.0005   0.0005   0.0000   0.0000   0.0000
     0.0000   0.0000   0.0000   0.0000   0.0000   0.0000   0.0000   0.0000
     0.0000   0.0000   0.0000   0.0000   0.0000   0.0000   0.0000   0.0000
     0.0000   0.0000   0.0000   0.0000   0.0000   0.0000   0.0000   0.0000
     0.0000   0.0000   0.0000   0.0000   0.0000   0.0000   0.0000   0.0000
     0.0000   0.0000   0.0000   0.0000   0.0000   0.0000   0.0000   0.0000
     0.0000   0.0000   0.0000   0.0000   0.0000   0.0000   0.0000   0.0000
     0.0000   0.0000   0.0000   0.0000   0.0000   0.0000   0.0000   0.0000
     0.0000   0.0000   0.0000   0.0000   0.0000   0.0000   0.0000   0.0000
     0.0000   0.0000   0.0000   0.0000   0.0000   0.0000   0.0000   0.0000
     0.0000   0.0000   0.0000   0.0000   0.0000   0.0000   0.0000   0.0000
     0.0000   0.0000   0.0000   0.0000   0.0000   0.0000   0.0000   0.0000
     0.0000   0.0000   0.0000   0.0000   0.0000   0.0000   0.0000   0.0000
     0.0000   0.0000   0.0000   0.0000   0.0000   0.0000   0.0000   0.0000
     0.0000   0.0000   0.0000   0.0000   0.0000   0.0000   0.0000   0.0000
     0.0000   0.0000   0.0000   0.0000   0.0000   0.0000   0.0000   0.0000
     0.0000   0.0000

          k = 0.3333 0.1925 0.0000 ( 90604 PWs)   bands (ev):

  -122.8168-122.8160-122.8153-122.8149-122.8144-122.8142-122.8137-122.8132
  -122.8123-122.8117-122.8108-122.8106-122.8103-122.8101-122.8096-122.8094
  -122.7859-122.7801-122.7797-122.7787-122.7782-122.7710-122.7693-122.7687
  -122.7674-122.7662-122.7655-122.7649-122.7645-122.7639-122.7634-122.7628
  -122.6266-122.6216-122.6115-122.6103-122.6100-122.6096-122.6091-122.6086
  -122.6084-122.6080-122.6078-122.6076-122.6073-122.6069-122.6065-122.6062
  -122.6053-122.6036-122.5940-122.5919-122.5901-122.5898-122.5894-122.5882
  -122.5876-122.5870-122.5867-122.5856-122.5851-122.5847-122.5843-122.5841
   -76.9788 -76.9785 -76.9778 -76.9755 -76.9755 -76.9741 -76.9729 -76.9706
   -76.9705 -76.9703 -76.9684 -76.9675 -76.9666 -76.9665 -76.9663 -76.9661
   -76.9657 -76.9654 -76.9648 -76.9643 -76.9637 -76.9636 -76.9634 -76.9630
   -76.9619 -76.9617 -76.9613 -76.9611 -76.9606 -76.9603 -76.9590 -76.9582
   -76.9578 -76.9576 -76.9561 -76.9552 -76.9549 -76.9535 -76.9527 -76.9520
   -76.9514 -76.9509 -76.9497 -76.9484 -76.9477 -76.9460 -76.9454 -76.9442
   -76.9431 -76.9422 -76.9394 -76.9368 -76.9361 -76.9346 -76.9327 -76.9310
   -76.9307 -76.9305 -76.9296 -76.9291 -76.9290 -76.9280 -76.9270 -76.9255
   -76.9235 -76.9220 -76.9214 -76.9211 -76.9202 -76.9197 -76.9196 -76.9187
   -76.9184 -76.9174 -76.9172 -76.9166 -76.9165 -76.9159 -76.9155 -76.9150
   -76.9145 -76.9141 -76.9139 -76.9130 -76.9119 -76.9095 -76.9090 -76.9079
   -76.9077 -76.9066 -76.9045 -76.9039 -76.9027 -76.9015 -76.9003 -76.8992
   -76.7868 -76.7818 -76.7767 -76.7733 -76.7715 -76.7711 -76.7703 -76.7702
   -76.7691 -76.7687 -76.7685 -76.7683 -76.7680 -76.7677 -76.7677 -76.7672
   -76.7671 -76.7666 -76.7665 -76.7664 -76.7663 -76.7662 -76.7659 -76.7655
   -76.7651 -76.7648 -76.7646 -76.7638 -76.7636 -76.7635 -76.7631 -76.7622
   -76.7594 -76.7593 -76.7564 -76.7562 -76.7542 -76.7520 -76.7513 -76.7510
   -76.7506 -76.7505 -76.7504 -76.7501 -76.7500 -76.7496 -76.7493 -76.7485
   -76.7481 -76.7480 -76.7479 -76.7471 -76.7471 -76.7469 -76.7468 -76.7467
   -76.7457 -76.7457 -76.7456 -76.7452 -76.7451 -76.7448 -76.7442 -76.7440
   -76.7439 -76.7438 -76.7435 -76.7434 -76.7430 -76.7422 -76.7415 -76.7410
   -76.7408 -76.7404 -76.7392 -76.7386 -76.7385 -76.7369 -76.7366 -76.7336
   -76.7328 -76.7321 -76.7300 -76.7296 -76.7276 -76.7262 -76.7259 -76.7249
   -76.7243 -76.7236 -76.7220 -76.7215 -76.7202 -76.7189 -76.7178 -76.7169
   -15.5480 -14.0902 -13.2683 -10.8916 -10.8127  -7.9399  -7.6335  -6.2330
    -5.7310  -5.6259  -5.4556  -5.2887  -5.2331  -5.0825  -5.0792  -4.9227
    -4.7892  -4.7266  -4.6235  -4.5826  -4.5780  -4.5780  -4.5672  -4.5339
    -4.5285  -4.5251  -4.5237  -4.5213  -4.5194  -4.4961  -4.4877  -4.4386
    -4.4285  -4.4035  -4.4035  -4.3868  -4.3851  -4.3750  -4.3748  -4.3583
    -4.3497  -4.3287  -4.3283  -4.3152  -4.3147  -4.3108  -4.3099  -4.2883
    -4.2858  -4.2856  -4.2752  -4.2749  -4.2612  -4.2608  -4.2563  -4.2553
    -4.2547  -4.2395  -4.2394  -4.2248  -4.2207  -4.2110  -4.2098  -4.2048
    -4.2046  -4.1895  -4.1875  -4.1867  -4.1852  -4.1844  -4.1711  -4.1699
    -4.1691  -4.1373  -4.1372  -4.1340  -4.1318  -4.1163  -4.1152  -4.1123
    -4.1109  -4.1066  -4.1048  -4.1042  -4.0608  -4.0594  -4.0549  -4.0534
    -4.0493  -4.0329  -4.0299  -4.0286  -4.0280  -4.0169  -4.0167  -4.0080
    -3.9900  -3.9886  -3.9842  -3.9806  -3.9799  -3.9791  -3.9741  -3.9732
    -3.9711  -3.9532  -3.9519  -3.9445  -3.9437  -3.9419  -3.9393  -3.9362
    -3.9356  -3.9346  -3.9330  -3.9236  -3.9229  -3.9132  -3.9119  -3.9102
    -3.8915  -3.8717  -3.8649  -3.8612  -3.8551  -3.8443  -3.8419  -3.8395
    -3.8386  -3.8372  -3.8315  -3.8304  -3.8282  -3.8257  -3.8247  -3.8118
    -3.8015  -3.8012  -3.7960  -3.7956  -3.7768  -3.7757  -3.7634  -3.7588
    -3.7545  -3.7520  -3.7496  -3.7459  -3.7446  -3.7283  -3.7263  -3.7224
    -3.7199  -3.7092  -3.7066  -3.7039  -3.6844  -3.6837  -3.6805  -3.6798
    -3.6780  -3.6693  -3.6668  -3.6576  -3.6566  -3.6552  -3.6530  -3.6519
    -3.6255  -3.6248  -3.6234  -3.6230  -3.6193  -3.6015  -3.6014  -3.5999
    -3.5993  -3.5816  -3.5788  -3.5679  -3.5674  -3.5484  -3.5475  -3.5465
    -3.5459  -3.5457  -3.5410  -3.5404  -3.5383  -3.5364  -3.5344  -3.5276
    -3.5267  -3.5155  -3.5151  -3.5097  -3.5083  -3.5068  -3.5058  -3.4959
    -3.4954  -3.4875  -3.4858  -3.4841  -3.4838  -3.4822  -3.4760  -3.4745
    -3.4676  -3.4621  -3.4620  -3.4505  -3.4483  -3.4448  -3.4437  -3.4426
    -3.4354  -3.4346  -3.4310  -3.4290  -3.4274  -3.4253  -3.4246  -3.4212
    -3.4202  -3.4048  -3.4031  -3.4028  -3.4012  -3.4008  -3.4001  -3.3963
    -3.3953  -3.3941  -3.3850  -3.3683  -3.3676  -3.3666  -3.3639  -3.3623
    -3.3465  -3.3450  -3.3360  -3.3359  -3.3146  -3.3108  -3.3092  -3.3065
    -3.3049  -3.3042  -3.3031  -3.3009  -3.2981  -3.2968  -3.2961  -3.2953
    -3.2876  -3.2876  -3.2837  -3.2812  -3.2805  -3.2779  -3.2779  -3.2747
    -3.2729  -3.2675  -3.2669  -3.2657  -3.2648  -3.2630  -3.2555  -3.2488
    -3.2484  -3.2407  -3.2406  -3.2245  -3.2231  -3.2226  -3.2150  -3.2119
    -3.2114  -3.2112  -3.2105  -3.1893  -3.1848  -3.1820  -3.1808  -3.1796
    -3.1751  -3.1727  -3.1712  -3.1702  -3.1699  -3.1694  -3.1691  -3.1673
    -3.1663  -3.1604  -3.1576  -3.1566  -3.1550  -3.1519  -3.1495  -3.1489
    -3.1429  -3.1417  -3.1400  -3.1357  -3.1290  -3.1286  -3.1261  -3.1246
    -3.1208  -3.1187  -3.1119  -3.0954  -3.0953  -3.0809  -3.0645  -3.0643
    -3.0593  -3.0592  -3.0394  -3.0367  -3.0366  -3.0359  -3.0352  -3.0323
    -3.0209  -3.0205  -3.0156  -3.0075  -2.9666  -2.9664  -2.9094  -2.9094
    -2.8930  -2.8926  -2.8743  -2.8574  -2.7664  -2.7651  -2.7050  -2.5879
    -2.4286  -2.2335  -2.1048  -2.1006  -2.0743  -1.8565  -1.7494  -1.7428
    -1.6107  -1.6079  -1.6003  -0.9225  -0.8333  -0.8268  -0.8073  -0.7309
    -0.6597  -0.6565  -0.5945  -0.3495  -0.1248  -0.1078   0.1354   0.1357
     0.1977   0.1980   0.2395   0.3056   0.5329   0.5953   0.5979   0.6894
     0.6894   1.0314   1.0316   1.1861   1.1871   1.2713   1.4822   1.4855
     1.4938   1.6387   1.7111   2.1355   2.1394   2.2904   2.3627   2.3652
     2.4204   2.4226   2.6468   2.6696   2.6893   2.9756   2.9830   3.0332
     3.0462   3.1048   3.1057   3.1546   3.9683   3.9692   4.2719   4.2739
     4.3812   4.4225   4.4274   4.5733   4.5779   4.8100   4.8104   5.0138
     5.0683   5.1698   5.2122   5.2123   5.6311   5.6343   5.6516   5.6520
     5.7287   5.7366   5.8040   5.8088   5.8113   5.9183   5.9190   6.2249
     6.2734   6.2767   6.3671   6.3674   6.4124   6.6795   6.7504   6.8381
     6.8573   7.0710   7.0721   7.2336   7.2363   7.3022   7.3511   7.3549
     7.3664   7.4175   7.5014   7.5666   7.5682   7.7288   7.8938   7.9074
     7.9709   7.9869   7.9943   8.0012   8.0072   8.0156   8.1391   8.1430
     8.1475   8.1701   8.1711   8.3829   8.5125   8.5399   8.5506   8.5529
     8.6480   8.7571   8.7732   8.7842   8.8456   8.8823   8.9960   9.0429
     9.1867   9.1915   9.2560   9.2647   9.2921   9.2994   9.3827   9.3980
     9.4178   9.4391   9.5784   9.6698   9.6769   9.7087   9.7903   9.7943
     9.8380   9.8882   9.9748  10.0438  10.1124  10.1359  10.1585  10.1792
    10.2412  10.2589  10.2923  10.3042  10.3388  10.4334  10.4547  10.4660
    10.4890  10.5501  10.6568  10.6962  10.7381  10.8018  10.8709  10.8990
    10.9034  10.9758  11.0556  11.0922  11.1138  11.1431  11.1520  11.1566
    11.1738  11.2123  11.2278  11.2680  11.3471  11.3831  11.4518  11.5651
    11.6096  11.7230

     occupation numbers 
     1.0000   1.0000   1.0000   1.0000   1.0000   1.0000   1.0000   1.0000
     1.0000   1.0000   1.0000   1.0000   1.0000   1.0000   1.0000   1.0000
     1.0000   1.0000   1.0000   1.0000   1.0000   1.0000   1.0000   1.0000
     1.0000   1.0000   1.0000   1.0000   1.0000   1.0000   1.0000   1.0000
     1.0000   1.0000   1.0000   1.0000   1.0000   1.0000   1.0000   1.0000
     1.0000   1.0000   1.0000   1.0000   1.0000   1.0000   1.0000   1.0000
     1.0000   1.0000   1.0000   1.0000   1.0000   1.0000   1.0000   1.0000
     1.0000   1.0000   1.0000   1.0000   1.0000   1.0000   1.0000   1.0000
     1.0000   1.0000   1.0000   1.0000   1.0000   1.0000   1.0000   1.0000
     1.0000   1.0000   1.0000   1.0000   1.0000   1.0000   1.0000   1.0000
     1.0000   1.0000   1.0000   1.0000   1.0000   1.0000   1.0000   1.0000
     1.0000   1.0000   1.0000   1.0000   1.0000   1.0000   1.0000   1.0000
     1.0000   1.0000   1.0000   1.0000   1.0000   1.0000   1.0000   1.0000
     1.0000   1.0000   1.0000   1.0000   1.0000   1.0000   1.0000   1.0000
     1.0000   1.0000   1.0000   1.0000   1.0000   1.0000   1.0000   1.0000
     1.0000   1.0000   1.0000   1.0000   1.0000   1.0000   1.0000   1.0000
     1.0000   1.0000   1.0000   1.0000   1.0000   1.0000   1.0000   1.0000
     1.0000   1.0000   1.0000   1.0000   1.0000   1.0000   1.0000   1.0000
     1.0000   1.0000   1.0000   1.0000   1.0000   1.0000   1.0000   1.0000
     1.0000   1.0000   1.0000   1.0000   1.0000   1.0000   1.0000   1.0000
     1.0000   1.0000   1.0000   1.0000   1.0000   1.0000   1.0000   1.0000
     1.0000   1.0000   1.0000   1.0000   1.0000   1.0000   1.0000   1.0000
     1.0000   1.0000   1.0000   1.0000   1.0000   1.0000   1.0000   1.0000
     1.0000   1.0000   1.0000   1.0000   1.0000   1.0000   1.0000   1.0000
     1.0000   1.0000   1.0000   1.0000   1.0000   1.0000   1.0000   1.0000
     1.0000   1.0000   1.0000   1.0000   1.0000   1.0000   1.0000   1.0000
     1.0000   1.0000   1.0000   1.0000   1.0000   1.0000   1.0000   1.0000
     1.0000   1.0000   1.0000   1.0000   1.0000   1.0000   1.0000   1.0000
     1.0000   1.0000   1.0000   1.0000   1.0000   1.0000   1.0000   1.0000
     1.0000   1.0000   1.0000   1.0000   1.0000   1.0000   1.0000   1.0000
     1.0000   1.0000   1.0000   1.0000   1.0000   1.0000   1.0000   1.0000
     1.0000   1.0000   1.0000   1.0000   1.0000   1.0000   1.0000   1.0000
     1.0000   1.0000   1.0000   1.0000   1.0000   1.0000   1.0000   1.0000
     1.0000   1.0000   1.0000   1.0000   1.0000   1.0000   1.0000   1.0000
     1.0000   1.0000   1.0000   1.0000   1.0000   1.0000   1.0000   1.0000
     1.0000   1.0000   1.0000   1.0000   1.0000   1.0000   1.0000   1.0000
     1.0000   1.0000   1.0000   1.0000   1.0000   1.0000   1.0000   1.0000
     1.0000   1.0000   1.0000   1.0000   1.0000   1.0000   1.0000   1.0000
     1.0000   1.0000   1.0000   1.0000   1.0000   1.0000   1.0000   1.0000
     1.0000   1.0000   1.0000   1.0000   1.0000   1.0000   1.0000   1.0000
     1.0000   1.0000   1.0000   1.0000   1.0000   1.0000   1.0000   1.0000
     1.0000   1.0000   1.0000   1.0000   1.0000   1.0000   1.0000   1.0000
     1.0000   1.0000   1.0000   1.0000   1.0000   1.0000   1.0000   1.0000
     1.0000   1.0000   1.0000   1.0000   1.0000   1.0000   1.0000   1.0000
     1.0000   1.0000   1.0000   1.0000   1.0000   1.0000   1.0000   1.0000
     1.0000   1.0000   1.0000   1.0000   1.0000   1.0000   1.0000   1.0000
     1.0000   1.0000   1.0000   1.0000   1.0000   1.0000   1.0000   1.0000
     1.0000   1.0000   1.0000   1.0000   1.0000   1.0000   1.0000   1.0000
     1.0000   1.0000   1.0000   1.0000   1.0000   1.0000   1.0000   1.0000
     1.0000   1.0000   1.0000   1.0000   1.0000   1.0000   1.0000   1.0000
     1.0000   1.0000   1.0000   1.0000   1.0000   1.0000   1.0000   1.0000
     1.0000   1.0000   1.0000   1.0000   1.0000   1.0000   1.0000   1.0000
     1.0000   1.0000   1.0000   1.0000   1.0000   1.0000   1.0000   1.0000
     1.0000   1.0000   1.0000   1.0000   1.0000   1.0000   1.0000   1.0000
     1.0000   1.0000   1.0000   1.0000   1.0000   1.0000   1.0000   1.0000
     1.0000   1.0000   1.0000   1.0000   1.0000   1.0000   1.0000   1.0000
     1.0000   1.0000   1.0000   1.0000   1.0000   1.0000   1.0000   1.0000
     1.0000   1.0000   1.0000   1.0000   1.0000   1.0000   1.0000   1.0000
     1.0000   1.0000   1.0000   1.0000   1.0000   1.0000   1.0000   1.0000
     1.0000   1.0000   1.0000   1.0000   1.0000   1.0000   1.0000   1.0000
     1.0000   1.0000   1.0000   1.0000   1.0000   1.0000   1.0000   1.0000
     1.0000   1.0000   1.0000   1.0000   1.0000   1.0000   1.0000   1.0000
     1.0000   1.0000   1.0000   1.0000   1.0000   1.0000   1.0000   1.0000
     1.0000   1.0000   1.0000   1.0000   1.0000   1.0000   1.0000   1.0000
     1.0000   1.0000   1.0000   1.0000   1.0000   1.0000   1.0000   1.0000
     1.0000   1.0000   1.0000   1.0000   1.0000   1.0000   1.0000   1.0000
     1.0000   1.0000   1.0000   1.0000   1.0000   1.0000   1.0000   1.0000
     1.0000   1.0000   1.0000   1.0000   1.0000   1.0000   1.0000   1.0000
     1.0000   1.0000   1.0000   1.0000   1.0000   1.0000   1.0000   1.0000
     1.0000   1.0000   1.0000   1.0000   1.0000   1.0000   1.0000   1.0000
     1.0000   1.0000   1.0000   1.0000   1.0000   1.0000   1.0000   1.0000
     1.0000   1.0000   1.0000   1.0000   1.0000   1.0000   1.0000   1.0000
     1.0000   1.0000   1.0000   1.0000   1.0000   1.0000   1.0000   1.0000
     1.0000   1.0000   1.0000   1.0000   1.0000   1.0000   1.0000   1.0000
     1.0000   1.0000   1.0000   1.0000   1.0000   1.0000   1.0000   1.0000
     1.0000   1.0000   1.0000   1.0000   1.0000   1.0000   1.0000   1.0000
     1.0000   1.0000   1.0000   1.0000   1.0000   1.0000   1.0000   1.0000
     1.0000   1.0000   1.0000   1.0000   1.0000   1.0000   1.0000   1.0000
[...]
     atom   78 type  4   force =     0.00000000    0.00000000    0.00000000
     atom   79 type  4   force =     0.00000000    0.00000000    0.00000000
     The Hubbard contrib.    to forces
     atom    1 type  1   force =     0.00000000    0.00000000    0.00000000
     atom    2 type  1   force =     0.00000000    0.00000000    0.00000000
     atom    3 type  1   force =     0.00000000    0.00000000    0.00000000
     atom    4 type  1   force =     0.00000000    0.00000000    0.00000000
     atom    5 type  1   force =     0.00000000    0.00000000    0.00000000
     atom    6 type  1   force =     0.00000000    0.00000000    0.00000000
     atom    7 type  1   force =     0.00000000    0.00000000    0.00000000
     atom    8 type  1   force =     0.00000000    0.00000000    0.00000000
     atom    9 type  1   force =     0.00000000    0.00000000    0.00000000
     atom   10 type  1   force =     0.00000000    0.00000000    0.00000000
     atom   11 type  1   force =     0.00000000    0.00000000    0.00000000
     atom   12 type  1   force =     0.00000000    0.00000000    0.00000000
     atom   13 type  1   force =     0.00000000    0.00000000    0.00000000
     atom   14 type  1   force =     0.00000000    0.00000000    0.00000000
     atom   15 type  1   force =     0.00000000    0.00000000    0.00000000
     atom   16 type  1   force =     0.00000000    0.00000000    0.00000000
     atom   17 type  1   force =     0.00000000    0.00000000    0.00000000
     atom   18 type  1   force =     0.00000000    0.00000000    0.00000000
     atom   19 type  1   force =     0.00000000    0.00000000    0.00000000
     atom   20 type  1   force =     0.00000000    0.00000000    0.00000000
     atom   21 type  1   force =     0.00000000    0.00000000    0.00000000
     atom   22 type  1   force =     0.00000000    0.00000000    0.00000000
     atom   23 type  1   force =     0.00000000    0.00000000    0.00000000
     atom   24 type  1   force =     0.00000000    0.00000000    0.00000000
     atom   25 type  1   force =     0.00000000    0.00000000    0.00000000
     atom   26 type  1   force =     0.00000000    0.00000000    0.00000000
     atom   27 type  1   force =     0.00000000    0.00000000    0.00000000
     atom   28 type  1   force =     0.00000000    0.00000000    0.00000000
     atom   29 type  1   force =     0.00000000    0.00000000    0.00000000
     atom   30 type  1   force =     0.00000000    0.00000000    0.00000000
     atom   31 type  1   force =     0.00000000    0.00000000    0.00000000
     atom   32 type  1   force =     0.00000000    0.00000000    0.00000000
     atom   33 type  1   force =     0.00000000    0.00000000    0.00000000
     atom   34 type  1   force =     0.00000000    0.00000000    0.00000000
     atom   35 type  1   force =     0.00000000    0.00000000    0.00000000
     atom   36 type  1   force =     0.00000000    0.00000000    0.00000000
     atom   37 type  1   force =     0.00000000    0.00000000    0.00000000
     atom   38 type  1   force =     0.00000000    0.00000000    0.00000000
     atom   39 type  1   force =     0.00000000    0.00000000    0.00000000
     atom   40 type  1   force =     0.00000000    0.00000000    0.00000000
     atom   41 type  1   force =     0.00000000    0.00000000    0.00000000
     atom   42 type  1   force =     0.00000000    0.00000000    0.00000000
     atom   43 type  1   force =     0.00000000    0.00000000    0.00000000
     atom   44 type  1   force =     0.00000000    0.00000000    0.00000000
     atom   45 type  1   force =     0.00000000    0.00000000    0.00000000
     atom   46 type  1   force =     0.00000000    0.00000000    0.00000000
     atom   47 type  1   force =     0.00000000    0.00000000    0.00000000
     atom   48 type  1   force =     0.00000000    0.00000000    0.00000000
     atom   49 type  1   force =     0.00000000    0.00000000    0.00000000
     atom   50 type  1   force =     0.00000000    0.00000000    0.00000000
     atom   51 type  1   force =     0.00000000    0.00000000    0.00000000
     atom   52 type  1   force =     0.00000000    0.00000000    0.00000000
     atom   53 type  1   force =     0.00000000    0.00000000    0.00000000
     atom   54 type  1   force =     0.00000000    0.00000000    0.00000000
     atom   55 type  1   force =     0.00000000    0.00000000    0.00000000
     atom   56 type  1   force =     0.00000000    0.00000000    0.00000000
     atom   57 type  1   force =     0.00000000    0.00000000    0.00000000
     atom   58 type  1   force =     0.00000000    0.00000000    0.00000000
     atom   59 type  1   force =     0.00000000    0.00000000    0.00000000
     atom   60 type  1   force =     0.00000000    0.00000000    0.00000000
     atom   61 type  1   force =     0.00000000    0.00000000    0.00000000
     atom   62 type  1   force =     0.00000000    0.00000000    0.00000000
     atom   63 type  1   force =     0.00000000    0.00000000    0.00000000
     atom   64 type  1   force =     0.00000000    0.00000000    0.00000000
     atom   65 type  2   force =     0.00000000    0.00000000    0.00000000
     atom   66 type  2   force =     0.00000000    0.00000000    0.00000000
     atom   67 type  2   force =     0.00000000    0.00000000    0.00000000
     atom   68 type  2   force =     0.00000000    0.00000000    0.00000000
     atom   69 type  2   force =     0.00000000    0.00000000    0.00000000
     atom   70 type  2   force =     0.00000000    0.00000000    0.00000000
     atom   71 type  2   force =     0.00000000    0.00000000    0.00000000
     atom   72 type  3   force =     0.00000000    0.00000000    0.00000000
     atom   73 type  3   force =     0.00000000    0.00000000    0.00000000
     atom   74 type  4   force =     0.00000000    0.00000000    0.00000000
     atom   75 type  4   force =     0.00000000    0.00000000    0.00000000
     atom   76 type  4   force =     0.00000000    0.00000000    0.00000000
     atom   77 type  4   force =     0.00000000    0.00000000    0.00000000
     atom   78 type  4   force =     0.00000000    0.00000000    0.00000000
     atom   79 type  4   force =     0.00000000    0.00000000    0.00000000
     The SCF correction term to forces
     atom    1 type  1   force =    -0.00032764   -0.00029955    0.00055491
     atom    2 type  1   force =     0.00032877   -0.00056389    0.00030348
     atom    3 type  1   force =    -0.00068003   -0.00048491   -0.00022172
     atom    4 type  1   force =     0.00068481   -0.00101297   -0.00007608
     atom    5 type  1   force =    -0.00022075   -0.00011210    0.00053080
     atom    6 type  1   force =     0.00020807   -0.00024740   -0.00025982
     atom    7 type  1   force =    -0.00045704   -0.00020294   -0.00013760
     atom    8 type  1   force =     0.00043667   -0.00045675   -0.00002469
     atom    9 type  1   force =     0.00023088    0.00023201    0.00057337
     atom   10 type  1   force =    -0.00023423    0.00061025   -0.00009474
     atom   11 type  1   force =     0.00045520    0.00035400   -0.00016309
     atom   12 type  1   force =    -0.00043920    0.00110680   -0.00006247
     atom   13 type  1   force =     0.00011394    0.00006136    0.00059144
     atom   14 type  1   force =    -0.00012070    0.00031064    0.00047547
     atom   15 type  1   force =     0.00023038    0.00007191   -0.00023189
     atom   16 type  1   force =    -0.00023738    0.00061020   -0.00011192
     atom   17 type  1   force =    -0.00025339   -0.00076602    0.00022180
     atom   18 type  1   force =     0.00024901   -0.00009110    0.00063315
     atom   19 type  1   force =    -0.00037150   -0.00134173   -0.00014545
     atom   20 type  1   force =     0.00036087   -0.00012791   -0.00015071
     atom   21 type  1   force =    -0.00069704   -0.00025942   -0.00000756
     atom   22 type  1   force =     0.00069818   -0.00010196    0.00026821
     atom   23 type  1   force =    -0.00125568   -0.00042194   -0.00009573
     atom   24 type  1   force =     0.00129016   -0.00025286   -0.00007126
     atom   25 type  1   force =    -0.00057469    0.00027672    0.00037580
     atom   26 type  1   force =     0.00058782    0.00057468    0.00009950
     atom   27 type  1   force =    -0.00107400    0.00053236   -0.00010582
     atom   28 type  1   force =     0.00104599    0.00094520   -0.00010453
     atom   29 type  1   force =    -0.00013397   -0.00021561    0.00060384
     atom   30 type  1   force =     0.00014234    0.00059143    0.00047028
     atom   31 type  1   force =    -0.00015023   -0.00040337   -0.00017018
     atom   32 type  1   force =     0.00015518    0.00108533   -0.00018959
     atom   33 type  1   force =    -0.00039854   -0.00067875   -0.00015312
     atom   34 type  1   force =     0.00039674   -0.00019388   -0.00008808
     atom   35 type  1   force =    -0.00027834   -0.00047781   -0.00051798
     atom   36 type  1   force =     0.00027228   -0.00011497   -0.00052052
     atom   37 type  1   force =    -0.00096266   -0.00052892   -0.00019005
     atom   38 type  1   force =     0.00095545   -0.00068494   -0.00034894
     atom   39 type  1   force =    -0.00078342   -0.00032142   -0.00040175
     atom   40 type  1   force =     0.00081632   -0.00056057   -0.00004786
     atom   41 type  1   force =    -0.00041979    0.00020573   -0.00009945
     atom   42 type  1   force =     0.00040676    0.00065377   -0.00049505
     atom   43 type  1   force =    -0.00030775    0.00012950   -0.00053633
     atom   44 type  1   force =     0.00033829    0.00050035    0.00018564
     atom   45 type  1   force =     0.00013407    0.00005029   -0.00005776
     atom   46 type  1   force =    -0.00014374    0.00118964   -0.00023651
     atom   47 type  1   force =     0.00017951   -0.00001844   -0.00066072
     atom   48 type  1   force =    -0.00019008    0.00089077   -0.00030184
     atom   49 type  1   force =     0.00001654   -0.00107874   -0.00018662
     atom   50 type  1   force =    -0.00001550    0.00017941   -0.00005318
     atom   51 type  1   force =     0.00013703   -0.00078072   -0.00040076
     atom   52 type  1   force =    -0.00013249    0.00017820   -0.00064628
     atom   53 type  1   force =    -0.00052046   -0.00090255   -0.00045717
     atom   54 type  1   force =     0.00051454   -0.00028901   -0.00008477
     atom   55 type  1   force =    -0.00036012   -0.00068904    0.00010084
     atom   56 type  1   force =     0.00032369   -0.00021376   -0.00053378
     atom   57 type  1   force =    -0.00107238    0.00043772   -0.00038111
     atom   58 type  1   force =     0.00111403    0.00044012   -0.00022132
     atom   59 type  1   force =    -0.00086915    0.00039290   -0.00003490
     atom   60 type  1   force =     0.00083801    0.00022110   -0.00032860
     atom   61 type  1   force =    -0.00053778    0.00030392   -0.00010236
     atom   62 type  1   force =     0.00054973    0.00091786   -0.00019024
     atom   63 type  1   force =    -0.00035597    0.00023770   -0.00052484
     atom   64 type  1   force =     0.00036692    0.00062234   -0.00043412
     atom   65 type  2   force =     0.00000231    0.00000003    0.00008728
     atom   66 type  2   force =    -0.00000234    0.00000109   -0.00006271
     atom   67 type  2   force =    -0.00004674   -0.00006370   -0.00011126
     atom   68 type  2   force =     0.00003782    0.00006613   -0.00011378
     atom   69 type  2   force =    -0.00001523   -0.00002064   -0.00003606
     atom   70 type  2   force =     0.00001216    0.00002150   -0.00003767
     atom   71 type  2   force =     0.00000319   -0.00000121    0.00008579
     atom   72 type  3   force =     0.00000263    0.00000032    0.00009231
     atom   73 type  3   force =     0.00000387   -0.00000214    0.00017363
     atom   74 type  4   force =     0.00001012    0.00001576    0.00001682
     atom   75 type  4   force =    -0.00001058   -0.00001590    0.00001651
     atom   76 type  4   force =    -0.00000673   -0.00000970   -0.00000776
     atom   77 type  4   force =     0.00000590    0.00000975   -0.00000819
     atom   78 type  4   force =    -0.00000614   -0.00000981    0.00000836
     atom   79 type  4   force =     0.00000647    0.00000960    0.00000763

     Total force =     0.051153     Total SCF correction =     0.006882
     SCF correction compared to forces is large: reduce conv_thr to get better values


     Computing stress (Cartesian axis) and pressure


     negative rho (up, down):  3.947E-03 0.000E+00
          total   stress  (Ry/bohr**3)                   (kbar)     P=       -1.94
  -0.00001443  -0.00000225  -0.00000039           -2.12       -0.33       -0.06
  -0.00000225  -0.00001625  -0.00000016           -0.33       -2.39       -0.02
  -0.00000039  -0.00000016  -0.00000889           -0.06       -0.02       -1.31

     kinetic stress (kbar)  17164.63    -31.51     -2.88
                              -31.51  17136.86      1.34
                               -2.88      1.34  17185.33

     local   stress (kbar)**********   -842.08   -106.96
                             -842.08**********     42.97
                             -106.96     42.971454743.21

     nonloc. stress (kbar)  -1610.16      2.13      0.28
                                2.13  -1608.29     -0.10
                                0.28     -0.10  -1666.33

     hartree stress (kbar) 756067.74    317.96     42.06
                              317.96 756349.83    -16.59
                               42.06    -16.59-680448.11

     exc-cor stress (kbar)  -8423.04      1.52      0.15
                                1.52  -8421.70     -0.07
                                0.15     -0.07  -8430.48

     corecor stress (kbar)    -82.92     -0.45     -0.04
                               -0.45    -83.31      0.02
                               -0.04      0.02    -84.05

     ewald   stress (kbar) 675560.58    552.10     67.34
                              552.10 676049.51    -27.60
                               67.34    -27.60-781300.88

     hubbard stress (kbar)      0.00      0.00      0.00
                                0.00      0.00      0.00
                                0.00      0.00      0.00

     DFT-D   stress (kbar)      0.00      0.00      0.00
                                0.00      0.00      0.00
                                0.00      0.00      0.00

     XDM     stress (kbar)      0.00      0.00      0.00
                                0.00      0.00      0.00
                                0.00      0.00      0.00

     dft-nl  stress (kbar)      0.00      0.00      0.00
                                0.00      0.00      0.00
                                0.00      0.00      0.00

     TS-vdW  stress (kbar)      0.00      0.00      0.00
                                0.00      0.00      0.00
                                0.00      0.00      0.00

     MDB     stress (kbar)      0.00      0.00      0.00
                                0.00      0.00      0.00
                                0.00      0.00      0.00

     3D-RISM stress (kbar)      0.00      0.00      0.00
                                0.00      0.00      0.00
                                0.00      0.00      0.00


     Writing all to output data dir ./tmp/Zn002_4x4x2_primitive_14Avacumn_bridgesite_upright_parallel_ABN.save/ :
     XML data file, charge density, pseudopotentials, collected wavefunctions

     init_run     :    156.54s CPU    158.12s WALL (       1 calls)
     electrons    :  13134.37s CPU  13269.28s WALL (       1 calls)
     forces       :    127.37s CPU    127.93s WALL (       1 calls)
     stress       :    363.17s CPU    364.40s WALL (       1 calls)

     Called by init_run:
     wfcinit      :    155.49s CPU    157.01s WALL (       1 calls)
     wfcinit:atom :      0.09s CPU      0.13s WALL (       5 calls)
     wfcinit:wfcr :    154.33s CPU    155.75s WALL (       5 calls)
     potinit      :      0.11s CPU      0.12s WALL (       1 calls)
     hinit0       :      0.07s CPU      0.07s WALL (       1 calls)

     Called by electrons:
     c_bands      :  12349.01s CPU  12471.69s WALL (      22 calls)
     sum_band     :    767.62s CPU    779.37s WALL (      22 calls)
     v_of_rho     :      0.89s CPU      0.94s WALL (      22 calls)
     v_h          :      0.05s CPU      0.06s WALL (      22 calls)
     v_xc         :      0.91s CPU      0.96s WALL (      24 calls)
     newd         :     15.92s CPU     16.29s WALL (      22 calls)
     PAW_pot      :      1.46s CPU      1.46s WALL (      22 calls)
     mix_rho      :      0.23s CPU      0.23s WALL (      22 calls)

     Called by c_bands:
     init_us_2    :      8.47s CPU      8.50s WALL (     235 calls)
     cegterg      :  12331.68s CPU  12454.23s WALL (     110 calls)

     Called by sum_band:
     sum_band:wei :      0.09s CPU      0.09s WALL (      22 calls)
     sum_band:loo :    752.65s CPU    764.05s WALL (      22 calls)
     sum_band:buf :      1.80s CPU      1.81s WALL (     110 calls)
     sum_band:ini :      4.00s CPU      4.01s WALL (     110 calls)
     sum_band:cal :    677.73s CPU    680.42s WALL (     110 calls)
     sum_band:bec :      4.25s CPU      4.26s WALL (     110 calls)
     addusdens    :     14.60s CPU     14.94s WALL (      22 calls)
                                        0.00s GPU  (      22 calls)
     addusd:skk   :      0.18s CPU      0.18s WALL (      88 calls)
                                        0.00s GPU  (      88 calls)

     Called by *egterg:
     cdiaghg      :    857.21s CPU    893.59s WALL (     860 calls)
     cegterg:over :   1842.64s CPU   1848.80s WALL (     755 calls)
     cegterg:upda :   1039.37s CPU   1043.90s WALL (     755 calls)
     cegterg:last :   3165.18s CPU   3178.67s WALL (     236 calls)
     cdiaghg:chol :     55.16s CPU     55.31s WALL (     860 calls)
     cdiaghg:inve :      9.13s CPU      9.16s WALL (     860 calls)
     cdiaghg:para :    259.44s CPU    263.45s WALL (    1720 calls)
     h_psi        :   3481.15s CPU   3535.92s WALL (     870 calls)
     s_psi        :   1535.69s CPU   1539.41s WALL (     870 calls)
     g_psi        :      1.17s CPU      1.17s WALL (     755 calls)

     Called by h_psi:
     h_psi:calbec :   1627.61s CPU   1634.28s WALL (     870 calls)
     vloc_psi     :    307.97s CPU    350.48s WALL (     870 calls)
     add_vuspsi   :   1542.39s CPU   1546.21s WALL (     870 calls)

     General routines
     calbec       :   2461.79s CPU   2471.77s WALL (    1005 calls)
     fft          :      0.51s CPU      0.59s WALL (     268 calls)
     ffts         :      0.04s CPU      0.04s WALL (      22 calls)
     fftw         :    344.42s CPU    392.31s WALL (  506630 calls)

     Parallel routines

     PAW routines
     PAW_pot      :      1.46s CPU      1.46s WALL (      22 calls)

     PWSCF        :      3h49m CPU      3h52m WALL


   This run was terminated on:   6: 4:57  22Mar2025            

=------------------------------------------------------------------------------=
   JOB DONE.
=------------------------------------------------------------------------------=
Note: The following floating-point exceptions are signalling: IEEE_DENORMAL
Note: The following floating-point exceptions are signalling: IEEE_DENORMAL
Note: The following floating-point exceptions are signalling: IEEE_DENORMAL
Note: The following floating-point exceptions are signalling: IEEE_DENORMAL
Note: The following floating-point exceptions are signalling: IEEE_DENORMAL
Note: The following floating-point exceptions are signalling: IEEE_DENORMAL
Note: The following floating-point exceptions are signalling: IEEE_DENORMAL
Note: The following floating-point exceptions are signalling: IEEE_DENORMAL
Note: The following floating-point exceptions are signalling: IEEE_DENORMAL
Note: The following floating-point exceptions are signalling: IEEE_DENORMAL
Note: The following floating-point exceptions are signalling: IEEE_DENORMAL
