--------------------------------------------------------------------------
By default, for Open MPI 4.0 and later, infiniband ports on a device
are not used by default.  The intent is to use UCX for these devices.
You can override this policy by setting the btl_openib_allow_ib MCA parameter
to true.

  Local host:              psid04
  Local adapter:           mlx5_0
  Local port:              1

--------------------------------------------------------------------------
--------------------------------------------------------------------------
WARNING: There was an error initializing an OpenFabrics device.

  Local host:   psid04
  Local device: mlx5_0
--------------------------------------------------------------------------

     Program PWSCF v.7.3.1 starts on 21Mar2025 at 23:31:58 

     This program is part of the open-source Quantum ESPRESSO suite
     for quantum simulation of materials; please cite
         "P. Giannozzi et al., J. Phys.:Condens. Matter 21 395502 (2009);
         "P. Giannozzi et al., J. Phys.:Condens. Matter 29 465901 (2017);
         "P. Giannozzi et al., J. Chem. Phys. 152 154105 (2020);
          URL http://www.quantum-espresso.org", 
     in publications or presentations arising from this work. More details at
     http://www.quantum-espresso.org/quote

     Parallel version (MPI), running on    32 processors

     MPI processes distributed on     1 nodes
     107305 MiB available memory on the printing compute node when the environment starts

     Waiting for input...
     Reading input from standard input
Warning: card &CELL ignored
Warning: card   CELL_DOFREE = 'ALL' ignored
Warning: card / ignored

     Current dimensions of program PWSCF are:
     Max number of different atomic species (ntypx) = 10
     Max number of k-points (npk) =  40000
     Max angular momentum in pseudopotentials (lmaxx) =  4
     file C.pbe-n-kjpaw_psl.1.0.0.UPF: wavefunction(s)  2S 2P renormalized

     R & G space division:  proc/nbgrp/npool/nimage =      32
     Subspace diagonalization in iterative solution of the eigenvalue problem:
     one sub-group per band group will be used
     custom distributed-memory algorithm (size of sub-group:  5*  5 procs)


     Parallelization info
     --------------------
     sticks:   dense  smooth     PW     G-vecs:    dense   smooth      PW
     Min         168     168     44                22650    22650    3088
     Max         169     169     45                22663    22663    3101
     Sum        5389    5389   1417               724931   724931   99009

     Using Slab Decomposition



     bravais-lattice index     =            0
     lattice parameter (alat)  =      19.7617  a.u.
     unit-cell volume          =   15176.5939 (a.u.)^3
     number of atoms/cell      =           79
     number of atomic types    =            4
     number of electrons       =      1324.00
     number of Kohn-Sham states=          794
     kinetic-energy cutoff     =      50.0000  Ry
     charge density cutoff     =     200.0000  Ry
     scf convergence threshold =      7.3E-07
     mixing beta               =       0.7000
     number of iterations used =            8  plain     mixing
     Exchange-correlation= PBE
                           (   1   4   3   4   0   0   0)

     celldm(1)=  19.761696  celldm(2)=   0.000000  celldm(3)=   0.000000
     celldm(4)=   0.000000  celldm(5)=   0.000000  celldm(6)=   0.000000

     crystal axes: (cart. coord. in units of alat)
               a(1) = (   1.000000   0.000000   0.000000 )  
               a(2) = (  -0.500000   0.866025   0.000000 )  
               a(3) = (   0.000000   0.000000   2.270759 )  

     reciprocal axes: (cart. coord. in units 2 pi/alat)
               b(1) = (  1.000000  0.577350 -0.000000 )  
               b(2) = (  0.000000  1.154701  0.000000 )  
               b(3) = (  0.000000 -0.000000  0.440381 )  


     PseudoPot. # 1 for Zn read from file:
     /home/ys/qepseudo/SSSP_1.3.0_PBE_efficiency/Zn_pbe_v1.uspp.F.UPF
     MD5 check sum: df62231357ef9e81f77b2b3087fa5675
     Pseudo is Ultrasoft, Zval = 20.0
     Generated by new atomic code, or converted to UPF format
     Using radial grid of  943 points,  6 beta functions with: 
                l(1) =   0
                l(2) =   0
                l(3) =   1
                l(4) =   1
                l(5) =   2
                l(6) =   2
     Q(r) pseudized with  8 coefficients,  rinner =    1.100   1.100   1.100
                                                       1.100   1.100

     PseudoPot. # 2 for C  read from file:
     /home/ys/qepseudo/SSSP_1.3.0_PBE_efficiency/C.pbe-n-kjpaw_psl.1.0.0.UPF
     MD5 check sum: 5d2aebdfa2cae82b50a7e79e9516da0f
     Pseudo is Projector augmented-wave + core cor, Zval =  4.0
     Generated using "atomic" code by A. Dal Corso  v.5.1
     Shape of augmentation charge: PSQ
     Using radial grid of 1073 points,  4 beta functions with: 
                l(1) =   0
                l(2) =   0
                l(3) =   1
                l(4) =   1
     Q(r) pseudized with 0 coefficients 


     PseudoPot. # 3 for N  read from file:
     /home/ys/qepseudo/SSSP_1.3.0_PBE_efficiency/N.pbe-n-radius_5.UPF
     MD5 check sum: 16739722b17309cd8fe442a2ace49922
     Pseudo is Ultrasoft + core correction, Zval =  5.0
     Generated using "atomic" code by A. Dal Corso  v.5.1
     Using radial grid of 1085 points,  4 beta functions with: 
                l(1) =   0
                l(2) =   0
                l(3) =   1
                l(4) =   1
     Q(r) pseudized with 0 coefficients 


     PseudoPot. # 4 for H  read from file:
     /home/ys/qepseudo/SSSP_1.3.0_PBE_efficiency/H.pbe-rrkjus_psl.1.0.0.UPF
     MD5 check sum: f52b6d4d1c606e5624b1dc7b2218f220
     Pseudo is Ultrasoft, Zval =  1.0
     Generated using "atomic" code by A. Dal Corso  v.5.1
     Using radial grid of  929 points,  2 beta functions with: 
                l(1) =   0
                l(2) =   0
     Q(r) pseudized with 0 coefficients 


     atomic species   valence    mass     pseudopotential
     Zn               20.00    65.38000     Zn( 1.00)
     C                 4.00    12.01070     C ( 1.00)
     N                 5.00    14.00670     N ( 1.00)
     H                 1.00     1.00800     H ( 1.00)

     No symmetry found


                                    s                        frac. trans.

      isym =  1     identity                                     

 cryst.   s( 1) = (     1          0          0      )
                  (     0          1          0      )
                  (     0          0          1      )

 cart.    s( 1) = (  1.0000000  0.0000000  0.0000000 )
                  (  0.0000000  1.0000000  0.0000000 )
                  (  0.0000000  0.0000000  1.0000000 )


   Cartesian axes

     site n.     atom                  positions (alat units)
         1        Zn     tau(   1) = (  -0.0000000   0.1443376   0.1164999  )
         2        Zn     tau(   2) = (   0.5000000   0.1443376   0.1164999  )
         3        Zn     tau(   3) = (   0.0001063   0.1443772   0.5902127  )
         4        Zn     tau(   4) = (   0.4998958   0.1443643   0.5917156  )
         5        Zn     tau(   5) = (  -0.1250000   0.3608439   0.1164999  )
         6        Zn     tau(   6) = (   0.3750000   0.3608439   0.1164999  )
         7        Zn     tau(   7) = (  -0.1249761   0.3609302   0.5908726  )
         8        Zn     tau(   8) = (   0.3749642   0.3608477   0.5913644  )
         9        Zn     tau(   9) = (  -0.2500000   0.5773503   0.1164999  )
        10        Zn     tau(  10) = (   0.2500000   0.5773503   0.1164999  )
        11        Zn     tau(  11) = (  -0.2499911   0.5773738   0.5915504  )
        12        Zn     tau(  12) = (   0.2499824   0.5772583   0.5907382  )
        13        Zn     tau(  13) = (  -0.3750000   0.7938566   0.1164999  )
        14        Zn     tau(  14) = (   0.1250000   0.7938566   0.1164999  )
        15        Zn     tau(  15) = (  -0.3749161   0.7938269   0.5909604  )
        16        Zn     tau(  16) = (   0.1249053   0.7937898   0.5911170  )
        17        Zn     tau(  17) = (   0.2500000   0.1443376   0.1164999  )
        18        Zn     tau(  18) = (   0.7500000   0.1443376   0.1164999  )
        19        Zn     tau(  19) = (   0.2499566   0.1443139   0.5910485  )
        20        Zn     tau(  20) = (   0.7500401   0.1444360   0.5909256  )
        21        Zn     tau(  21) = (   0.1250000   0.3608439   0.1164999  )
        22        Zn     tau(  22) = (   0.6250000   0.3608439   0.1164999  )
        23        Zn     tau(  23) = (   0.1249684   0.3608327   0.5904686  )
        24        Zn     tau(  24) = (   0.6250220   0.3609386   0.5917101  )
        25        Zn     tau(  25) = (  -0.0000000   0.5773503   0.1164999  )
        26        Zn     tau(  26) = (   0.5000000   0.5773503   0.1164999  )
        27        Zn     tau(  27) = (  -0.0000983   0.5773031   0.5910657  )
        28        Zn     tau(  28) = (   0.5000885   0.5773473   0.5912976  )
        29        Zn     tau(  29) = (  -0.1250000   0.7938566   0.1164999  )
        30        Zn     tau(  30) = (   0.3750000   0.7938566   0.1164999  )
        31        Zn     tau(  31) = (  -0.1251014   0.7937984   0.5915674  )
        32        Zn     tau(  32) = (   0.3751324   0.7938157   0.5904624  )
        33        Zn     tau(  33) = (   0.1250000   0.0721688   0.3494996  )
        34        Zn     tau(  34) = (   0.6250000   0.0721688   0.3494996  )
        35        Zn     tau(  35) = (   0.1247726   0.0722058   0.8326360  )
        36        Zn     tau(  36) = (   0.6249486   0.0720367   0.8314330  )
        37        Zn     tau(  37) = (   0.0000000   0.2886751   0.3494996  )
        38        Zn     tau(  38) = (   0.5000000   0.2886751   0.3494996  )
        39        Zn     tau(  39) = (  -0.0001344   0.2886941   0.8326071  )
        40        Zn     tau(  40) = (   0.4993101   0.2889503   0.8277979  )
        41        Zn     tau(  41) = (  -0.1250000   0.5051815   0.3494996  )
        42        Zn     tau(  42) = (   0.3750000   0.5051815   0.3494996  )
        43        Zn     tau(  43) = (  -0.1249856   0.5051881   0.8329768  )
        44        Zn     tau(  44) = (   0.3745313   0.5054640   0.8331083  )
        45        Zn     tau(  45) = (  -0.2500000   0.7216878   0.3494996  )
        46        Zn     tau(  46) = (   0.2500000   0.7216878   0.3494996  )
        47        Zn     tau(  47) = (  -0.2500562   0.7216506   0.8329736  )
        48        Zn     tau(  48) = (   0.2499250   0.7217568   0.8325864  )
        49        Zn     tau(  49) = (   0.3750000   0.0721688   0.3494996  )
        50        Zn     tau(  50) = (   0.8750000   0.0721688   0.3494996  )
        51        Zn     tau(  51) = (   0.3746129   0.0720490   0.8311766  )
        52        Zn     tau(  52) = (   0.8749386   0.0722070   0.8322939  )
        53        Zn     tau(  53) = (   0.2500000   0.2886751   0.3494996  )
        54        Zn     tau(  54) = (   0.7500000   0.2886751   0.3494996  )
        55        Zn     tau(  55) = (   0.2494714   0.2888563   0.8328535  )
        56        Zn     tau(  56) = (   0.7500128   0.2887020   0.8317569  )
        57        Zn     tau(  57) = (   0.1250000   0.5051815   0.3494996  )
        58        Zn     tau(  58) = (   0.6250000   0.5051815   0.3494996  )
        59        Zn     tau(  59) = (   0.1248458   0.5052233   0.8329632  )
        60        Zn     tau(  60) = (   0.6248341   0.5054540   0.8318387  )
        61        Zn     tau(  61) = (   0.0000000   0.7216878   0.3494996  )
        62        Zn     tau(  62) = (   0.5000000   0.7216878   0.3494996  )
        63        Zn     tau(  63) = (  -0.0000117   0.7215710   0.8330023  )
        64        Zn     tau(  64) = (   0.4998453   0.7218054   0.8326205  )
        65        C      tau(  65) = (   0.2017768   0.4833190   1.5410662  )
        66        C      tau(  66) = (   0.2769970   0.4311659   1.4401634  )
        67        C      tau(  67) = (   0.2561091   0.3048495   1.3971268  )
        68        C      tau(  68) = (   0.3740785   0.5044941   1.3817963  )
        69        C      tau(  69) = (   0.4487845   0.4529558   1.2851525  )
        70        C      tau(  70) = (   0.3304093   0.2533745   1.3001341  )
        71        C      tau(  71) = (   0.4300251   0.3255586   1.2438215  )
        72        N      tau(  72) = (   0.1399783   0.5260604   1.6245260  )
        73        N      tau(  73) = (   0.5111196   0.2708082   1.1559432  )
        74        H      tau(  74) = (   0.5673992   0.3288321   1.1013537  )
        75        H      tau(  75) = (   0.4832632   0.1886241   1.1115576  )
        76        H      tau(  76) = (   0.1804090   0.2476586   1.4411460  )
        77        H      tau(  77) = (   0.3903880   0.6027551   1.4136406  )
        78        H      tau(  78) = (   0.5250905   0.5102970   1.2419790  )
        79        H      tau(  79) = (   0.3141191   0.1547516   1.2688434  )

   Crystallographic axes

     site n.     atom                  positions (cryst. coord.)
         1        Zn     tau(   1) = (  0.0833333  0.1666667  0.0513044  )
         2        Zn     tau(   2) = (  0.5833333  0.1666667  0.0513044  )
         3        Zn     tau(   3) = (  0.0834625  0.1667124  0.2599187  )
         4        Zn     tau(   4) = (  0.5832446  0.1666976  0.2605806  )
         5        Zn     tau(   5) = (  0.0833333  0.4166667  0.0513044  )
         6        Zn     tau(   6) = (  0.5833333  0.4166667  0.0513044  )
         7        Zn     tau(   7) = (  0.0834070  0.4167663  0.2602093  )
         8        Zn     tau(   8) = (  0.5832997  0.4166711  0.2604259  )
         9        Zn     tau(   9) = (  0.0833333  0.6666667  0.0513044  )
        10        Zn     tau(  10) = (  0.5833333  0.6666667  0.0513044  )
        11        Zn     tau(  11) = (  0.0833558  0.6666938  0.2605078  )
        12        Zn     tau(  12) = (  0.5832626  0.6665605  0.2601501  )
        13        Zn     tau(  13) = (  0.0833333  0.9166667  0.0513044  )
        14        Zn     tau(  14) = (  0.5833333  0.9166667  0.0513044  )
        15        Zn     tau(  15) = (  0.0834001  0.9166324  0.2602480  )
        16        Zn     tau(  16) = (  0.5832000  0.9165895  0.2603170  )
        17        Zn     tau(  17) = (  0.3333333  0.1666667  0.0513044  )
        18        Zn     tau(  18) = (  0.8333333  0.1666667  0.0513044  )
        19        Zn     tau(  19) = (  0.3332763  0.1666393  0.2602868  )
        20        Zn     tau(  20) = (  0.8334303  0.1667804  0.2602327  )
        21        Zn     tau(  21) = (  0.3333333  0.4166667  0.0513044  )
        22        Zn     tau(  22) = (  0.8333333  0.4166667  0.0513044  )
        23        Zn     tau(  23) = (  0.3332952  0.4166537  0.2600314  )
        24        Zn     tau(  24) = (  0.8334099  0.4167759  0.2605781  )
        25        Zn     tau(  25) = (  0.3333333  0.6666667  0.0513044  )
        26        Zn     tau(  26) = (  0.8333333  0.6666667  0.0513044  )
        27        Zn     tau(  27) = (  0.3332078  0.6666122  0.2602944  )
        28        Zn     tau(  28) = (  0.8334201  0.6666632  0.2603965  )
        29        Zn     tau(  29) = (  0.3333333  0.9166667  0.0513044  )
        30        Zn     tau(  30) = (  0.8333333  0.9166667  0.0513044  )
        31        Zn     tau(  31) = (  0.3331983  0.9165994  0.2605153  )
        32        Zn     tau(  32) = (  0.8334421  0.9166194  0.2600287  )
        33        Zn     tau(  33) = (  0.1666667  0.0833333  0.1539131  )
        34        Zn     tau(  34) = (  0.6666667  0.0833333  0.1539131  )
        35        Zn     tau(  35) = (  0.1664607  0.0833761  0.3666774  )
        36        Zn     tau(  36) = (  0.6665391  0.0831808  0.3661477  )
        37        Zn     tau(  37) = (  0.1666667  0.3333333  0.1539131  )
        38        Zn     tau(  38) = (  0.6666667  0.3333333  0.1539131  )
        39        Zn     tau(  39) = (  0.1665432  0.3333552  0.3666647  )
        40        Zn     tau(  40) = (  0.6661356  0.3336511  0.3645468  )
        41        Zn     tau(  41) = (  0.1666667  0.5833333  0.1539131  )
        42        Zn     tau(  42) = (  0.6666667  0.5833333  0.1539131  )
        43        Zn     tau(  43) = (  0.1666849  0.5833410  0.3668275  )
        44        Zn     tau(  44) = (  0.6663611  0.5836595  0.3668854  )
        45        Zn     tau(  45) = (  0.1666667  0.8333333  0.1539131  )
        46        Zn     tau(  46) = (  0.6666667  0.8333333  0.1539131  )
        47        Zn     tau(  47) = (  0.1665889  0.8332903  0.3668261  )
        48        Zn     tau(  48) = (  0.6666315  0.8334130  0.3666556  )
        49        Zn     tau(  49) = (  0.4166667  0.0833333  0.1539131  )
        50        Zn     tau(  50) = (  0.9166667  0.0833333  0.1539131  )
        51        Zn     tau(  51) = (  0.4162104  0.0831950  0.3660347  )
        52        Zn     tau(  52) = (  0.9166274  0.0833775  0.3665268  )
        53        Zn     tau(  53) = (  0.4166667  0.3333333  0.1539131  )
        54        Zn     tau(  54) = (  0.9166667  0.3333333  0.1539131  )
        55        Zn     tau(  55) = (  0.4162426  0.3335425  0.3667732  )
        56        Zn     tau(  56) = (  0.9166950  0.3333644  0.3662903  )
        57        Zn     tau(  57) = (  0.4166667  0.5833333  0.1539131  )
        58        Zn     tau(  58) = (  0.9166667  0.5833333  0.1539131  )
        59        Zn     tau(  59) = (  0.4165366  0.5833816  0.3668215  )
        60        Zn     tau(  60) = (  0.9166580  0.5836480  0.3663263  )
        61        Zn     tau(  61) = (  0.4166667  0.8333333  0.1539131  )
        62        Zn     tau(  62) = (  0.9166667  0.8333333  0.1539131  )
        63        Zn     tau(  63) = (  0.4165875  0.8331984  0.3668387  )
        64        Zn     tau(  64) = (  0.9165798  0.8334691  0.3666706  )
        65        C      tau(  65) = (  0.4808211  0.5580887  0.6786569  )
        66        C      tau(  66) = (  0.5259308  0.4978675  0.6342212  )
        67        C      tau(  67) = (  0.4321140  0.3520099  0.6152687  )
        68        C      tau(  68) = (  0.6653483  0.5825396  0.6085174  )
        69        C      tau(  69) = (  0.7102987  0.5230283  0.5659573  )
        70        C      tau(  70) = (  0.4766952  0.2925717  0.5725549  )
        71        C      tau(  71) = (  0.6179865  0.3759227  0.5477559  )
        72        N      tau(  72) = (  0.4436994  0.6074422  0.7154111  )
        73        N      tau(  73) = (  0.6674707  0.3127024  0.5090559  )
        74        H      tau(  74) = (  0.7572505  0.3797026  0.4850157  )
        75        H      tau(  75) = (  0.5921654  0.2178043  0.4895093  )
        76        H      tau(  76) = (  0.3233947  0.2859715  0.6346539  )
        77        H      tau(  77) = (  0.7383888  0.6960016  0.6225411  )
        78        H      tau(  78) = (  0.8197106  0.5892402  0.5469445  )
        79        H      tau(  79) = (  0.4034650  0.1786917  0.5587751  )

     number of k points=     5  Marzari-Vanderbilt smearing, width (Ry)=  0.0200
                       cart. coord. in units 2pi/alat
        k(    1) = (   0.0000000   0.0000000   0.0000000), wk =   0.2222222
        k(    2) = (   0.0000000   0.3849002   0.0000000), wk =   0.4444444
        k(    3) = (   0.3333333   0.1924501   0.0000000), wk =   0.4444444
        k(    4) = (   0.3333333   0.5773503   0.0000000), wk =   0.4444444
        k(    5) = (   0.3333333  -0.1924501   0.0000000), wk =   0.4444444

                       cryst. coord.
        k(    1) = (   0.0000000   0.0000000   0.0000000), wk =   0.2222222
        k(    2) = (   0.0000000   0.3333333   0.0000000), wk =   0.4444444
        k(    3) = (   0.3333333   0.0000000   0.0000000), wk =   0.4444444
        k(    4) = (   0.3333333   0.3333333   0.0000000), wk =   0.4444444
        k(    5) = (   0.3333333  -0.3333333   0.0000000), wk =   0.4444444

     Dense  grid:   724931 G-vectors     FFT dimensions: (  90,  90, 216)

     Dynamical RAM for                 wfc:      34.30 MB

     Dynamical RAM for     wfc (w. buffer):     205.79 MB

     Dynamical RAM for           str. fact:       1.38 MB

     Dynamical RAM for           local pot:       0.00 MB

     Dynamical RAM for          nlocal pot:      53.39 MB

     Dynamical RAM for                qrad:       4.54 MB

     Dynamical RAM for          rho,v,vnew:       2.33 MB

     Dynamical RAM for               rhoin:       0.78 MB

     Dynamical RAM for            rho*nmix:       5.53 MB

     Dynamical RAM for           G-vectors:       1.47 MB

     Dynamical RAM for          h,s,v(r/c):       4.60 MB

     Dynamical RAM for          <psi|beta>:      14.97 MB

     Dynamical RAM for                 psi:      68.60 MB

     Dynamical RAM for                hpsi:      68.60 MB

     Dynamical RAM for                spsi:      68.60 MB

     Dynamical RAM for      wfcinit/wfcrot:      93.00 MB

     Dynamical RAM for           addusdens:      86.43 MB

     Dynamical RAM for          addusforce:     130.41 MB

     Dynamical RAM for         addusstress:      69.49 MB

     Estimated static dynamical RAM per process >     273.59 MB

     Estimated max dynamical RAM per process >     504.49 MB

     Estimated total dynamical RAM >      15.77 GB

     Check: negative core charge=   -0.000007

     Initial potential from superposition of free atoms

     starting charge    1323.9906, renormalised to    1324.0000

     negative rho (up, down):  3.509E-03 0.000E+00
     Starting wfcs are  874 randomized atomic wfcs
[psid04:247542] 31 more processes have sent help message help-mpi-btl-openib.txt / ib port not selected
[psid04:247542] Set MCA parameter "orte_base_help_aggregate" to 0 to see all help / error messages
[psid04:247542] 31 more processes have sent help message help-mpi-btl-openib.txt / error in device init
     Checking if some PAW data can be deallocated... 
       PAW data deallocated on   28 nodes for type:  2

     total cpu time spent up to now is      164.0 secs

     Self-consistent Calculation

     iteration #  1     ecut=    50.00 Ry     beta= 0.70
     Davidson diagonalization with overlap

---- Real-time Memory Report at c_bands before calling an iterative solver
           376 MiB given to the printing process from OS
             0 MiB allocation reported by mallinfo(arena+hblkhd)
         97084 MiB available memory on the node where the printing process lives
------------------
     ethr =  1.00E-02,  avg # of iterations =  7.4

     Threshold (ethr) on eigenvalues was too large:
     Diagonalizing with lowered threshold

     Davidson diagonalization with overlap

---- Real-time Memory Report at c_bands before calling an iterative solver
           541 MiB given to the printing process from OS
             0 MiB allocation reported by mallinfo(arena+hblkhd)
         97057 MiB available memory on the node where the printing process lives
------------------
     ethr =  8.69E-04,  avg # of iterations =  2.0

     negative rho (up, down):  4.174E-03 0.000E+00

     total cpu time spent up to now is     1317.1 secs

     total energy              =  -29707.72746674 Ry
     estimated scf accuracy    <      11.58080687 Ry

     iteration #  2     ecut=    50.00 Ry     beta= 0.70
     Davidson diagonalization with overlap

---- Real-time Memory Report at c_bands before calling an iterative solver
           543 MiB given to the printing process from OS
             0 MiB allocation reported by mallinfo(arena+hblkhd)
         97047 MiB available memory on the node where the printing process lives
------------------
     ethr =  8.75E-04,  avg # of iterations = 12.6

     negative rho (up, down):  4.218E-03 0.000E+00

     total cpu time spent up to now is     2213.5 secs

     total energy              =  -29669.78388418 Ry
     estimated scf accuracy    <     860.95014811 Ry

     iteration #  3     ecut=    50.00 Ry     beta= 0.70
     Davidson diagonalization with overlap

---- Real-time Memory Report at c_bands before calling an iterative solver
           548 MiB given to the printing process from OS
             0 MiB allocation reported by mallinfo(arena+hblkhd)
         96875 MiB available memory on the node where the printing process lives
------------------
     ethr =  8.75E-04,  avg # of iterations = 10.2

     negative rho (up, down):  3.974E-03 0.000E+00

     total cpu time spent up to now is     3546.9 secs

     total energy              =  -29704.94228989 Ry
     estimated scf accuracy    <     166.19771759 Ry

     iteration #  4     ecut=    50.00 Ry     beta= 0.70
     Davidson diagonalization with overlap

---- Real-time Memory Report at c_bands before calling an iterative solver
           549 MiB given to the printing process from OS
             0 MiB allocation reported by mallinfo(arena+hblkhd)
         96841 MiB available memory on the node where the printing process lives
------------------
     ethr =  8.75E-04,  avg # of iterations =  9.0

     negative rho (up, down):  2.474E-03 0.000E+00

     total cpu time spent up to now is     4198.2 secs

     total energy              =  -29711.00163236 Ry
     estimated scf accuracy    <      81.05855867 Ry

     iteration #  5     ecut=    50.00 Ry     beta= 0.70
     Davidson diagonalization with overlap

---- Real-time Memory Report at c_bands before calling an iterative solver
           550 MiB given to the printing process from OS
             0 MiB allocation reported by mallinfo(arena+hblkhd)
         96810 MiB available memory on the node where the printing process lives
------------------
     ethr =  8.75E-04,  avg # of iterations =  7.4

     negative rho (up, down):  2.426E-03 0.000E+00

     total cpu time spent up to now is     4788.5 secs

     total energy              =  -29715.27613866 Ry
     estimated scf accuracy    <       3.66060567 Ry

     iteration #  6     ecut=    50.00 Ry     beta= 0.70
     Davidson diagonalization with overlap

---- Real-time Memory Report at c_bands before calling an iterative solver
           551 MiB given to the printing process from OS
             0 MiB allocation reported by mallinfo(arena+hblkhd)
         96779 MiB available memory on the node where the printing process lives
------------------
     ethr =  2.76E-04,  avg # of iterations =  5.8

     negative rho (up, down):  3.046E-03 0.000E+00

     total cpu time spent up to now is     5337.9 secs

     total energy              =  -29715.66541148 Ry
     estimated scf accuracy    <       0.29252221 Ry

     iteration #  7     ecut=    50.00 Ry     beta= 0.70
     Davidson diagonalization with overlap

---- Real-time Memory Report at c_bands before calling an iterative solver
           552 MiB given to the printing process from OS
             0 MiB allocation reported by mallinfo(arena+hblkhd)
         96744 MiB available memory on the node where the printing process lives
------------------
     ethr =  2.21E-05,  avg # of iterations = 13.8

     negative rho (up, down):  3.656E-03 0.000E+00

     total cpu time spent up to now is     5949.9 secs

     total energy              =  -29715.68446053 Ry
     estimated scf accuracy    <       0.07638401 Ry

     iteration #  8     ecut=    50.00 Ry     beta= 0.70
     Davidson diagonalization with overlap

---- Real-time Memory Report at c_bands before calling an iterative solver
           553 MiB given to the printing process from OS
             0 MiB allocation reported by mallinfo(arena+hblkhd)
         96714 MiB available memory on the node where the printing process lives
------------------
     ethr =  5.77E-06,  avg # of iterations = 10.6

     negative rho (up, down):  4.071E-03 0.000E+00

     total cpu time spent up to now is     6555.0 secs

     total energy              =  -29715.68727828 Ry
     estimated scf accuracy    <       0.06088048 Ry

     iteration #  9     ecut=    50.00 Ry     beta= 0.70
     Davidson diagonalization with overlap

---- Real-time Memory Report at c_bands before calling an iterative solver
           554 MiB given to the printing process from OS
             0 MiB allocation reported by mallinfo(arena+hblkhd)
         96684 MiB available memory on the node where the printing process lives
------------------
     ethr =  4.60E-06,  avg # of iterations =  3.0

     negative rho (up, down):  4.160E-03 0.000E+00

     total cpu time spent up to now is     7113.6 secs

     total energy              =  -29715.69234281 Ry
     estimated scf accuracy    <       0.03664366 Ry

     iteration # 10     ecut=    50.00 Ry     beta= 0.70
     Davidson diagonalization with overlap

---- Real-time Memory Report at c_bands before calling an iterative solver
           554 MiB given to the printing process from OS
             0 MiB allocation reported by mallinfo(arena+hblkhd)
         96650 MiB available memory on the node where the printing process lives
------------------
     ethr =  2.77E-06,  avg # of iterations =  5.8

     negative rho (up, down):  4.210E-03 0.000E+00

     total cpu time spent up to now is     7665.4 secs

     total energy              =  -29715.69456293 Ry
     estimated scf accuracy    <       0.01425988 Ry

     iteration # 11     ecut=    50.00 Ry     beta= 0.70
     Davidson diagonalization with overlap

---- Real-time Memory Report at c_bands before calling an iterative solver
           555 MiB given to the printing process from OS
             0 MiB allocation reported by mallinfo(arena+hblkhd)
         96621 MiB available memory on the node where the printing process lives
------------------
     c_bands:  1 eigenvalues not converged
     ethr =  1.08E-06,  avg # of iterations =  8.6

     negative rho (up, down):  4.644E-03 0.000E+00

     total cpu time spent up to now is     8202.0 secs

     total energy              =  -29715.68826820 Ry
     estimated scf accuracy    <       0.01156590 Ry

     iteration # 12     ecut=    50.00 Ry     beta= 0.70
     Davidson diagonalization with overlap

---- Real-time Memory Report at c_bands before calling an iterative solver
           555 MiB given to the printing process from OS
             0 MiB allocation reported by mallinfo(arena+hblkhd)
         96621 MiB available memory on the node where the printing process lives
------------------
     c_bands:  2 eigenvalues not converged
     ethr =  8.74E-07,  avg # of iterations = 17.6

     negative rho (up, down):  4.479E-03 0.000E+00

     total cpu time spent up to now is     8853.5 secs

     total energy              =  -29715.68871515 Ry
     estimated scf accuracy    <       0.00744379 Ry

     iteration # 13     ecut=    50.00 Ry     beta= 0.70
     Davidson diagonalization with overlap

---- Real-time Memory Report at c_bands before calling an iterative solver
           555 MiB given to the printing process from OS
             0 MiB allocation reported by mallinfo(arena+hblkhd)
         96617 MiB available memory on the node where the printing process lives
------------------
     c_bands:  1 eigenvalues not converged
     ethr =  5.62E-07,  avg # of iterations =  6.4

     negative rho (up, down):  4.367E-03 0.000E+00

     total cpu time spent up to now is     9404.1 secs

     total energy              =  -29715.68595139 Ry
     estimated scf accuracy    <       0.00868388 Ry

     iteration # 14     ecut=    50.00 Ry     beta= 0.70
     Davidson diagonalization with overlap

---- Real-time Memory Report at c_bands before calling an iterative solver
           555 MiB given to the printing process from OS
             0 MiB allocation reported by mallinfo(arena+hblkhd)
         96614 MiB available memory on the node where the printing process lives
------------------
     c_bands:  1 eigenvalues not converged
     c_bands:  2 eigenvalues not converged
     c_bands:  1 eigenvalues not converged
     c_bands:  1 eigenvalues not converged
     ethr =  5.62E-07,  avg # of iterations = 19.2

     negative rho (up, down):  4.348E-03 0.000E+00

     total cpu time spent up to now is    10055.4 secs

     total energy              =  -29715.68180928 Ry
     estimated scf accuracy    <       0.13297210 Ry

     iteration # 15     ecut=    50.00 Ry     beta= 0.70
     Davidson diagonalization with overlap

---- Real-time Memory Report at c_bands before calling an iterative solver
           555 MiB given to the printing process from OS
             0 MiB allocation reported by mallinfo(arena+hblkhd)
         96611 MiB available memory on the node where the printing process lives
------------------
     ethr =  5.62E-07,  avg # of iterations =  8.4

     negative rho (up, down):  4.341E-03 0.000E+00

     total cpu time spent up to now is    10637.2 secs

     total energy              =  -29715.68904039 Ry
     estimated scf accuracy    <       0.00087775 Ry

     iteration # 16     ecut=    50.00 Ry     beta= 0.70
     Davidson diagonalization with overlap

---- Real-time Memory Report at c_bands before calling an iterative solver
           555 MiB given to the printing process from OS
             0 MiB allocation reported by mallinfo(arena+hblkhd)
         96610 MiB available memory on the node where the printing process lives
------------------
     ethr =  6.63E-08,  avg # of iterations =  3.0

     negative rho (up, down):  4.317E-03 0.000E+00

     total cpu time spent up to now is    11179.1 secs

     total energy              =  -29715.68917213 Ry
     estimated scf accuracy    <       0.00044310 Ry

     iteration # 17     ecut=    50.00 Ry     beta= 0.70
     Davidson diagonalization with overlap

---- Real-time Memory Report at c_bands before calling an iterative solver
           555 MiB given to the printing process from OS
             0 MiB allocation reported by mallinfo(arena+hblkhd)
         96610 MiB available memory on the node where the printing process lives
------------------
     ethr =  3.35E-08,  avg # of iterations =  2.0

     negative rho (up, down):  4.293E-03 0.000E+00

     total cpu time spent up to now is    11692.6 secs

     total energy              =  -29715.68922900 Ry
     estimated scf accuracy    <       0.00005043 Ry

     iteration # 18     ecut=    50.00 Ry     beta= 0.70
     Davidson diagonalization with overlap

---- Real-time Memory Report at c_bands before calling an iterative solver
           555 MiB given to the printing process from OS
             0 MiB allocation reported by mallinfo(arena+hblkhd)
         96608 MiB available memory on the node where the printing process lives
------------------
     ethr =  3.81E-09,  avg # of iterations =  3.0

     negative rho (up, down):  4.282E-03 0.000E+00

     total cpu time spent up to now is    12216.6 secs

     total energy              =  -29715.68923534 Ry
     estimated scf accuracy    <       0.00000746 Ry

     iteration # 19     ecut=    50.00 Ry     beta= 0.70
     Davidson diagonalization with overlap

---- Real-time Memory Report at c_bands before calling an iterative solver
           555 MiB given to the printing process from OS
             0 MiB allocation reported by mallinfo(arena+hblkhd)
         96610 MiB available memory on the node where the printing process lives
------------------
     ethr =  5.63E-10,  avg # of iterations =  4.0

     negative rho (up, down):  4.279E-03 0.000E+00

     total cpu time spent up to now is    12748.9 secs

     total energy              =  -29715.68923627 Ry
     estimated scf accuracy    <       0.00000142 Ry

     iteration # 20     ecut=    50.00 Ry     beta= 0.70
     Davidson diagonalization with overlap

---- Real-time Memory Report at c_bands before calling an iterative solver
           555 MiB given to the printing process from OS
             0 MiB allocation reported by mallinfo(arena+hblkhd)
         96610 MiB available memory on the node where the printing process lives
------------------
     ethr =  1.07E-10,  avg # of iterations =  3.0

     negative rho (up, down):  4.278E-03 0.000E+00

     total cpu time spent up to now is    13306.2 secs

     total energy              =  -29715.68923633 Ry
     estimated scf accuracy    <       0.00000244 Ry

     iteration # 21     ecut=    50.00 Ry     beta= 0.70
     Davidson diagonalization with overlap

---- Real-time Memory Report at c_bands before calling an iterative solver
           555 MiB given to the printing process from OS
             0 MiB allocation reported by mallinfo(arena+hblkhd)
         96609 MiB available memory on the node where the printing process lives
------------------
     ethr =  1.07E-10,  avg # of iterations =  2.0

     negative rho (up, down):  4.275E-03 0.000E+00

     total cpu time spent up to now is    13824.2 secs

     End of self-consistent calculation

          k = 0.0000 0.0000 0.0000 ( 90569 PWs)   bands (ev):

  -122.8815-122.8801-122.8800-122.8795-122.8793-122.8793-122.8787-122.8783
  -122.8781-122.8779-122.8777-122.8773-122.8771-122.8770-122.8768-122.8767
  -122.8456-122.8446-122.8381-122.8364-122.8357-122.8355-122.8348-122.8344
  -122.8339-122.8325-122.8325-122.8316-122.8310-122.8299-122.8292-122.8287
  -122.6837-122.6791-122.6778-122.6776-122.6772-122.6769-122.6764-122.6764
  -122.6762-122.6756-122.6754-122.6752-122.6750-122.6748-122.6746-122.6736
  -122.6731-122.6689-122.6675-122.6625-122.6616-122.6533-122.6512-122.6506
  -122.6503-122.6497-122.6482-122.6478-122.6473-122.6466-122.6463-122.6446
   -77.0454 -77.0453 -77.0452 -77.0390 -77.0389 -77.0389 -77.0387 -77.0386
   -77.0384 -77.0329 -77.0314 -77.0312 -77.0307 -77.0305 -77.0305 -77.0299
   -77.0294 -77.0291 -77.0289 -77.0287 -77.0283 -77.0282 -77.0280 -77.0279
   -77.0278 -77.0277 -77.0277 -77.0276 -77.0275 -77.0273 -77.0273 -77.0258
   -77.0258 -77.0257 -77.0256 -77.0254 -77.0252 -77.0189 -77.0189 -77.0189
   -77.0147 -77.0145 -77.0144 -77.0142 -77.0141 -77.0140 -77.0097 -77.0097
   -77.0053 -77.0036 -77.0026 -76.9968 -76.9967 -76.9960 -76.9958 -76.9953
   -76.9944 -76.9942 -76.9934 -76.9892 -76.9875 -76.9868 -76.9868 -76.9865
   -76.9858 -76.9855 -76.9852 -76.9851 -76.9848 -76.9847 -76.9838 -76.9837
   -76.9835 -76.9830 -76.9827 -76.9826 -76.9819 -76.9816 -76.9814 -76.9809
   -76.9805 -76.9802 -76.9799 -76.9797 -76.9794 -76.9758 -76.9746 -76.9735
   -76.9711 -76.9709 -76.9704 -76.9690 -76.9683 -76.9680 -76.9645 -76.9639
   -76.8437 -76.8404 -76.8403 -76.8403 -76.8380 -76.8366 -76.8364 -76.8360
   -76.8355 -76.8350 -76.8350 -76.8349 -76.8342 -76.8342 -76.8342 -76.8341
   -76.8340 -76.8338 -76.8338 -76.8335 -76.8335 -76.8334 -76.8334 -76.8333
   -76.8330 -76.8321 -76.8320 -76.8314 -76.8294 -76.8281 -76.8230 -76.8230
   -76.8229 -76.8227 -76.8224 -76.8223 -76.8221 -76.8220 -76.8216 -76.8210
   -76.8210 -76.8206 -76.8206 -76.8203 -76.8202 -76.8184 -76.8159 -76.8151
   -76.8143 -76.8141 -76.8139 -76.8138 -76.8135 -76.8113 -76.8107 -76.8103
   -76.8102 -76.8097 -76.8097 -76.8097 -76.8096 -76.8095 -76.8092 -76.8090
   -76.8089 -76.8085 -76.8078 -76.8075 -76.8068 -76.8065 -76.8062 -76.8059
   -76.8047 -76.8046 -76.8045 -76.8039 -76.8021 -76.8014 -76.7991 -76.7984
   -76.7971 -76.7961 -76.7949 -76.7944 -76.7938 -76.7936 -76.7892 -76.7875
   -76.7870 -76.7857 -76.7851 -76.7830 -76.7826 -76.7820 -76.7791 -76.7775
   -15.5146 -14.0884 -13.2654 -10.9008 -10.8029  -7.8921  -7.6168  -6.5101
    -5.7257  -5.7177  -5.1702  -5.1347  -4.9947  -4.9127  -4.9105  -4.9098
    -4.9093  -4.9084  -4.9079  -4.9012  -4.7173  -4.7172  -4.7172  -4.6615
    -4.6611  -4.6609  -4.5583  -4.5550  -4.5526  -4.5513  -4.5500  -4.5495
    -4.5273  -4.5271  -4.5269  -4.4533  -4.4526  -4.4515  -4.3911  -4.3905
    -4.3903  -4.3901  -4.3899  -4.3897  -4.3531  -4.3530  -4.3529  -4.3168
    -4.3143  -4.3136  -4.3122  -4.3119  -4.3106  -4.2948  -4.2941  -4.2936
    -4.2932  -4.2928  -4.2924  -4.2831  -4.2828  -4.2827  -4.2524  -4.2522
    -4.2516  -4.2515  -4.2510  -4.2507  -4.2117  -4.2116  -4.2100  -4.2097
    -4.2090  -4.2085  -4.1366  -4.1219  -4.1189  -4.1165  -4.1157  -4.1147
    -4.1143  -4.1111  -4.1109  -4.1106  -4.1105  -4.1101  -4.1101  -4.0658
    -4.0653  -4.0643  -4.0634  -4.0629  -4.0627  -4.0619  -4.0612  -4.0593
    -4.0584  -4.0564  -4.0560  -4.0547  -4.0538  -4.0533  -4.0204  -4.0193
    -4.0171  -4.0159  -4.0154  -4.0153  -3.9763  -3.9759  -3.9755  -3.9732
    -3.9720  -3.9710  -3.9315  -3.9309  -3.9307  -3.9293  -3.9290  -3.9290
    -3.9290  -3.9286  -3.9246  -3.9236  -3.9233  -3.9218  -3.9204  -3.9200
    -3.9191  -3.9191  -3.9187  -3.9024  -3.8784  -3.8783  -3.8593  -3.8589
    -3.8586  -3.8569  -3.8567  -3.8566  -3.8437  -3.8426  -3.8408  -3.8407
    -3.8399  -3.8399  -3.8052  -3.8039  -3.8033  -3.8031  -3.8024  -3.8022
    -3.7782  -3.7771  -3.7767  -3.7760  -3.7760  -3.7758  -3.7187  -3.7187
    -3.7006  -3.7003  -3.7000  -3.6997  -3.6992  -3.6989  -3.6923  -3.6922
    -3.6600  -3.6599  -3.6597  -3.6537  -3.6531  -3.6528  -3.6510  -3.6507
    -3.6501  -3.6264  -3.6260  -3.6249  -3.6244  -3.6229  -3.6227  -3.6049
    -3.6031  -3.6030  -3.6017  -3.6014  -3.6003  -3.5961  -3.5960  -3.5960
    -3.5959  -3.5957  -3.5957  -3.5776  -3.5774  -3.5770  -3.5737  -3.5732
    -3.5716  -3.5709  -3.5705  -3.5700  -3.5698  -3.5695  -3.5695  -3.5692
    -3.5686  -3.5685  -3.5661  -3.5651  -3.5648  -3.5643  -3.5638  -3.5626
    -3.5398  -3.5397  -3.5395  -3.5393  -3.5392  -3.5390  -3.4959  -3.4957
    -3.4950  -3.4896  -3.4888  -3.4880  -3.4875  -3.4868  -3.4863  -3.4828
    -3.4826  -3.4823  -3.4802  -3.4795  -3.4787  -3.4387  -3.4382  -3.4368
    -3.4366  -3.4356  -3.4338  -3.4327  -3.4319  -3.4231  -3.4228  -3.4227
    -3.4227  -3.4222  -3.4221  -3.4119  -3.4118  -3.4113  -3.4099  -3.4091
    -3.4088  -3.4064  -3.4064  -3.4060  -3.4050  -3.4045  -3.4043  -3.3410
    -3.3407  -3.3327  -3.3326  -3.3319  -3.3060  -3.3059  -3.3058  -3.3055
    -3.3054  -3.3054  -3.2961  -3.2959  -3.2954  -3.2892  -3.2879  -3.2863
    -3.2836  -3.2819  -3.2806  -3.2796  -3.2790  -3.2779  -3.2598  -3.2595
    -3.2592  -3.2496  -3.2491  -3.2485  -3.2476  -3.2474  -3.2472  -3.2326
    -3.2324  -3.2322  -3.2314  -3.2311  -3.2308  -3.2151  -3.2148  -3.2147
    -3.2124  -3.2114  -3.2106  -3.1990  -3.1982  -3.1974  -3.1863  -3.1863
    -3.1685  -3.1681  -3.1216  -3.1211  -3.1211  -3.1208  -3.1208  -3.1208
    -3.1110  -3.1057  -3.1052  -3.1049  -3.1041  -3.1039  -3.0922  -3.0889
    -3.0889  -3.0889  -3.0446  -3.0443  -3.0441  -3.0136  -3.0002  -2.8873
    -2.8829  -2.8828  -2.8827  -2.8823  -2.8814  -2.8784  -2.8752  -2.8743
    -2.8618  -2.8607  -2.8596  -2.6001  -2.1204  -1.7812  -1.4908  -1.4896
    -1.4887  -1.4881  -1.4877  -1.4825  -1.0295  -0.8921  -0.7323  -0.0953
    -0.0198  -0.0182  -0.0170  -0.0163  -0.0150  -0.0146   0.3175   0.3753
     0.3950   0.3973   0.3991   0.4013   0.4024   0.5538   0.8170   0.8174
     0.8199   0.8213   0.8229   0.8232   1.1419   1.2608   1.2688   1.2693
     1.2694   1.8307   1.8328   1.8331   2.1797   2.1813   2.1831   2.2270
     2.2307   2.2323   2.2332   2.2344   2.2348   2.4221   2.4232   2.4249
     2.6033   3.4278   3.4389   3.4453   3.4518   3.4534   3.4611   3.9204
     3.9216   3.9219   3.9250   3.9262   3.9270   4.1112   4.5180   4.5212
     4.5232   4.8015   4.8031   4.8042   5.6217   5.6242   5.6249   5.9175
     5.9533   5.9680   5.9859   5.9894   6.0011   6.2083   6.4278   6.5214
     6.5337   6.5413   6.5842   7.2853   7.2965   7.3019   7.3044   7.3131
     7.3197   7.3231   7.5186   7.5197   7.5220   7.5224   7.5228   7.5232
     7.6409   7.6990   7.6993   7.7021   7.7030   7.7035   7.7043   7.9610
     8.1071   8.1532   8.1812   8.3468   8.3710   8.4093   8.4102   8.4139
     8.4142   8.4149   8.4210   8.4236   8.4664   8.4745   8.5007   8.5037
     8.5057   8.5065   8.5088   8.5113   8.5131   8.7545   8.8639   8.9921
     9.0122   9.1400   9.1482   9.1843   9.3248   9.3386   9.3978   9.4028
     9.5006   9.5050   9.5208   9.5252   9.5295   9.5392   9.5441   9.6120
     9.6764   9.8322   9.9083   9.9412   9.9474   9.9500   9.9523   9.9678
     9.9879   9.9955   9.9988   9.9996  10.0017  10.0039  10.0885  10.1112
    10.1311  10.2985  10.6576  10.6864  10.7179  10.7655  10.8424  10.9295
    10.9863  11.0089  11.0252  11.0902  11.1064  11.2059  11.2383  11.2550
    11.3101  11.3591  11.3680  11.3783  11.3841  11.4106  11.4227  11.4331
    11.5180  11.5552

     occupation numbers 
     1.0000   1.0000   1.0000   1.0000   1.0000   1.0000   1.0000   1.0000
     1.0000   1.0000   1.0000   1.0000   1.0000   1.0000   1.0000   1.0000
     1.0000   1.0000   1.0000   1.0000   1.0000   1.0000   1.0000   1.0000
     1.0000   1.0000   1.0000   1.0000   1.0000   1.0000   1.0000   1.0000
     1.0000   1.0000   1.0000   1.0000   1.0000   1.0000   1.0000   1.0000
     1.0000   1.0000   1.0000   1.0000   1.0000   1.0000   1.0000   1.0000
     1.0000   1.0000   1.0000   1.0000   1.0000   1.0000   1.0000   1.0000
     1.0000   1.0000   1.0000   1.0000   1.0000   1.0000   1.0000   1.0000
     1.0000   1.0000   1.0000   1.0000   1.0000   1.0000   1.0000   1.0000
     1.0000   1.0000   1.0000   1.0000   1.0000   1.0000   1.0000   1.0000
     1.0000   1.0000   1.0000   1.0000   1.0000   1.0000   1.0000   1.0000
     1.0000   1.0000   1.0000   1.0000   1.0000   1.0000   1.0000   1.0000
     1.0000   1.0000   1.0000   1.0000   1.0000   1.0000   1.0000   1.0000
     1.0000   1.0000   1.0000   1.0000   1.0000   1.0000   1.0000   1.0000
     1.0000   1.0000   1.0000   1.0000   1.0000   1.0000   1.0000   1.0000
     1.0000   1.0000   1.0000   1.0000   1.0000   1.0000   1.0000   1.0000
     1.0000   1.0000   1.0000   1.0000   1.0000   1.0000   1.0000   1.0000
     1.0000   1.0000   1.0000   1.0000   1.0000   1.0000   1.0000   1.0000
     1.0000   1.0000   1.0000   1.0000   1.0000   1.0000   1.0000   1.0000
     1.0000   1.0000   1.0000   1.0000   1.0000   1.0000   1.0000   1.0000
     1.0000   1.0000   1.0000   1.0000   1.0000   1.0000   1.0000   1.0000
     1.0000   1.0000   1.0000   1.0000   1.0000   1.0000   1.0000   1.0000
     1.0000   1.0000   1.0000   1.0000   1.0000   1.0000   1.0000   1.0000
     1.0000   1.0000   1.0000   1.0000   1.0000   1.0000   1.0000   1.0000
     1.0000   1.0000   1.0000   1.0000   1.0000   1.0000   1.0000   1.0000
     1.0000   1.0000   1.0000   1.0000   1.0000   1.0000   1.0000   1.0000
     1.0000   1.0000   1.0000   1.0000   1.0000   1.0000   1.0000   1.0000
     1.0000   1.0000   1.0000   1.0000   1.0000   1.0000   1.0000   1.0000
     1.0000   1.0000   1.0000   1.0000   1.0000   1.0000   1.0000   1.0000
     1.0000   1.0000   1.0000   1.0000   1.0000   1.0000   1.0000   1.0000
     1.0000   1.0000   1.0000   1.0000   1.0000   1.0000   1.0000   1.0000
     1.0000   1.0000   1.0000   1.0000   1.0000   1.0000   1.0000   1.0000
     1.0000   1.0000   1.0000   1.0000   1.0000   1.0000   1.0000   1.0000
     1.0000   1.0000   1.0000   1.0000   1.0000   1.0000   1.0000   1.0000
     1.0000   1.0000   1.0000   1.0000   1.0000   1.0000   1.0000   1.0000
     1.0000   1.0000   1.0000   1.0000   1.0000   1.0000   1.0000   1.0000
     1.0000   1.0000   1.0000   1.0000   1.0000   1.0000   1.0000   1.0000
     1.0000   1.0000   1.0000   1.0000   1.0000   1.0000   1.0000   1.0000
     1.0000   1.0000   1.0000   1.0000   1.0000   1.0000   1.0000   1.0000
     1.0000   1.0000   1.0000   1.0000   1.0000   1.0000   1.0000   1.0000
     1.0000   1.0000   1.0000   1.0000   1.0000   1.0000   1.0000   1.0000
     1.0000   1.0000   1.0000   1.0000   1.0000   1.0000   1.0000   1.0000
     1.0000   1.0000   1.0000   1.0000   1.0000   1.0000   1.0000   1.0000
     1.0000   1.0000   1.0000   1.0000   1.0000   1.0000   1.0000   1.0000
     1.0000   1.0000   1.0000   1.0000   1.0000   1.0000   1.0000   1.0000
     1.0000   1.0000   1.0000   1.0000   1.0000   1.0000   1.0000   1.0000
     1.0000   1.0000   1.0000   1.0000   1.0000   1.0000   1.0000   1.0000
     1.0000   1.0000   1.0000   1.0000   1.0000   1.0000   1.0000   1.0000
     1.0000   1.0000   1.0000   1.0000   1.0000   1.0000   1.0000   1.0000
     1.0000   1.0000   1.0000   1.0000   1.0000   1.0000   1.0000   1.0000
     1.0000   1.0000   1.0000   1.0000   1.0000   1.0000   1.0000   1.0000
     1.0000   1.0000   1.0000   1.0000   1.0000   1.0000   1.0000   1.0000
     1.0000   1.0000   1.0000   1.0000   1.0000   1.0000   1.0000   1.0000
     1.0000   1.0000   1.0000   1.0000   1.0000   1.0000   1.0000   1.0000
     1.0000   1.0000   1.0000   1.0000   1.0000   1.0000   1.0000   1.0000
     1.0000   1.0000   1.0000   1.0000   1.0000   1.0000   1.0000   1.0000
     1.0000   1.0000   1.0000   1.0000   1.0000   1.0000   1.0000   1.0000
     1.0000   1.0000   1.0000   1.0000   1.0000   1.0000   1.0000   1.0000
     1.0000   1.0000   1.0000   1.0000   1.0000   1.0000   1.0000   1.0000
     1.0000   1.0000   1.0000   1.0000   1.0000   1.0000   1.0000   1.0000
     1.0000   1.0000   1.0000   1.0000   1.0000   1.0000   1.0000   1.0000
     1.0000   1.0000   1.0000   1.0000   1.0000   1.0000   1.0000   1.0000
     1.0000   1.0000   1.0000   1.0000   1.0000   1.0000   1.0000   1.0000
     1.0000   1.0000   1.0000   1.0000   1.0000   1.0000   1.0000   1.0000
     1.0000   1.0000   1.0000   1.0000   1.0000   1.0000   1.0000   1.0000
     1.0000   1.0000   1.0000   1.0000   1.0000   1.0000   1.0000   1.0000
     1.0000   1.0000   1.0000   1.0000   1.0000   1.0000   1.0000   1.0000
     1.0000   1.0000   1.0000   1.0000   1.0000   1.0000   1.0000   1.0000
     1.0000   1.0000   1.0000   1.0000   1.0000   1.0000   1.0000   1.0000
     1.0000   1.0000   1.0000   1.0000   1.0000   1.0000   1.0000   1.0000
     1.0000   1.0000   1.0000   1.0000   1.0000   1.0000   1.0000   1.0000
     1.0000   1.0000   1.0000   1.0000   1.0000   1.0000   1.0000   1.0000
     1.0000   1.0000   1.0000   1.0000   1.0000   1.0000   1.0000   1.0000
     1.0000   1.0000   1.0000   1.0000   1.0000   1.0000   1.0000   1.0000
     1.0000   1.0000   1.0000   1.0000   1.0000   1.0000   1.0000   1.0000
     1.0000   1.0000   1.0000   1.0000   1.0000   1.0000   1.0000   1.0000
     1.0000   1.0000   1.0000   1.0000   1.0000   1.0000   1.0000   1.0000
     1.0000   1.0000   1.0000   1.0000   1.0000   1.0000   1.0000   1.0000
     1.0000   1.0000   1.0000   1.0000   1.0000   1.0000   1.0000   1.0000
     1.0000   1.0000   1.0000   1.0000   1.0000   1.0000   1.0000   1.0000
     1.0000   1.0000   1.0000   1.0000   1.0000   1.0000   1.0000   1.0000
     1.0000   1.0000   1.0000   1.0000   1.0000   1.0000   1.0000   1.0000
     1.0000   1.0364   1.0399   1.0419   1.0441   1.0446   1.0472   0.5799
     0.5766   0.5758   0.5671   0.5639   0.5617   0.1536   0.0004   0.0004
     0.0004   0.0000   0.0000   0.0000   0.0000   0.0000   0.0000   0.0000
     0.0000   0.0000   0.0000   0.0000   0.0000   0.0000   0.0000   0.0000
     0.0000   0.0000   0.0000   0.0000   0.0000   0.0000   0.0000   0.0000
     0.0000   0.0000   0.0000   0.0000   0.0000   0.0000   0.0000   0.0000
     0.0000   0.0000   0.0000   0.0000   0.0000   0.0000   0.0000   0.0000
     0.0000   0.0000   0.0000   0.0000   0.0000   0.0000   0.0000   0.0000
     0.0000   0.0000   0.0000   0.0000   0.0000   0.0000   0.0000   0.0000
     0.0000   0.0000   0.0000   0.0000   0.0000   0.0000   0.0000   0.0000
     0.0000   0.0000   0.0000   0.0000   0.0000   0.0000   0.0000   0.0000
     0.0000   0.0000   0.0000   0.0000   0.0000   0.0000   0.0000   0.0000
     0.0000   0.0000   0.0000   0.0000   0.0000   0.0000   0.0000   0.0000
     0.0000   0.0000   0.0000   0.0000   0.0000   0.0000   0.0000   0.0000
     0.0000   0.0000   0.0000   0.0000   0.0000   0.0000   0.0000   0.0000
     0.0000   0.0000   0.0000   0.0000   0.0000   0.0000   0.0000   0.0000
     0.0000   0.0000   0.0000   0.0000   0.0000   0.0000   0.0000   0.0000
     0.0000   0.0000

          k = 0.0000 0.3849 0.0000 ( 90604 PWs)   bands (ev):

  -122.8814-122.8804-122.8800-122.8797-122.8792-122.8789-122.8785-122.8783
  -122.8782-122.8780-122.8777-122.8775-122.8771-122.8770-122.8769-122.8766
  -122.8456-122.8447-122.8381-122.8364-122.8357-122.8355-122.8348-122.8344
  -122.8339-122.8325-122.8325-122.8316-122.8310-122.8299-122.8292-122.8287
  -122.6837-122.6789-122.6783-122.6774-122.6770-122.6769-122.6765-122.6764
  -122.6759-122.6757-122.6754-122.6752-122.6750-122.6749-122.6745-122.6736
  -122.6731-122.6689-122.6675-122.6625-122.6616-122.6533-122.6512-122.6506
  -122.6503-122.6497-122.6482-122.6479-122.6472-122.6467-122.6463-122.6446
   -77.0441 -77.0441 -77.0430 -77.0409 -77.0408 -77.0393 -77.0391 -77.0366
   -77.0365 -77.0363 -77.0328 -77.0324 -77.0324 -77.0317 -77.0313 -77.0310
   -77.0303 -77.0300 -77.0296 -77.0294 -77.0294 -77.0292 -77.0292 -77.0290
   -77.0288 -77.0285 -77.0282 -77.0280 -77.0279 -77.0276 -77.0240 -77.0239
   -77.0235 -77.0235 -77.0208 -77.0208 -77.0201 -77.0201 -77.0187 -77.0183
   -77.0168 -77.0166 -77.0163 -77.0140 -77.0138 -77.0121 -77.0120 -77.0103
   -77.0043 -77.0030 -77.0016 -76.9977 -76.9970 -76.9968 -76.9959 -76.9957
   -76.9944 -76.9925 -76.9921 -76.9913 -76.9892 -76.9887 -76.9880 -76.9875
   -76.9868 -76.9866 -76.9860 -76.9858 -76.9854 -76.9852 -76.9849 -76.9837
   -76.9835 -76.9833 -76.9826 -76.9820 -76.9812 -76.9809 -76.9803 -76.9802
   -76.9797 -76.9795 -76.9775 -76.9766 -76.9762 -76.9748 -76.9742 -76.9737
   -76.9726 -76.9721 -76.9705 -76.9694 -76.9685 -76.9674 -76.9660 -76.9645
   -76.8437 -76.8391 -76.8390 -76.8381 -76.8377 -76.8371 -76.8361 -76.8360
   -76.8359 -76.8357 -76.8355 -76.8351 -76.8350 -76.8346 -76.8343 -76.8343
   -76.8341 -76.8339 -76.8339 -76.8338 -76.8335 -76.8334 -76.8330 -76.8320
   -76.8320 -76.8315 -76.8314 -76.8314 -76.8313 -76.8294 -76.8281 -76.8274
   -76.8273 -76.8243 -76.8243 -76.8230 -76.8220 -76.8210 -76.8191 -76.8190
   -76.8189 -76.8185 -76.8184 -76.8183 -76.8162 -76.8159 -76.8152 -76.8149
   -76.8137 -76.8135 -76.8135 -76.8132 -76.8120 -76.8119 -76.8116 -76.8113
   -76.8111 -76.8108 -76.8107 -76.8103 -76.8097 -76.8095 -76.8091 -76.8089
   -76.8084 -76.8080 -76.8078 -76.8074 -76.8071 -76.8070 -76.8068 -76.8066
   -76.8062 -76.8053 -76.8046 -76.8045 -76.8029 -76.8015 -76.8005 -76.7989
   -76.7976 -76.7965 -76.7947 -76.7936 -76.7913 -76.7899 -76.7887 -76.7875
   -76.7872 -76.7865 -76.7843 -76.7841 -76.7826 -76.7815 -76.7797 -76.7788
   -15.5146 -14.0884 -13.2654 -10.9008 -10.8029  -7.8921  -7.6168  -6.2979
    -5.7254  -5.6907  -5.5200  -5.1711  -5.1528  -5.1447  -5.1273  -4.9857
    -4.8550  -4.7906  -4.6891  -4.6480  -4.6436  -4.6435  -4.6312  -4.5966
    -4.5938  -4.5883  -4.5880  -4.5866  -4.5859  -4.5604  -4.5542  -4.5023
    -4.4947  -4.4692  -4.4692  -4.4506  -4.4498  -4.4405  -4.4405  -4.4226
    -4.4164  -4.3933  -4.3930  -4.3799  -4.3796  -4.3765  -4.3762  -4.3521
    -4.3513  -4.3512  -4.3397  -4.3396  -4.3274  -4.3274  -4.3219  -4.3201
    -4.3199  -4.3051  -4.3051  -4.2876  -4.2857  -4.2758  -4.2752  -4.2695
    -4.2695  -4.2541  -4.2515  -4.2512  -4.2494  -4.2485  -4.2363  -4.2357
    -4.2350  -4.2030  -4.2028  -4.1978  -4.1968  -4.1806  -4.1794  -4.1774
    -4.1762  -4.1716  -4.1701  -4.1696  -4.1246  -4.1234  -4.1198  -4.1188
    -4.1145  -4.0970  -4.0952  -4.0938  -4.0935  -4.0822  -4.0822  -4.0733
    -4.0543  -4.0538  -4.0481  -4.0457  -4.0451  -4.0450  -4.0395  -4.0385
    -4.0367  -4.0184  -4.0179  -4.0093  -4.0090  -4.0075  -4.0035  -4.0016
    -4.0006  -4.0002  -3.9992  -3.9886  -3.9878  -3.9775  -3.9764  -3.9757
    -3.9572  -3.9359  -3.9284  -3.9266  -3.9197  -3.9079  -3.9070  -3.9040
    -3.9035  -3.9019  -3.8965  -3.8958  -3.8930  -3.8909  -3.8905  -3.8776
    -3.8661  -3.8659  -3.8607  -3.8604  -3.8417  -3.8410  -3.8275  -3.8235
    -3.8196  -3.8160  -3.8149  -3.8121  -3.8115  -3.7925  -3.7914  -3.7864
    -3.7843  -3.7741  -3.7729  -3.7694  -3.7493  -3.7489  -3.7476  -3.7448
    -3.7435  -3.7350  -3.7315  -3.7211  -3.7203  -3.7201  -3.7183  -3.7178
    -3.6900  -3.6899  -3.6875  -3.6869  -3.6849  -3.6693  -3.6669  -3.6651
    -3.6648  -3.6470  -3.6416  -3.6326  -3.6325  -3.6132  -3.6127  -3.6116
    -3.6111  -3.6108  -3.6073  -3.6072  -3.6036  -3.6014  -3.6004  -3.5913
    -3.5910  -3.5799  -3.5795  -3.5744  -3.5741  -3.5725  -3.5721  -3.5608
    -3.5606  -3.5525  -3.5519  -3.5507  -3.5491  -3.5481  -3.5405  -3.5397
    -3.5327  -3.5268  -3.5264  -3.5148  -3.5135  -3.5084  -3.5080  -3.5075
    -3.4997  -3.4993  -3.4960  -3.4946  -3.4920  -3.4909  -3.4904  -3.4860
    -3.4859  -3.4697  -3.4682  -3.4672  -3.4663  -3.4661  -3.4655  -3.4618
    -3.4607  -3.4602  -3.4504  -3.4328  -3.4323  -3.4316  -3.4292  -3.4285
    -3.4111  -3.4105  -3.4015  -3.4013  -3.3784  -3.3753  -3.3747  -3.3709
    -3.3704  -3.3699  -3.3683  -3.3658  -3.3634  -3.3628  -3.3620  -3.3614
    -3.3542  -3.3541  -3.3481  -3.3445  -3.3442  -3.3431  -3.3427  -3.3400
    -3.3393  -3.3328  -3.3323  -3.3305  -3.3300  -3.3286  -3.3211  -3.3136
    -3.3135  -3.3065  -3.3064  -3.2903  -3.2879  -3.2872  -3.2795  -3.2773
    -3.2768  -3.2765  -3.2759  -3.2541  -3.2510  -3.2467  -3.2458  -3.2421
    -3.2419  -3.2376  -3.2367  -3.2366  -3.2363  -3.2353  -3.2349  -3.2311
    -3.2306  -3.2243  -3.2205  -3.2202  -3.2199  -3.2166  -3.2159  -3.2151
    -3.2089  -3.2060  -3.2059  -3.1932  -3.1927  -3.1925  -3.1919  -3.1858
    -3.1854  -3.1748  -3.1614  -3.1614  -3.1467  -3.1311  -3.1308  -3.1235
    -3.1233  -3.1054  -3.1033  -3.1031  -3.1028  -3.1002  -3.1001  -3.0930
    -3.0847  -3.0833  -3.0785  -3.0336  -3.0306  -3.0007  -2.9772  -2.9772
    -2.9557  -2.9554  -2.9422  -2.9201  -2.8314  -2.8306  -2.7710  -2.6007
    -2.4938  -2.3019  -2.1722  -2.1660  -2.1131  -1.8246  -1.8127  -1.7662
    -1.6750  -1.6736  -1.6650  -0.9239  -0.8958  -0.8919  -0.8568  -0.7440
    -0.7236  -0.7120  -0.6594  -0.4141  -0.1736  -0.0953   0.0675   0.0705
     0.1328   0.1329   0.1744   0.3182   0.5047   0.5290   0.5573   0.6244
     0.6247   0.9667   0.9671   1.1193   1.1221   1.2605   1.4191   1.4207
     1.4282   1.5729   1.6450   2.0715   2.0735   2.2224   2.2943   2.2984
     2.3530   2.3566   2.5836   2.6034   2.6297   2.9123   2.9165   2.9711
     2.9848   3.0393   3.0403   3.0895   3.9023   3.9031   4.2059   4.2079
     4.3187   4.3564   4.3637   4.5094   4.5119   4.7446   4.7464   4.9496
     5.0032   5.1045   5.1458   5.1469   5.5618   5.5750   5.5862   5.5876
     5.6631   5.6696   5.7392   5.7433   5.7473   5.8520   5.8525   6.1747
     6.2070   6.2189   6.3019   6.3054   6.3997   6.6160   6.7391   6.7857
     6.8052   7.0047   7.0076   7.1695   7.1707   7.2734   7.2867   7.2995
     7.3375   7.3582   7.4975   7.5081   7.5610   7.7893   7.8852   7.9053
     7.9216   7.9295   7.9373   7.9414   7.9777   8.0175   8.0778   8.0815
     8.1030   8.1083   8.1999   8.4585   8.4773   8.4866   8.4877   8.5625
     8.7049   8.7166   8.7292   8.7908   8.8484   8.9628   9.0075   9.0778
     9.1247   9.1395   9.1641   9.2218   9.2317   9.2932   9.3480   9.3642
     9.4001   9.5378   9.5977   9.6102   9.6210   9.6719   9.7274   9.7390
     9.8346   9.9046   9.9716  10.0254  10.0817  10.1094  10.1488  10.2041
    10.2297  10.2449  10.2643  10.3030  10.3578  10.4058  10.4359  10.4974
    10.5558  10.6169  10.6631  10.6856  10.7454  10.8348  10.8372  10.8671
    10.8906  10.9999  11.0481  11.0612  11.0793  11.0881  11.0900  11.1152
    11.1323  11.1441  11.1923  11.2845  11.3757  11.4529  11.5204  11.5421
    11.6534  11.6760

     occupation numbers 
     1.0000   1.0000   1.0000   1.0000   1.0000   1.0000   1.0000   1.0000
     1.0000   1.0000   1.0000   1.0000   1.0000   1.0000   1.0000   1.0000
     1.0000   1.0000   1.0000   1.0000   1.0000   1.0000   1.0000   1.0000
     1.0000   1.0000   1.0000   1.0000   1.0000   1.0000   1.0000   1.0000
     1.0000   1.0000   1.0000   1.0000   1.0000   1.0000   1.0000   1.0000
     1.0000   1.0000   1.0000   1.0000   1.0000   1.0000   1.0000   1.0000
     1.0000   1.0000   1.0000   1.0000   1.0000   1.0000   1.0000   1.0000
     1.0000   1.0000   1.0000   1.0000   1.0000   1.0000   1.0000   1.0000
     1.0000   1.0000   1.0000   1.0000   1.0000   1.0000   1.0000   1.0000
     1.0000   1.0000   1.0000   1.0000   1.0000   1.0000   1.0000   1.0000
     1.0000   1.0000   1.0000   1.0000   1.0000   1.0000   1.0000   1.0000
     1.0000   1.0000   1.0000   1.0000   1.0000   1.0000   1.0000   1.0000
     1.0000   1.0000   1.0000   1.0000   1.0000   1.0000   1.0000   1.0000
     1.0000   1.0000   1.0000   1.0000   1.0000   1.0000   1.0000   1.0000
     1.0000   1.0000   1.0000   1.0000   1.0000   1.0000   1.0000   1.0000
     1.0000   1.0000   1.0000   1.0000   1.0000   1.0000   1.0000   1.0000
     1.0000   1.0000   1.0000   1.0000   1.0000   1.0000   1.0000   1.0000
     1.0000   1.0000   1.0000   1.0000   1.0000   1.0000   1.0000   1.0000
     1.0000   1.0000   1.0000   1.0000   1.0000   1.0000   1.0000   1.0000
     1.0000   1.0000   1.0000   1.0000   1.0000   1.0000   1.0000   1.0000
     1.0000   1.0000   1.0000   1.0000   1.0000   1.0000   1.0000   1.0000
     1.0000   1.0000   1.0000   1.0000   1.0000   1.0000   1.0000   1.0000
     1.0000   1.0000   1.0000   1.0000   1.0000   1.0000   1.0000   1.0000
     1.0000   1.0000   1.0000   1.0000   1.0000   1.0000   1.0000   1.0000
     1.0000   1.0000   1.0000   1.0000   1.0000   1.0000   1.0000   1.0000
     1.0000   1.0000   1.0000   1.0000   1.0000   1.0000   1.0000   1.0000
     1.0000   1.0000   1.0000   1.0000   1.0000   1.0000   1.0000   1.0000
     1.0000   1.0000   1.0000   1.0000   1.0000   1.0000   1.0000   1.0000
     1.0000   1.0000   1.0000   1.0000   1.0000   1.0000   1.0000   1.0000
     1.0000   1.0000   1.0000   1.0000   1.0000   1.0000   1.0000   1.0000
     1.0000   1.0000   1.0000   1.0000   1.0000   1.0000   1.0000   1.0000
     1.0000   1.0000   1.0000   1.0000   1.0000   1.0000   1.0000   1.0000
     1.0000   1.0000   1.0000   1.0000   1.0000   1.0000   1.0000   1.0000
     1.0000   1.0000   1.0000   1.0000   1.0000   1.0000   1.0000   1.0000
     1.0000   1.0000   1.0000   1.0000   1.0000   1.0000   1.0000   1.0000
     1.0000   1.0000   1.0000   1.0000   1.0000   1.0000   1.0000   1.0000
     1.0000   1.0000   1.0000   1.0000   1.0000   1.0000   1.0000   1.0000
     1.0000   1.0000   1.0000   1.0000   1.0000   1.0000   1.0000   1.0000
     1.0000   1.0000   1.0000   1.0000   1.0000   1.0000   1.0000   1.0000
     1.0000   1.0000   1.0000   1.0000   1.0000   1.0000   1.0000   1.0000
     1.0000   1.0000   1.0000   1.0000   1.0000   1.0000   1.0000   1.0000
     1.0000   1.0000   1.0000   1.0000   1.0000   1.0000   1.0000   1.0000
     1.0000   1.0000   1.0000   1.0000   1.0000   1.0000   1.0000   1.0000
     1.0000   1.0000   1.0000   1.0000   1.0000   1.0000   1.0000   1.0000
     1.0000   1.0000   1.0000   1.0000   1.0000   1.0000   1.0000   1.0000
     1.0000   1.0000   1.0000   1.0000   1.0000   1.0000   1.0000   1.0000
     1.0000   1.0000   1.0000   1.0000   1.0000   1.0000   1.0000   1.0000
     1.0000   1.0000   1.0000   1.0000   1.0000   1.0000   1.0000   1.0000
     1.0000   1.0000   1.0000   1.0000   1.0000   1.0000   1.0000   1.0000
     1.0000   1.0000   1.0000   1.0000   1.0000   1.0000   1.0000   1.0000
     1.0000   1.0000   1.0000   1.0000   1.0000   1.0000   1.0000   1.0000
     1.0000   1.0000   1.0000   1.0000   1.0000   1.0000   1.0000   1.0000
     1.0000   1.0000   1.0000   1.0000   1.0000   1.0000   1.0000   1.0000
     1.0000   1.0000   1.0000   1.0000   1.0000   1.0000   1.0000   1.0000
     1.0000   1.0000   1.0000   1.0000   1.0000   1.0000   1.0000   1.0000
     1.0000   1.0000   1.0000   1.0000   1.0000   1.0000   1.0000   1.0000
     1.0000   1.0000   1.0000   1.0000   1.0000   1.0000   1.0000   1.0000
     1.0000   1.0000   1.0000   1.0000   1.0000   1.0000   1.0000   1.0000
     1.0000   1.0000   1.0000   1.0000   1.0000   1.0000   1.0000   1.0000
     1.0000   1.0000   1.0000   1.0000   1.0000   1.0000   1.0000   1.0000
     1.0000   1.0000   1.0000   1.0000   1.0000   1.0000   1.0000   1.0000
     1.0000   1.0000   1.0000   1.0000   1.0000   1.0000   1.0000   1.0000
     1.0000   1.0000   1.0000   1.0000   1.0000   1.0000   1.0000   1.0000
     1.0000   1.0000   1.0000   1.0000   1.0000   1.0000   1.0000   1.0000
     1.0000   1.0000   1.0000   1.0000   1.0000   1.0000   1.0000   1.0000
     1.0000   1.0000   1.0000   1.0000   1.0000   1.0000   1.0000   1.0000
     1.0000   1.0000   1.0000   1.0000   1.0000   1.0000   1.0000   1.0000
     1.0000   1.0000   1.0000   1.0000   1.0000   1.0000   1.0000   1.0000
     1.0000   1.0000   1.0000   1.0000   1.0000   1.0000   1.0000   1.0000
     1.0000   1.0000   1.0000   1.0000   1.0000   1.0000   1.0000   1.0000
     1.0000   1.0000   1.0000   1.0000   1.0000   1.0000   1.0000   1.0000
     1.0000   1.0000   1.0000   1.0000   1.0000   1.0000   1.0000   1.0000
     1.0000   1.0000   1.0000   1.0000   1.0000   1.0000   1.0000   1.0000
     1.0000   1.0000   1.0000   1.0000   1.0000   1.0000   1.0000   1.0000
     1.0000   1.0000   1.0000   1.0000   1.0000   1.0000   1.0000   1.0000
     1.0000   1.0000   1.0000   1.0000   1.0000   1.0000   1.0000   1.0000
     1.0000   1.0000   1.0000   1.0000   1.0000   1.0000   1.0000   1.0000
     1.0000   1.0000   1.0000   1.0000   1.0000   1.0000   1.0000   1.0000
     1.0000   1.0000   1.0000   1.0000   1.0000   1.0000   1.0000   1.0000
     1.0000   1.0000   1.0000   1.0000   1.0000   1.0000   1.0000   1.0000
     1.0000   1.0000   1.0000   1.0000   1.0000   1.0000   1.0000   1.0000
     1.0000   1.0000   1.0000   1.0000   1.0000   1.0000   1.0000   1.0000
     1.0000   1.0001   1.0001   1.0004   0.6300   0.6278   0.0572   0.0559
     0.0131   0.0074   0.0066   0.0005   0.0005   0.0000   0.0000   0.0000
     0.0000   0.0000   0.0000   0.0000   0.0000   0.0000   0.0000   0.0000
     0.0000   0.0000   0.0000   0.0000   0.0000   0.0000   0.0000   0.0000
     0.0000   0.0000   0.0000   0.0000   0.0000   0.0000   0.0000   0.0000
     0.0000   0.0000   0.0000   0.0000   0.0000   0.0000   0.0000   0.0000
     0.0000   0.0000   0.0000   0.0000   0.0000   0.0000   0.0000   0.0000
     0.0000   0.0000   0.0000   0.0000   0.0000   0.0000   0.0000   0.0000
     0.0000   0.0000   0.0000   0.0000   0.0000   0.0000   0.0000   0.0000
     0.0000   0.0000   0.0000   0.0000   0.0000   0.0000   0.0000   0.0000
     0.0000   0.0000   0.0000   0.0000   0.0000   0.0000   0.0000   0.0000
     0.0000   0.0000   0.0000   0.0000   0.0000   0.0000   0.0000   0.0000
     0.0000   0.0000   0.0000   0.0000   0.0000   0.0000   0.0000   0.0000
     0.0000   0.0000   0.0000   0.0000   0.0000   0.0000   0.0000   0.0000
     0.0000   0.0000   0.0000   0.0000   0.0000   0.0000   0.0000   0.0000
     0.0000   0.0000   0.0000   0.0000   0.0000   0.0000   0.0000   0.0000
     0.0000   0.0000   0.0000   0.0000   0.0000   0.0000   0.0000   0.0000
     0.0000   0.0000

          k = 0.3333 0.1925 0.0000 ( 90604 PWs)   bands (ev):

  -122.8814-122.8804-122.8801-122.8796-122.8792-122.8789-122.8785-122.8784
  -122.8782-122.8779-122.8777-122.8774-122.8772-122.8771-122.8768-122.8766
  -122.8456-122.8447-122.8381-122.8365-122.8357-122.8355-122.8348-122.8344
  -122.8339-122.8326-122.8324-122.8316-122.8310-122.8299-122.8292-122.8287
  -122.6837-122.6789-122.6783-122.6775-122.6771-122.6769-122.6764-122.6763
  -122.6760-122.6757-122.6754-122.6752-122.6750-122.6749-122.6745-122.6736
  -122.6731-122.6689-122.6675-122.6625-122.6616-122.6533-122.6512-122.6506
  -122.6503-122.6497-122.6482-122.6479-122.6472-122.6467-122.6463-122.6446
   -77.0441 -77.0441 -77.0430 -77.0409 -77.0409 -77.0393 -77.0391 -77.0366
   -77.0365 -77.0362 -77.0328 -77.0324 -77.0324 -77.0318 -77.0313 -77.0309
   -77.0303 -77.0300 -77.0297 -77.0294 -77.0294 -77.0293 -77.0292 -77.0289
   -77.0287 -77.0285 -77.0282 -77.0281 -77.0278 -77.0276 -77.0240 -77.0239
   -77.0235 -77.0234 -77.0209 -77.0208 -77.0201 -77.0200 -77.0187 -77.0183
   -77.0168 -77.0166 -77.0163 -77.0140 -77.0139 -77.0121 -77.0120 -77.0103
   -77.0043 -77.0029 -77.0016 -76.9980 -76.9974 -76.9968 -76.9959 -76.9957
   -76.9946 -76.9921 -76.9918 -76.9913 -76.9892 -76.9886 -76.9875 -76.9875
   -76.9867 -76.9866 -76.9863 -76.9858 -76.9855 -76.9850 -76.9848 -76.9837
   -76.9835 -76.9833 -76.9826 -76.9820 -76.9815 -76.9809 -76.9805 -76.9803
   -76.9797 -76.9793 -76.9777 -76.9769 -76.9760 -76.9751 -76.9742 -76.9734
   -76.9726 -76.9720 -76.9703 -76.9693 -76.9689 -76.9670 -76.9657 -76.9650
   -76.8437 -76.8392 -76.8390 -76.8381 -76.8378 -76.8371 -76.8362 -76.8359
   -76.8359 -76.8357 -76.8356 -76.8351 -76.8350 -76.8346 -76.8343 -76.8343
   -76.8341 -76.8340 -76.8339 -76.8338 -76.8335 -76.8334 -76.8330 -76.8320
   -76.8320 -76.8315 -76.8314 -76.8314 -76.8313 -76.8294 -76.8281 -76.8274
   -76.8273 -76.8243 -76.8243 -76.8230 -76.8220 -76.8209 -76.8192 -76.8191
   -76.8189 -76.8185 -76.8184 -76.8182 -76.8161 -76.8158 -76.8153 -76.8148
   -76.8137 -76.8135 -76.8135 -76.8132 -76.8120 -76.8118 -76.8116 -76.8113
   -76.8111 -76.8108 -76.8107 -76.8103 -76.8098 -76.8095 -76.8091 -76.8089
   -76.8084 -76.8079 -76.8078 -76.8074 -76.8071 -76.8070 -76.8068 -76.8066
   -76.8062 -76.8052 -76.8046 -76.8045 -76.8030 -76.8016 -76.8006 -76.7989
   -76.7977 -76.7965 -76.7946 -76.7935 -76.7913 -76.7899 -76.7887 -76.7875
   -76.7872 -76.7865 -76.7843 -76.7841 -76.7826 -76.7815 -76.7797 -76.7788
   -15.5146 -14.0884 -13.2654 -10.9008 -10.8029  -7.8921  -7.6168  -6.2979
    -5.7254  -5.6908  -5.5200  -5.1711  -5.1526  -5.1447  -5.1274  -4.9857
    -4.8550  -4.7906  -4.6891  -4.6480  -4.6436  -4.6435  -4.6312  -4.5965
    -4.5938  -4.5886  -4.5882  -4.5861  -4.5859  -4.5604  -4.5542  -4.5023
    -4.4947  -4.4692  -4.4692  -4.4506  -4.4498  -4.4405  -4.4405  -4.4226
    -4.4164  -4.3933  -4.3930  -4.3799  -4.3796  -4.3765  -4.3762  -4.3521
    -4.3513  -4.3512  -4.3397  -4.3396  -4.3274  -4.3274  -4.3219  -4.3202
    -4.3198  -4.3051  -4.3050  -4.2876  -4.2856  -4.2757  -4.2752  -4.2696
    -4.2695  -4.2540  -4.2514  -4.2511  -4.2494  -4.2485  -4.2363  -4.2357
    -4.2350  -4.2031  -4.2028  -4.1978  -4.1968  -4.1807  -4.1796  -4.1772
    -4.1762  -4.1717  -4.1700  -4.1696  -4.1246  -4.1234  -4.1198  -4.1189
    -4.1145  -4.0967  -4.0951  -4.0940  -4.0936  -4.0822  -4.0822  -4.0733
    -4.0544  -4.0538  -4.0481  -4.0457  -4.0452  -4.0449  -4.0396  -4.0385
    -4.0366  -4.0184  -4.0179  -4.0093  -4.0091  -4.0075  -4.0035  -4.0016
    -4.0007  -4.0002  -3.9992  -3.9885  -3.9878  -3.9776  -3.9764  -3.9756
    -3.9572  -3.9358  -3.9284  -3.9266  -3.9198  -3.9079  -3.9069  -3.9042
    -3.9035  -3.9020  -3.8964  -3.8958  -3.8929  -3.8909  -3.8905  -3.8775
    -3.8662  -3.8659  -3.8607  -3.8604  -3.8417  -3.8410  -3.8275  -3.8235
    -3.8196  -3.8160  -3.8149  -3.8122  -3.8115  -3.7925  -3.7915  -3.7865
    -3.7843  -3.7742  -3.7729  -3.7694  -3.7492  -3.7489  -3.7476  -3.7448
    -3.7435  -3.7350  -3.7315  -3.7211  -3.7203  -3.7200  -3.7183  -3.7178
    -3.6901  -3.6900  -3.6875  -3.6870  -3.6849  -3.6693  -3.6669  -3.6651
    -3.6648  -3.6470  -3.6416  -3.6326  -3.6325  -3.6133  -3.6127  -3.6117
    -3.6110  -3.6107  -3.6073  -3.6072  -3.6037  -3.6014  -3.6004  -3.5913
    -3.5911  -3.5799  -3.5796  -3.5744  -3.5741  -3.5725  -3.5721  -3.5608
    -3.5606  -3.5525  -3.5519  -3.5507  -3.5491  -3.5481  -3.5405  -3.5396
    -3.5327  -3.5268  -3.5264  -3.5149  -3.5135  -3.5084  -3.5080  -3.5075
    -3.4996  -3.4992  -3.4960  -3.4946  -3.4920  -3.4909  -3.4904  -3.4860
    -3.4859  -3.4697  -3.4682  -3.4672  -3.4663  -3.4661  -3.4655  -3.4618
    -3.4607  -3.4601  -3.4505  -3.4328  -3.4323  -3.4315  -3.4291  -3.4285
    -3.4110  -3.4104  -3.4015  -3.4013  -3.3785  -3.3753  -3.3747  -3.3709
    -3.3703  -3.3697  -3.3685  -3.3657  -3.3634  -3.3628  -3.3620  -3.3614
    -3.3542  -3.3541  -3.3482  -3.3445  -3.3441  -3.3430  -3.3428  -3.3401
    -3.3393  -3.3328  -3.3323  -3.3305  -3.3299  -3.3285  -3.3211  -3.3136
    -3.3135  -3.3065  -3.3064  -3.2903  -3.2879  -3.2872  -3.2794  -3.2772
    -3.2768  -3.2765  -3.2759  -3.2540  -3.2510  -3.2467  -3.2458  -3.2420
    -3.2419  -3.2376  -3.2367  -3.2366  -3.2363  -3.2353  -3.2348  -3.2312
    -3.2306  -3.2244  -3.2206  -3.2203  -3.2198  -3.2166  -3.2159  -3.2151
    -3.2089  -3.2060  -3.2059  -3.1932  -3.1927  -3.1924  -3.1918  -3.1858
    -3.1854  -3.1747  -3.1614  -3.1614  -3.1467  -3.1311  -3.1308  -3.1236
    -3.1234  -3.1055  -3.1033  -3.1031  -3.1027  -3.1002  -3.1000  -3.0934
    -3.0847  -3.0827  -3.0785  -3.0339  -3.0309  -3.0002  -2.9772  -2.9772
    -2.9557  -2.9555  -2.9422  -2.9201  -2.8313  -2.8307  -2.7711  -2.6007
    -2.4937  -2.3020  -2.1721  -2.1661  -2.1129  -1.8241  -1.8128  -1.7668
    -1.6749  -1.6736  -1.6650  -0.9240  -0.8959  -0.8919  -0.8567  -0.7435
    -0.7242  -0.7119  -0.6594  -0.4140  -0.1735  -0.0952   0.0672   0.0706
     0.1328   0.1330   0.1744   0.3182   0.5049   0.5290   0.5571   0.6243
     0.6247   0.9666   0.9671   1.1193   1.1221   1.2605   1.4192   1.4207
     1.4282   1.5730   1.6450   2.0715   2.0735   2.2226   2.2944   2.2985
     2.3526   2.3566   2.5831   2.6034   2.6295   2.9122   2.9165   2.9716
     2.9850   3.0393   3.0400   3.0895   3.9025   3.9029   4.2060   4.2078
     4.3189   4.3566   4.3633   4.5096   4.5120   4.7449   4.7464   4.9495
     5.0031   5.1043   5.1460   5.1469   5.5620   5.5752   5.5864   5.5877
     5.6634   5.6693   5.7390   5.7426   5.7475   5.8522   5.8526   6.1748
     6.2070   6.2182   6.3021   6.3055   6.3991   6.6160   6.7410   6.7850
     6.8060   7.0048   7.0073   7.1694   7.1708   7.2729   7.2872   7.2982
     7.3356   7.3623   7.4983   7.5075   7.5604   7.7916   7.8851   7.9071
     7.9191   7.9296   7.9361   7.9414   7.9763   8.0193   8.0777   8.0818
     8.1028   8.1071   8.1952   8.4420   8.4794   8.4864   8.4871   8.5859
     8.7082   8.7185   8.7413   8.8000   8.8268   8.9616   9.0180   9.0605
     9.1189   9.1370   9.1576   9.2260   9.2313   9.2998   9.3476   9.3630
     9.3872   9.5455   9.5843   9.6095   9.6183   9.6680   9.7289   9.7377
     9.8619   9.9210   9.9687  10.0307  10.0831  10.1080  10.1521  10.1872
    10.2293  10.2454  10.2647  10.3131  10.3463  10.4060  10.4243  10.4889
    10.5565  10.6233  10.6504  10.6879  10.7332  10.8352  10.8371  10.8710
    10.9009  10.9998  11.0240  11.0620  11.0774  11.0873  11.0903  11.1074
    11.1271  11.1436  11.2254  11.2819  11.3891  11.4550  11.5044  11.5481
    11.6681  11.6845

     occupation numbers 
     1.0000   1.0000   1.0000   1.0000   1.0000   1.0000   1.0000   1.0000
     1.0000   1.0000   1.0000   1.0000   1.0000   1.0000   1.0000   1.0000
     1.0000   1.0000   1.0000   1.0000   1.0000   1.0000   1.0000   1.0000
     1.0000   1.0000   1.0000   1.0000   1.0000   1.0000   1.0000   1.0000
     1.0000   1.0000   1.0000   1.0000   1.0000   1.0000   1.0000   1.0000
     1.0000   1.0000   1.0000   1.0000   1.0000   1.0000   1.0000   1.0000
     1.0000   1.0000   1.0000   1.0000   1.0000   1.0000   1.0000   1.0000
     1.0000   1.0000   1.0000   1.0000   1.0000   1.0000   1.0000   1.0000
     1.0000   1.0000   1.0000   1.0000   1.0000   1.0000   1.0000   1.0000
     1.0000   1.0000   1.0000   1.0000   1.0000   1.0000   1.0000   1.0000
     1.0000   1.0000   1.0000   1.0000   1.0000   1.0000   1.0000   1.0000
     1.0000   1.0000   1.0000   1.0000   1.0000   1.0000   1.0000   1.0000
     1.0000   1.0000   1.0000   1.0000   1.0000   1.0000   1.0000   1.0000
     1.0000   1.0000   1.0000   1.0000   1.0000   1.0000   1.0000   1.0000
     1.0000   1.0000   1.0000   1.0000   1.0000   1.0000   1.0000   1.0000
     1.0000   1.0000   1.0000   1.0000   1.0000   1.0000   1.0000   1.0000
     1.0000   1.0000   1.0000   1.0000   1.0000   1.0000   1.0000   1.0000
     1.0000   1.0000   1.0000   1.0000   1.0000   1.0000   1.0000   1.0000
     1.0000   1.0000   1.0000   1.0000   1.0000   1.0000   1.0000   1.0000
     1.0000   1.0000   1.0000   1.0000   1.0000   1.0000   1.0000   1.0000
     1.0000   1.0000   1.0000   1.0000   1.0000   1.0000   1.0000   1.0000
     1.0000   1.0000   1.0000   1.0000   1.0000   1.0000   1.0000   1.0000
     1.0000   1.0000   1.0000   1.0000   1.0000   1.0000   1.0000   1.0000
     1.0000   1.0000   1.0000   1.0000   1.0000   1.0000   1.0000   1.0000
     1.0000   1.0000   1.0000   1.0000   1.0000   1.0000   1.0000   1.0000
     1.0000   1.0000   1.0000   1.0000   1.0000   1.0000   1.0000   1.0000
     1.0000   1.0000   1.0000   1.0000   1.0000   1.0000   1.0000   1.0000
     1.0000   1.0000   1.0000   1.0000   1.0000   1.0000   1.0000   1.0000
     1.0000   1.0000   1.0000   1.0000   1.0000   1.0000   1.0000   1.0000
     1.0000   1.0000   1.0000   1.0000   1.0000   1.0000   1.0000   1.0000
     1.0000   1.0000   1.0000   1.0000   1.0000   1.0000   1.0000   1.0000
     1.0000   1.0000   1.0000   1.0000   1.0000   1.0000   1.0000   1.0000
     1.0000   1.0000   1.0000   1.0000   1.0000   1.0000   1.0000   1.0000
     1.0000   1.0000   1.0000   1.0000   1.0000   1.0000   1.0000   1.0000
     1.0000   1.0000   1.0000   1.0000   1.0000   1.0000   1.0000   1.0000
     1.0000   1.0000   1.0000   1.0000   1.0000   1.0000   1.0000   1.0000
     1.0000   1.0000   1.0000   1.0000   1.0000   1.0000   1.0000   1.0000
     1.0000   1.0000   1.0000   1.0000   1.0000   1.0000   1.0000   1.0000
     1.0000   1.0000   1.0000   1.0000   1.0000   1.0000   1.0000   1.0000
     1.0000   1.0000   1.0000   1.0000   1.0000   1.0000   1.0000   1.0000
     1.0000   1.0000   1.0000   1.0000   1.0000   1.0000   1.0000   1.0000
     1.0000   1.0000   1.0000   1.0000   1.0000   1.0000   1.0000   1.0000
     1.0000   1.0000   1.0000   1.0000   1.0000   1.0000   1.0000   1.0000
     1.0000   1.0000   1.0000   1.0000   1.0000   1.0000   1.0000   1.0000
     1.0000   1.0000   1.0000   1.0000   1.0000   1.0000   1.0000   1.0000
     1.0000   1.0000   1.0000   1.0000   1.0000   1.0000   1.0000   1.0000
     1.0000   1.0000   1.0000   1.0000   1.0000   1.0000   1.0000   1.0000
     1.0000   1.0000   1.0000   1.0000   1.0000   1.0000   1.0000   1.0000
     1.0000   1.0000   1.0000   1.0000   1.0000   1.0000   1.0000   1.0000
     1.0000   1.0000   1.0000   1.0000   1.0000   1.0000   1.0000   1.0000
     1.0000   1.0000   1.0000   1.0000   1.0000   1.0000   1.0000   1.0000
     1.0000   1.0000   1.0000   1.0000   1.0000   1.0000   1.0000   1.0000
     1.0000   1.0000   1.0000   1.0000   1.0000   1.0000   1.0000   1.0000
     1.0000   1.0000   1.0000   1.0000   1.0000   1.0000   1.0000   1.0000
     1.0000   1.0000   1.0000   1.0000   1.0000   1.0000   1.0000   1.0000
     1.0000   1.0000   1.0000   1.0000   1.0000   1.0000   1.0000   1.0000
     1.0000   1.0000   1.0000   1.0000   1.0000   1.0000   1.0000   1.0000
     1.0000   1.0000   1.0000   1.0000   1.0000   1.0000   1.0000   1.0000
     1.0000   1.0000   1.0000   1.0000   1.0000   1.0000   1.0000   1.0000
     1.0000   1.0000   1.0000   1.0000   1.0000   1.0000   1.0000   1.0000
     1.0000   1.0000   1.0000   1.0000   1.0000   1.0000   1.0000   1.0000
     1.0000   1.0000   1.0000   1.0000   1.0000   1.0000   1.0000   1.0000
     1.0000   1.0000   1.0000   1.0000   1.0000   1.0000   1.0000   1.0000
     1.0000   1.0000   1.0000   1.0000   1.0000   1.0000   1.0000   1.0000
     1.0000   1.0000   1.0000   1.0000   1.0000   1.0000   1.0000   1.0000
     1.0000   1.0000   1.0000   1.0000   1.0000   1.0000   1.0000   1.0000
     1.0000   1.0000   1.0000   1.0000   1.0000   1.0000   1.0000   1.0000
     1.0000   1.0000   1.0000   1.0000   1.0000   1.0000   1.0000   1.0000
     1.0000   1.0000   1.0000   1.0000   1.0000   1.0000   1.0000   1.0000
     1.0000   1.0000   1.0000   1.0000   1.0000   1.0000   1.0000   1.0000
     1.0000   1.0000   1.0000   1.0000   1.0000   1.0000   1.0000   1.0000
     1.0000   1.0000   1.0000   1.0000   1.0000   1.0000   1.0000   1.0000
     1.0000   1.0000   1.0000   1.0000   1.0000   1.0000   1.0000   1.0000
     1.0000   1.0000   1.0000   1.0000   1.0000   1.0000   1.0000   1.0000
     1.0000   1.0000   1.0000   1.0000   1.0000   1.0000   1.0000   1.0000
[...]
     atom   76 type  4   force =     0.00000000    0.00000000    0.00000000
     atom   77 type  4   force =     0.00000000    0.00000000    0.00000000
     atom   78 type  4   force =     0.00000000    0.00000000    0.00000000
     atom   79 type  4   force =     0.00000000    0.00000000    0.00000000
     The Hubbard contrib.    to forces
     atom    1 type  1   force =     0.00000000    0.00000000    0.00000000
     atom    2 type  1   force =     0.00000000    0.00000000    0.00000000
     atom    3 type  1   force =     0.00000000    0.00000000    0.00000000
     atom    4 type  1   force =     0.00000000    0.00000000    0.00000000
     atom    5 type  1   force =     0.00000000    0.00000000    0.00000000
     atom    6 type  1   force =     0.00000000    0.00000000    0.00000000
     atom    7 type  1   force =     0.00000000    0.00000000    0.00000000
     atom    8 type  1   force =     0.00000000    0.00000000    0.00000000
     atom    9 type  1   force =     0.00000000    0.00000000    0.00000000
     atom   10 type  1   force =     0.00000000    0.00000000    0.00000000
     atom   11 type  1   force =     0.00000000    0.00000000    0.00000000
     atom   12 type  1   force =     0.00000000    0.00000000    0.00000000
     atom   13 type  1   force =     0.00000000    0.00000000    0.00000000
     atom   14 type  1   force =     0.00000000    0.00000000    0.00000000
     atom   15 type  1   force =     0.00000000    0.00000000    0.00000000
     atom   16 type  1   force =     0.00000000    0.00000000    0.00000000
     atom   17 type  1   force =     0.00000000    0.00000000    0.00000000
     atom   18 type  1   force =     0.00000000    0.00000000    0.00000000
     atom   19 type  1   force =     0.00000000    0.00000000    0.00000000
     atom   20 type  1   force =     0.00000000    0.00000000    0.00000000
     atom   21 type  1   force =     0.00000000    0.00000000    0.00000000
     atom   22 type  1   force =     0.00000000    0.00000000    0.00000000
     atom   23 type  1   force =     0.00000000    0.00000000    0.00000000
     atom   24 type  1   force =     0.00000000    0.00000000    0.00000000
     atom   25 type  1   force =     0.00000000    0.00000000    0.00000000
     atom   26 type  1   force =     0.00000000    0.00000000    0.00000000
     atom   27 type  1   force =     0.00000000    0.00000000    0.00000000
     atom   28 type  1   force =     0.00000000    0.00000000    0.00000000
     atom   29 type  1   force =     0.00000000    0.00000000    0.00000000
     atom   30 type  1   force =     0.00000000    0.00000000    0.00000000
     atom   31 type  1   force =     0.00000000    0.00000000    0.00000000
     atom   32 type  1   force =     0.00000000    0.00000000    0.00000000
     atom   33 type  1   force =     0.00000000    0.00000000    0.00000000
     atom   34 type  1   force =     0.00000000    0.00000000    0.00000000
     atom   35 type  1   force =     0.00000000    0.00000000    0.00000000
     atom   36 type  1   force =     0.00000000    0.00000000    0.00000000
     atom   37 type  1   force =     0.00000000    0.00000000    0.00000000
     atom   38 type  1   force =     0.00000000    0.00000000    0.00000000
     atom   39 type  1   force =     0.00000000    0.00000000    0.00000000
     atom   40 type  1   force =     0.00000000    0.00000000    0.00000000
     atom   41 type  1   force =     0.00000000    0.00000000    0.00000000
     atom   42 type  1   force =     0.00000000    0.00000000    0.00000000
     atom   43 type  1   force =     0.00000000    0.00000000    0.00000000
     atom   44 type  1   force =     0.00000000    0.00000000    0.00000000
     atom   45 type  1   force =     0.00000000    0.00000000    0.00000000
     atom   46 type  1   force =     0.00000000    0.00000000    0.00000000
     atom   47 type  1   force =     0.00000000    0.00000000    0.00000000
     atom   48 type  1   force =     0.00000000    0.00000000    0.00000000
     atom   49 type  1   force =     0.00000000    0.00000000    0.00000000
     atom   50 type  1   force =     0.00000000    0.00000000    0.00000000
     atom   51 type  1   force =     0.00000000    0.00000000    0.00000000
     atom   52 type  1   force =     0.00000000    0.00000000    0.00000000
     atom   53 type  1   force =     0.00000000    0.00000000    0.00000000
     atom   54 type  1   force =     0.00000000    0.00000000    0.00000000
     atom   55 type  1   force =     0.00000000    0.00000000    0.00000000
     atom   56 type  1   force =     0.00000000    0.00000000    0.00000000
     atom   57 type  1   force =     0.00000000    0.00000000    0.00000000
     atom   58 type  1   force =     0.00000000    0.00000000    0.00000000
     atom   59 type  1   force =     0.00000000    0.00000000    0.00000000
     atom   60 type  1   force =     0.00000000    0.00000000    0.00000000
     atom   61 type  1   force =     0.00000000    0.00000000    0.00000000
     atom   62 type  1   force =     0.00000000    0.00000000    0.00000000
     atom   63 type  1   force =     0.00000000    0.00000000    0.00000000
     atom   64 type  1   force =     0.00000000    0.00000000    0.00000000
     atom   65 type  2   force =     0.00000000    0.00000000    0.00000000
     atom   66 type  2   force =     0.00000000    0.00000000    0.00000000
     atom   67 type  2   force =     0.00000000    0.00000000    0.00000000
     atom   68 type  2   force =     0.00000000    0.00000000    0.00000000
     atom   69 type  2   force =     0.00000000    0.00000000    0.00000000
     atom   70 type  2   force =     0.00000000    0.00000000    0.00000000
     atom   71 type  2   force =     0.00000000    0.00000000    0.00000000
     atom   72 type  3   force =     0.00000000    0.00000000    0.00000000
     atom   73 type  3   force =     0.00000000    0.00000000    0.00000000
     atom   74 type  4   force =     0.00000000    0.00000000    0.00000000
     atom   75 type  4   force =     0.00000000    0.00000000    0.00000000
     atom   76 type  4   force =     0.00000000    0.00000000    0.00000000
     atom   77 type  4   force =     0.00000000    0.00000000    0.00000000
     atom   78 type  4   force =     0.00000000    0.00000000    0.00000000
     atom   79 type  4   force =     0.00000000    0.00000000    0.00000000
     The SCF correction term to forces
     atom    1 type  1   force =    -0.00017632   -0.00014526    0.00062034
     atom    2 type  1   force =     0.00017039   -0.00053058    0.00016462
     atom    3 type  1   force =    -0.00041684   -0.00025401   -0.00061874
     atom    4 type  1   force =     0.00043550   -0.00071591   -0.00008703
     atom    5 type  1   force =     0.00026207   -0.00001654    0.00052647
     atom    6 type  1   force =    -0.00029281    0.00017580    0.00002401
     atom    7 type  1   force =    -0.00006088   -0.00004780   -0.00051537
     atom    8 type  1   force =     0.00005211   -0.00003256   -0.00018725
     atom    9 type  1   force =     0.00028013    0.00023029    0.00048434
     atom   10 type  1   force =    -0.00028461    0.00042985    0.00038613
     atom   11 type  1   force =     0.00034705    0.00021090   -0.00046743
     atom   12 type  1   force =    -0.00038251    0.00074967   -0.00059529
     atom   13 type  1   force =    -0.00013287    0.00006954    0.00056980
     atom   14 type  1   force =     0.00015051   -0.00022119    0.00051264
     atom   15 type  1   force =    -0.00001040    0.00001084   -0.00056374
     atom   16 type  1   force =     0.00000501    0.00007835   -0.00049823
     atom   17 type  1   force =    -0.00051432   -0.00038604    0.00030575
     atom   18 type  1   force =     0.00051886   -0.00027679    0.00049006
     atom   19 type  1   force =    -0.00040086   -0.00075639   -0.00037092
     atom   20 type  1   force =     0.00038560   -0.00022071   -0.00033976
     atom   21 type  1   force =    -0.00053539    0.00002652    0.00038649
     atom   22 type  1   force =     0.00056460    0.00013640    0.00017784
     atom   23 type  1   force =    -0.00084595   -0.00004912   -0.00059491
     atom   24 type  1   force =     0.00083933   -0.00002267   -0.00010598
     atom   25 type  1   force =    -0.00010045    0.00003475    0.00054774
     atom   26 type  1   force =     0.00009590    0.00062520    0.00032039
     atom   27 type  1   force =    -0.00041069    0.00023665   -0.00067695
     atom   28 type  1   force =     0.00045390    0.00072049   -0.00039186
     atom   29 type  1   force =    -0.00007869   -0.00037517    0.00047106
     atom   30 type  1   force =     0.00005837    0.00023151    0.00062299
     atom   31 type  1   force =    -0.00000998   -0.00040163   -0.00044807
     atom   32 type  1   force =     0.00001344    0.00049751   -0.00062310
     atom   33 type  1   force =    -0.00049082   -0.00033524   -0.00025036
     atom   34 type  1   force =     0.00051024   -0.00055503   -0.00012258
     atom   35 type  1   force =    -0.00011209   -0.00024358   -0.00042809
     atom   36 type  1   force =     0.00013738   -0.00000749   -0.00044810
     atom   37 type  1   force =    -0.00039790   -0.00014724   -0.00025307
     atom   38 type  1   force =     0.00040275   -0.00021506   -0.00023974
     atom   39 type  1   force =    -0.00043591   -0.00016873   -0.00042001
     atom   40 type  1   force =     0.00043073   -0.00025997    0.00004495
     atom   41 type  1   force =     0.00015488    0.00011948   -0.00012614
     atom   42 type  1   force =    -0.00016853    0.00075769   -0.00044789
     atom   43 type  1   force =    -0.00024066    0.00002246   -0.00053922
     atom   44 type  1   force =     0.00022292    0.00017846    0.00005705
     atom   45 type  1   force =     0.00003207   -0.00003890   -0.00013504
     atom   46 type  1   force =    -0.00005763    0.00041452   -0.00024300
     atom   47 type  1   force =     0.00007020   -0.00002620   -0.00054388
     atom   48 type  1   force =    -0.00008500    0.00046642   -0.00042307
     atom   49 type  1   force =    -0.00018009   -0.00084808   -0.00019425
     atom   50 type  1   force =     0.00015780   -0.00008005   -0.00015389
     atom   51 type  1   force =     0.00014682   -0.00033537   -0.00026525
     atom   52 type  1   force =    -0.00016834    0.00010120   -0.00059191
     atom   53 type  1   force =    -0.00075465   -0.00022193   -0.00044405
     atom   54 type  1   force =     0.00074583   -0.00013994   -0.00013692
     atom   55 type  1   force =    -0.00004818   -0.00029744    0.00005396
     atom   56 type  1   force =     0.00007672   -0.00012520   -0.00044222
     atom   57 type  1   force =    -0.00063418    0.00035230   -0.00033639
     atom   58 type  1   force =     0.00065695    0.00057512   -0.00021258
     atom   59 type  1   force =    -0.00034487    0.00019761   -0.00023486
     atom   60 type  1   force =     0.00036459    0.00003319   -0.00025751
     atom   61 type  1   force =    -0.00003542   -0.00021818   -0.00011445
     atom   62 type  1   force =     0.00006021    0.00058482   -0.00025058
     atom   63 type  1   force =    -0.00014215    0.00020786   -0.00054597
     atom   64 type  1   force =     0.00015781    0.00023422   -0.00042490
     atom   65 type  2   force =    -0.00018442    0.00012789    0.00027026
     atom   66 type  2   force =     0.00011714   -0.00007968   -0.00014016
     atom   67 type  2   force =     0.00005225   -0.00017117   -0.00012194
     atom   68 type  2   force =     0.00016676    0.00001972   -0.00013804
     atom   69 type  2   force =     0.00001365   -0.00004914   -0.00002702
     atom   70 type  2   force =     0.00004716    0.00000667   -0.00003229
     atom   71 type  2   force =    -0.00005444    0.00003812    0.00006413
     atom   72 type  3   force =    -0.00021297    0.00014726    0.00031887
     atom   73 type  3   force =    -0.00006910    0.00004624    0.00007311
     atom   74 type  4   force =     0.00000872    0.00001524   -0.00000382
     atom   75 type  4   force =    -0.00001004   -0.00001522   -0.00000171
     atom   76 type  4   force =     0.00000018   -0.00002350   -0.00000685
     atom   77 type  4   force =     0.00001979    0.00000896   -0.00000974
     atom   78 type  4   force =    -0.00001114   -0.00001212    0.00000910
     atom   79 type  4   force =     0.00000527    0.00001519    0.00000658

     Total force =     0.052000     Total SCF correction =     0.005184


     Computing stress (Cartesian axis) and pressure


     negative rho (up, down):  4.275E-03 0.000E+00
          total   stress  (Ry/bohr**3)                   (kbar)     P=       -2.00
  -0.00001705  -0.00000143   0.00000337           -2.51       -0.21        0.50
  -0.00000143  -0.00001903  -0.00000168           -0.21       -2.80       -0.25
   0.00000337  -0.00000168  -0.00000472            0.50       -0.25       -0.69

     kinetic stress (kbar)  17139.93    -11.08     37.70
                              -11.08  17121.64    -21.00
                               37.70    -21.00  17224.56

     local   stress (kbar)**********     -5.01   1373.14
                               -5.01**********   -808.80
                             1373.14   -808.801463768.18

     nonloc. stress (kbar)  -1607.34      0.05     -3.92
                                0.05  -1606.61      2.32
                               -3.92      2.32  -1670.53

     hartree stress (kbar) 760097.42    -17.17   -534.84
                              -17.17 760189.26    316.87
                             -534.84    316.87-684763.44

     exc-cor stress (kbar)  -8421.68      0.43     -2.02
                                0.43  -8420.87      1.14
                               -2.02      1.14  -8432.59

     corecor stress (kbar)    -83.33     -0.12      0.62
                               -0.12    -83.56     -0.35
                                0.62     -0.35    -83.38

     ewald   stress (kbar) 679880.75     32.69   -870.19
                               32.69 680084.69    509.58
                             -870.19    509.58-786043.48

     hubbard stress (kbar)      0.00      0.00      0.00
                                0.00      0.00      0.00
                                0.00      0.00      0.00

     DFT-D   stress (kbar)      0.00      0.00      0.00
                                0.00      0.00      0.00
                                0.00      0.00      0.00

     XDM     stress (kbar)      0.00      0.00      0.00
                                0.00      0.00      0.00
                                0.00      0.00      0.00

     dft-nl  stress (kbar)      0.00      0.00      0.00
                                0.00      0.00      0.00
                                0.00      0.00      0.00

     TS-vdW  stress (kbar)      0.00      0.00      0.00
                                0.00      0.00      0.00
                                0.00      0.00      0.00

     MDB     stress (kbar)      0.00      0.00      0.00
                                0.00      0.00      0.00
                                0.00      0.00      0.00

     3D-RISM stress (kbar)      0.00      0.00      0.00
                                0.00      0.00      0.00
                                0.00      0.00      0.00


     Writing all to output data dir ./tmp/Zn002_4x4x2_primitive_14Avacumn_topsite_tilted_ABN.save/ :
     XML data file, charge density, pseudopotentials, collected wavefunctions

     init_run     :    162.18s CPU    163.87s WALL (       1 calls)
     electrons    :  13525.80s CPU  13660.27s WALL (       1 calls)
     forces       :    133.67s CPU    134.25s WALL (       1 calls)
     stress       :    366.41s CPU    367.70s WALL (       1 calls)

     Called by init_run:
     wfcinit      :    161.11s CPU    162.74s WALL (       1 calls)
     wfcinit:atom :      0.10s CPU      0.17s WALL (       5 calls)
     wfcinit:wfcr :    159.88s CPU    161.37s WALL (       5 calls)
     potinit      :      0.11s CPU      0.12s WALL (       1 calls)
     hinit0       :      0.06s CPU      0.07s WALL (       1 calls)

     Called by electrons:
     c_bands      :  12701.88s CPU  12823.92s WALL (      22 calls)
     sum_band     :    805.63s CPU    817.62s WALL (      22 calls)
     v_of_rho     :      0.91s CPU      0.96s WALL (      22 calls)
     v_h          :      0.05s CPU      0.06s WALL (      22 calls)
     v_xc         :      0.93s CPU      0.99s WALL (      24 calls)
     newd         :     16.44s CPU     16.80s WALL (      22 calls)
     PAW_pot      :      1.45s CPU      1.46s WALL (      22 calls)
     mix_rho      :      0.24s CPU      0.25s WALL (      22 calls)

     Called by c_bands:
     init_us_2    :     10.93s CPU     10.97s WALL (     235 calls)
     cegterg      :  12682.12s CPU  12804.02s WALL (     110 calls)

     Called by sum_band:
     sum_band:wei :      0.09s CPU      0.09s WALL (      22 calls)
     sum_band:loo :    790.53s CPU    802.15s WALL (      22 calls)
     sum_band:buf :      1.99s CPU      2.00s WALL (     110 calls)
     sum_band:ini :      5.18s CPU      5.19s WALL (     110 calls)
     sum_band:cal :    714.58s CPU    717.29s WALL (     110 calls)
     sum_band:bec :      4.26s CPU      4.27s WALL (     110 calls)
     addusdens    :     14.56s CPU     14.89s WALL (      22 calls)
                                        0.00s GPU  (      22 calls)
     addusd:skk   :      0.21s CPU      0.21s WALL (      88 calls)
                                        0.00s GPU  (      88 calls)

     Called by *egterg:
     cdiaghg      :    893.05s CPU    929.61s WALL (     929 calls)
     cegterg:over :   1976.86s CPU   1983.33s WALL (     824 calls)
     cegterg:upda :   1070.05s CPU   1074.80s WALL (     824 calls)
     cegterg:last :   3229.20s CPU   3243.17s WALL (     237 calls)
     cdiaghg:chol :     56.85s CPU     57.00s WALL (     929 calls)
     cdiaghg:inve :      9.62s CPU      9.65s WALL (     929 calls)
     cdiaghg:para :    272.31s CPU    276.42s WALL (    1858 calls)
     h_psi        :   3534.29s CPU   3587.16s WALL (     939 calls)
     s_psi        :   1508.97s CPU   1512.61s WALL (     939 calls)
     g_psi        :      1.23s CPU      1.23s WALL (     824 calls)

     Called by h_psi:
     h_psi:calbec :   1710.19s CPU   1716.69s WALL (     939 calls)
     vloc_psi     :    309.28s CPU    349.95s WALL (     939 calls)
     add_vuspsi   :   1511.15s CPU   1514.87s WALL (     939 calls)

     General routines
     calbec       :   2588.81s CPU   2598.64s WALL (    1074 calls)
     fft          :      0.67s CPU      0.78s WALL (     268 calls)
     ffts         :      0.04s CPU      0.04s WALL (      22 calls)
     fftw         :    346.93s CPU    393.42s WALL (  505054 calls)

     Parallel routines

     PAW routines
     PAW_pot      :      1.45s CPU      1.46s WALL (      22 calls)

     PWSCF        :      3h56m CPU      3h58m WALL


   This run was terminated on:   3:30:55  22Mar2025            

=------------------------------------------------------------------------------=
   JOB DONE.
=------------------------------------------------------------------------------=
Note: The following floating-point exceptions are signalling: IEEE_DENORMAL
Note: The following floating-point exceptions are signalling: IEEE_DENORMAL
Note: The following floating-point exceptions are signalling: IEEE_DENORMAL
Note: The following floating-point exceptions are signalling: IEEE_DENORMAL
Note: The following floating-point exceptions are signalling: IEEE_DENORMAL
Note: The following floating-point exceptions are signalling: IEEE_DENORMAL
Note: The following floating-point exceptions are signalling: IEEE_DENORMAL
Note: The following floating-point exceptions are signalling: IEEE_DENORMAL
Note: The following floating-point exceptions are signalling: IEEE_DENORMAL
Note: The following floating-point exceptions are signalling: IEEE_DENORMAL
