--------------------------------------------------------------------------
By default, for Open MPI 4.0 and later, infiniband ports on a device
are not used by default.  The intent is to use UCX for these devices.
You can override this policy by setting the btl_openib_allow_ib MCA parameter
to true.

  Local host:              psid02
  Local adapter:           mlx5_0
  Local port:              1

--------------------------------------------------------------------------
--------------------------------------------------------------------------
WARNING: There was an error initializing an OpenFabrics device.

  Local host:   psid02
  Local device: mlx5_0
--------------------------------------------------------------------------

     Program PWSCF v.7.3.1 starts on 22Mar2025 at  2:17:29 

     This program is part of the open-source Quantum ESPRESSO suite
     for quantum simulation of materials; please cite
         "P. Giannozzi et al., J. Phys.:Condens. Matter 21 395502 (2009);
         "P. Giannozzi et al., J. Phys.:Condens. Matter 29 465901 (2017);
         "P. Giannozzi et al., J. Chem. Phys. 152 154105 (2020);
          URL http://www.quantum-espresso.org", 
     in publications or presentations arising from this work. More details at
     http://www.quantum-espresso.org/quote

     Parallel version (MPI), running on    32 processors

     MPI processes distributed on     1 nodes
     73316 MiB available memory on the printing compute node when the environment starts

     Waiting for input...
     Reading input from standard input
Warning: card &CELL ignored
Warning: card   CELL_DOFREE = 'ALL' ignored
Warning: card / ignored

     Current dimensions of program PWSCF are:
     Max number of different atomic species (ntypx) = 10
     Max number of k-points (npk) =  40000
     Max angular momentum in pseudopotentials (lmaxx) =  4
     file C.pbe-n-kjpaw_psl.1.0.0.UPF: wavefunction(s)  2S 2P renormalized

     R & G space division:  proc/nbgrp/npool/nimage =      32
     Subspace diagonalization in iterative solution of the eigenvalue problem:
     one sub-group per band group will be used
     custom distributed-memory algorithm (size of sub-group:  5*  5 procs)


     Parallelization info
     --------------------
     sticks:   dense  smooth     PW     G-vecs:    dense   smooth      PW
     Min         168     168     44                22650    22650    3088
     Max         169     169     45                22663    22663    3101
     Sum        5389    5389   1417               724931   724931   99009

     Using Slab Decomposition



     bravais-lattice index     =            0
     lattice parameter (alat)  =      19.7617  a.u.
     unit-cell volume          =   15176.5939 (a.u.)^3
     number of atoms/cell      =           79
     number of atomic types    =            4
     number of electrons       =      1324.00
     number of Kohn-Sham states=          794
     kinetic-energy cutoff     =      50.0000  Ry
     charge density cutoff     =     200.0000  Ry
     scf convergence threshold =      7.3E-07
     mixing beta               =       0.7000
     number of iterations used =            8  plain     mixing
     Exchange-correlation= PBE
                           (   1   4   3   4   0   0   0)

     celldm(1)=  19.761696  celldm(2)=   0.000000  celldm(3)=   0.000000
     celldm(4)=   0.000000  celldm(5)=   0.000000  celldm(6)=   0.000000

     crystal axes: (cart. coord. in units of alat)
               a(1) = (   1.000000   0.000000   0.000000 )  
               a(2) = (  -0.500000   0.866025   0.000000 )  
               a(3) = (   0.000000   0.000000   2.270759 )  

     reciprocal axes: (cart. coord. in units 2 pi/alat)
               b(1) = (  1.000000  0.577350 -0.000000 )  
               b(2) = (  0.000000  1.154701  0.000000 )  
               b(3) = (  0.000000 -0.000000  0.440381 )  


     PseudoPot. # 1 for Zn read from file:
     /home/ys/qepseudo/SSSP_1.3.0_PBE_efficiency/Zn_pbe_v1.uspp.F.UPF
     MD5 check sum: df62231357ef9e81f77b2b3087fa5675
     Pseudo is Ultrasoft, Zval = 20.0
     Generated by new atomic code, or converted to UPF format
     Using radial grid of  943 points,  6 beta functions with: 
                l(1) =   0
                l(2) =   0
                l(3) =   1
                l(4) =   1
                l(5) =   2
                l(6) =   2
     Q(r) pseudized with  8 coefficients,  rinner =    1.100   1.100   1.100
                                                       1.100   1.100

     PseudoPot. # 2 for C  read from file:
     /home/ys/qepseudo/SSSP_1.3.0_PBE_efficiency/C.pbe-n-kjpaw_psl.1.0.0.UPF
     MD5 check sum: 5d2aebdfa2cae82b50a7e79e9516da0f
     Pseudo is Projector augmented-wave + core cor, Zval =  4.0
     Generated using "atomic" code by A. Dal Corso  v.5.1
     Shape of augmentation charge: PSQ
     Using radial grid of 1073 points,  4 beta functions with: 
                l(1) =   0
                l(2) =   0
                l(3) =   1
                l(4) =   1
     Q(r) pseudized with 0 coefficients 


     PseudoPot. # 3 for N  read from file:
     /home/ys/qepseudo/SSSP_1.3.0_PBE_efficiency/N.pbe-n-radius_5.UPF
     MD5 check sum: 16739722b17309cd8fe442a2ace49922
     Pseudo is Ultrasoft + core correction, Zval =  5.0
     Generated using "atomic" code by A. Dal Corso  v.5.1
     Using radial grid of 1085 points,  4 beta functions with: 
                l(1) =   0
                l(2) =   0
                l(3) =   1
                l(4) =   1
     Q(r) pseudized with 0 coefficients 


     PseudoPot. # 4 for H  read from file:
     /home/ys/qepseudo/SSSP_1.3.0_PBE_efficiency/H.pbe-rrkjus_psl.1.0.0.UPF
     MD5 check sum: f52b6d4d1c606e5624b1dc7b2218f220
     Pseudo is Ultrasoft, Zval =  1.0
     Generated using "atomic" code by A. Dal Corso  v.5.1
     Using radial grid of  929 points,  2 beta functions with: 
                l(1) =   0
                l(2) =   0
     Q(r) pseudized with 0 coefficients 


     atomic species   valence    mass     pseudopotential
     Zn               20.00    65.38000     Zn( 1.00)
     C                 4.00    12.01070     C ( 1.00)
     N                 5.00    14.00670     N ( 1.00)
     H                 1.00     1.00800     H ( 1.00)

     No symmetry found


                                    s                        frac. trans.

      isym =  1     identity                                     

 cryst.   s( 1) = (     1          0          0      )
                  (     0          1          0      )
                  (     0          0          1      )

 cart.    s( 1) = (  1.0000000  0.0000000  0.0000000 )
                  (  0.0000000  1.0000000  0.0000000 )
                  (  0.0000000  0.0000000  1.0000000 )


   Cartesian axes

     site n.     atom                  positions (alat units)
         1        Zn     tau(   1) = (  -0.0000000   0.1443376   0.1164999  )
         2        Zn     tau(   2) = (   0.5000000   0.1443376   0.1164999  )
         3        Zn     tau(   3) = (   0.0001063   0.1443772   0.5902127  )
         4        Zn     tau(   4) = (   0.4998958   0.1443643   0.5917156  )
         5        Zn     tau(   5) = (  -0.1250000   0.3608439   0.1164999  )
         6        Zn     tau(   6) = (   0.3750000   0.3608439   0.1164999  )
         7        Zn     tau(   7) = (  -0.1249761   0.3609302   0.5908726  )
         8        Zn     tau(   8) = (   0.3749642   0.3608477   0.5913644  )
         9        Zn     tau(   9) = (  -0.2500000   0.5773503   0.1164999  )
        10        Zn     tau(  10) = (   0.2500000   0.5773503   0.1164999  )
        11        Zn     tau(  11) = (  -0.2499911   0.5773738   0.5915504  )
        12        Zn     tau(  12) = (   0.2499824   0.5772583   0.5907382  )
        13        Zn     tau(  13) = (  -0.3750000   0.7938566   0.1164999  )
        14        Zn     tau(  14) = (   0.1250000   0.7938566   0.1164999  )
        15        Zn     tau(  15) = (  -0.3749161   0.7938269   0.5909604  )
        16        Zn     tau(  16) = (   0.1249053   0.7937898   0.5911170  )
        17        Zn     tau(  17) = (   0.2500000   0.1443376   0.1164999  )
        18        Zn     tau(  18) = (   0.7500000   0.1443376   0.1164999  )
        19        Zn     tau(  19) = (   0.2499566   0.1443139   0.5910485  )
        20        Zn     tau(  20) = (   0.7500401   0.1444360   0.5909256  )
        21        Zn     tau(  21) = (   0.1250000   0.3608439   0.1164999  )
        22        Zn     tau(  22) = (   0.6250000   0.3608439   0.1164999  )
        23        Zn     tau(  23) = (   0.1249684   0.3608327   0.5904686  )
        24        Zn     tau(  24) = (   0.6250220   0.3609386   0.5917101  )
        25        Zn     tau(  25) = (  -0.0000000   0.5773503   0.1164999  )
        26        Zn     tau(  26) = (   0.5000000   0.5773503   0.1164999  )
        27        Zn     tau(  27) = (  -0.0000983   0.5773031   0.5910657  )
        28        Zn     tau(  28) = (   0.5000885   0.5773473   0.5912976  )
        29        Zn     tau(  29) = (  -0.1250000   0.7938566   0.1164999  )
        30        Zn     tau(  30) = (   0.3750000   0.7938566   0.1164999  )
        31        Zn     tau(  31) = (  -0.1251014   0.7937984   0.5915674  )
        32        Zn     tau(  32) = (   0.3751324   0.7938157   0.5904624  )
        33        Zn     tau(  33) = (   0.1250000   0.0721688   0.3494996  )
        34        Zn     tau(  34) = (   0.6250000   0.0721688   0.3494996  )
        35        Zn     tau(  35) = (   0.1248879   0.0718532   0.8329060  )
        36        Zn     tau(  36) = (   0.6248090   0.0717583   0.8328049  )
        37        Zn     tau(  37) = (   0.0000000   0.2886751   0.3494996  )
        38        Zn     tau(  38) = (   0.5000000   0.2886751   0.3494996  )
        39        Zn     tau(  39) = (  -0.0001280   0.2882322   0.8325392  )
        40        Zn     tau(  40) = (   0.5000317   0.2882198   0.8299154  )
        41        Zn     tau(  41) = (  -0.1250000   0.5051815   0.3494996  )
        42        Zn     tau(  42) = (   0.3750000   0.5051815   0.3494996  )
        43        Zn     tau(  43) = (  -0.1251048   0.5047623   0.8328278  )
        44        Zn     tau(  44) = (   0.3750239   0.5052482   0.8296160  )
        45        Zn     tau(  45) = (  -0.2500000   0.7216878   0.3494996  )
        46        Zn     tau(  46) = (   0.2500000   0.7216878   0.3494996  )
        47        Zn     tau(  47) = (  -0.2501801   0.7214512   0.8331201  )
        48        Zn     tau(  48) = (   0.2499162   0.7216594   0.8327801  )
        49        Zn     tau(  49) = (   0.3750000   0.0721688   0.3494996  )
        50        Zn     tau(  50) = (   0.8750000   0.0721688   0.3494996  )
        51        Zn     tau(  51) = (   0.3747553   0.0716765   0.8331842  )
        52        Zn     tau(  52) = (   0.8749606   0.0720007   0.8324611  )
        53        Zn     tau(  53) = (   0.2500000   0.2886751   0.3494996  )
        54        Zn     tau(  54) = (   0.7500000   0.2886751   0.3494996  )
        55        Zn     tau(  55) = (   0.2496057   0.2878936   0.8304187  )
        56        Zn     tau(  56) = (   0.7499715   0.2884205   0.8328317  )
        57        Zn     tau(  57) = (   0.1250000   0.5051815   0.3494996  )
        58        Zn     tau(  58) = (   0.6250000   0.5051815   0.3494996  )
        59        Zn     tau(  59) = (   0.1246732   0.5049557   0.8297126  )
        60        Zn     tau(  60) = (   0.6250091   0.5051114   0.8332599  )
        61        Zn     tau(  61) = (   0.0000000   0.7216878   0.3494996  )
        62        Zn     tau(  62) = (   0.5000000   0.7216878   0.3494996  )
        63        Zn     tau(  63) = (  -0.0001939   0.7213528   0.8328797  )
        64        Zn     tau(  64) = (   0.4999119   0.7216710   0.8329577  )
        65        C      tau(  65) = (   0.3121632   0.4311113   1.6964342  )
        66        C      tau(  66) = (   0.3122896   0.4204090   1.5604959  )
        67        C      tau(  67) = (   0.4138005   0.3587948   1.4966485  )
        68        C      tau(  68) = (   0.2104919   0.4698859   1.4871331  )
        69        C      tau(  69) = (   0.2096482   0.4579993   1.3552399  )
        70        C      tau(  70) = (   0.4131239   0.3470413   1.3647054  )
        71        C      tau(  71) = (   0.3111834   0.3962412   1.2910151  )
        72        N      tau(  72) = (   0.3121978   0.4390811   1.8084500  )
        73        N      tau(  73) = (   0.3078497   0.3790063   1.1605640  )
        74        H      tau(  74) = (   0.2477278   0.4345804   1.1075559  )
        75        H      tau(  75) = (   0.3906677   0.3561011   1.1145264  )
        76        H      tau(  76) = (   0.4933030   0.3197881   1.5522512  )
        77        H      tau(  77) = (   0.1308241   0.5172172   1.5356201  )
        78        H      tau(  78) = (   0.1291686   0.4962579   1.3001987  )
        79        H      tau(  79) = (   0.4927366   0.2987888   1.3166715  )

   Crystallographic axes

     site n.     atom                  positions (cryst. coord.)
         1        Zn     tau(   1) = (  0.0833333  0.1666667  0.0513044  )
         2        Zn     tau(   2) = (  0.5833333  0.1666667  0.0513044  )
         3        Zn     tau(   3) = (  0.0834625  0.1667124  0.2599187  )
         4        Zn     tau(   4) = (  0.5832446  0.1666976  0.2605806  )
         5        Zn     tau(   5) = (  0.0833333  0.4166667  0.0513044  )
         6        Zn     tau(   6) = (  0.5833333  0.4166667  0.0513044  )
         7        Zn     tau(   7) = (  0.0834070  0.4167663  0.2602093  )
         8        Zn     tau(   8) = (  0.5832997  0.4166711  0.2604259  )
         9        Zn     tau(   9) = (  0.0833333  0.6666667  0.0513044  )
        10        Zn     tau(  10) = (  0.5833333  0.6666667  0.0513044  )
        11        Zn     tau(  11) = (  0.0833558  0.6666938  0.2605078  )
        12        Zn     tau(  12) = (  0.5832626  0.6665605  0.2601501  )
        13        Zn     tau(  13) = (  0.0833333  0.9166667  0.0513044  )
        14        Zn     tau(  14) = (  0.5833333  0.9166667  0.0513044  )
        15        Zn     tau(  15) = (  0.0834001  0.9166324  0.2602480  )
        16        Zn     tau(  16) = (  0.5832000  0.9165895  0.2603170  )
        17        Zn     tau(  17) = (  0.3333333  0.1666667  0.0513044  )
        18        Zn     tau(  18) = (  0.8333333  0.1666667  0.0513044  )
        19        Zn     tau(  19) = (  0.3332763  0.1666393  0.2602868  )
        20        Zn     tau(  20) = (  0.8334303  0.1667804  0.2602327  )
        21        Zn     tau(  21) = (  0.3333333  0.4166667  0.0513044  )
        22        Zn     tau(  22) = (  0.8333333  0.4166667  0.0513044  )
        23        Zn     tau(  23) = (  0.3332952  0.4166537  0.2600314  )
        24        Zn     tau(  24) = (  0.8334099  0.4167759  0.2605781  )
        25        Zn     tau(  25) = (  0.3333333  0.6666667  0.0513044  )
        26        Zn     tau(  26) = (  0.8333333  0.6666667  0.0513044  )
        27        Zn     tau(  27) = (  0.3332078  0.6666122  0.2602944  )
        28        Zn     tau(  28) = (  0.8334201  0.6666632  0.2603965  )
        29        Zn     tau(  29) = (  0.3333333  0.9166667  0.0513044  )
        30        Zn     tau(  30) = (  0.8333333  0.9166667  0.0513044  )
        31        Zn     tau(  31) = (  0.3331983  0.9165994  0.2605153  )
        32        Zn     tau(  32) = (  0.8334421  0.9166194  0.2600287  )
        33        Zn     tau(  33) = (  0.1666667  0.0833333  0.1539131  )
        34        Zn     tau(  34) = (  0.6666667  0.0833333  0.1539131  )
        35        Zn     tau(  35) = (  0.1663724  0.0829690  0.3667963  )
        36        Zn     tau(  36) = (  0.6662387  0.0828594  0.3667518  )
        37        Zn     tau(  37) = (  0.1666667  0.3333333  0.1539131  )
        38        Zn     tau(  38) = (  0.6666667  0.3333333  0.1539131  )
        39        Zn     tau(  39) = (  0.1662829  0.3328219  0.3666348  )
        40        Zn     tau(  40) = (  0.6664355  0.3328075  0.3654793  )
        41        Zn     tau(  41) = (  0.1666667  0.5833333  0.1539131  )
        42        Zn     tau(  42) = (  0.6666667  0.5833333  0.1539131  )
        43        Zn     tau(  43) = (  0.1663199  0.5828493  0.3667619  )
        44        Zn     tau(  44) = (  0.6667291  0.5834104  0.3653475  )
        45        Zn     tau(  45) = (  0.1666667  0.8333333  0.1539131  )
        46        Zn     tau(  46) = (  0.6666667  0.8333333  0.1539131  )
        47        Zn     tau(  47) = (  0.1663499  0.8330600  0.3668906  )
        48        Zn     tau(  48) = (  0.6665664  0.8333005  0.3667409  )
        49        Zn     tau(  49) = (  0.4166667  0.0833333  0.1539131  )
        50        Zn     tau(  50) = (  0.9166667  0.0833333  0.1539131  )
        51        Zn     tau(  51) = (  0.4161377  0.0827649  0.3669188  )
        52        Zn     tau(  52) = (  0.9165303  0.0831393  0.3666004  )
        53        Zn     tau(  53) = (  0.4166667  0.3333333  0.1539131  )
        54        Zn     tau(  54) = (  0.9166667  0.3333333  0.1539131  )
        55        Zn     tau(  55) = (  0.4158211  0.3324309  0.3657010  )
        56        Zn     tau(  56) = (  0.9164911  0.3330393  0.3667636  )
        57        Zn     tau(  57) = (  0.4166667  0.5833333  0.1539131  )
        58        Zn     tau(  58) = (  0.9166667  0.5833333  0.1539131  )
        59        Zn     tau(  59) = (  0.4162095  0.5830726  0.3653900  )
        60        Zn     tau(  60) = (  0.9166353  0.5832523  0.3669522  )
        61        Zn     tau(  61) = (  0.4166667  0.8333333  0.1539131  )
        62        Zn     tau(  62) = (  0.9166667  0.8333333  0.1539131  )
        63        Zn     tau(  63) = (  0.4162793  0.8329464  0.3667847  )
        64        Zn     tau(  64) = (  0.9165688  0.8333139  0.3668191  )
        65        C      tau(  65) = (  0.5610654  0.4978045  0.7470781  )
        66        C      tau(  66) = (  0.5550128  0.4854465  0.6872134  )
        67        C      tau(  67) = (  0.6209508  0.4143005  0.6590962  )
        68        C      tau(  68) = (  0.4817806  0.5425775  0.6549058  )
        69        C      tau(  69) = (  0.4740742  0.5288520  0.5968225  )
        70        C      tau(  70) = (  0.6134882  0.4007287  0.6009909  )
        71        C      tau(  71) = (  0.5399533  0.4575400  0.5685391  )
        72        N      tau(  72) = (  0.5657014  0.5070072  0.7964078  )
        73        N      tau(  73) = (  0.5266691  0.4376388  0.5110908  )
        74        H      tau(  74) = (  0.4986330  0.5018103  0.4877471  )
        75        H      tau(  75) = (  0.5962628  0.4111902  0.4908167  )
        76        H      tau(  76) = (  0.6779328  0.3692595  0.6835826  )
        77        H      tau(  77) = (  0.4294396  0.5972310  0.6762586  )
        78        H      tau(  78) = (  0.4156833  0.5730293  0.5725833  )
        79        H      tau(  79) = (  0.6652423  0.3450115  0.5798377  )

     number of k points=     5  Marzari-Vanderbilt smearing, width (Ry)=  0.0200
                       cart. coord. in units 2pi/alat
        k(    1) = (   0.0000000   0.0000000   0.0000000), wk =   0.2222222
        k(    2) = (   0.0000000   0.3849002   0.0000000), wk =   0.4444444
        k(    3) = (   0.3333333   0.1924501   0.0000000), wk =   0.4444444
        k(    4) = (   0.3333333   0.5773503   0.0000000), wk =   0.4444444
        k(    5) = (   0.3333333  -0.1924501   0.0000000), wk =   0.4444444

                       cryst. coord.
        k(    1) = (   0.0000000   0.0000000   0.0000000), wk =   0.2222222
        k(    2) = (   0.0000000   0.3333333   0.0000000), wk =   0.4444444
        k(    3) = (   0.3333333   0.0000000   0.0000000), wk =   0.4444444
        k(    4) = (   0.3333333   0.3333333   0.0000000), wk =   0.4444444
        k(    5) = (   0.3333333  -0.3333333   0.0000000), wk =   0.4444444

     Dense  grid:   724931 G-vectors     FFT dimensions: (  90,  90, 216)

     Dynamical RAM for                 wfc:      34.30 MB

     Dynamical RAM for     wfc (w. buffer):     205.79 MB

     Dynamical RAM for           str. fact:       1.38 MB

     Dynamical RAM for           local pot:       0.00 MB

     Dynamical RAM for          nlocal pot:      53.39 MB

     Dynamical RAM for                qrad:       4.54 MB

     Dynamical RAM for          rho,v,vnew:       2.33 MB

     Dynamical RAM for               rhoin:       0.78 MB

     Dynamical RAM for            rho*nmix:       5.53 MB

     Dynamical RAM for           G-vectors:       1.47 MB

     Dynamical RAM for          h,s,v(r/c):       4.60 MB

     Dynamical RAM for          <psi|beta>:      14.97 MB

     Dynamical RAM for                 psi:      68.60 MB

     Dynamical RAM for                hpsi:      68.60 MB

     Dynamical RAM for                spsi:      68.60 MB

     Dynamical RAM for      wfcinit/wfcrot:      93.00 MB

     Dynamical RAM for           addusdens:      86.43 MB

     Dynamical RAM for          addusforce:     130.41 MB

     Dynamical RAM for         addusstress:      69.49 MB

     Estimated static dynamical RAM per process >     273.59 MB

     Estimated max dynamical RAM per process >     504.49 MB

     Estimated total dynamical RAM >      15.77 GB

     Check: negative core charge=   -0.000007

     Initial potential from superposition of free atoms

     starting charge    1323.9906, renormalised to    1324.0000

     negative rho (up, down):  3.051E-03 0.000E+00
     Starting wfcs are  874 randomized atomic wfcs
[psid02:17439] 31 more processes have sent help message help-mpi-btl-openib.txt / ib port not selected
[psid02:17439] Set MCA parameter "orte_base_help_aggregate" to 0 to see all help / error messages
[psid02:17439] 31 more processes have sent help message help-mpi-btl-openib.txt / error in device init
     Checking if some PAW data can be deallocated... 
       PAW data deallocated on   28 nodes for type:  2

     total cpu time spent up to now is      159.2 secs

     Self-consistent Calculation

     iteration #  1     ecut=    50.00 Ry     beta= 0.70
     Davidson diagonalization with overlap

---- Real-time Memory Report at c_bands before calling an iterative solver
           376 MiB given to the printing process from OS
             0 MiB allocation reported by mallinfo(arena+hblkhd)
         63094 MiB available memory on the node where the printing process lives
------------------
     ethr =  1.00E-02,  avg # of iterations =  7.8

     Threshold (ethr) on eigenvalues was too large:
     Diagonalizing with lowered threshold

     Davidson diagonalization with overlap

---- Real-time Memory Report at c_bands before calling an iterative solver
           541 MiB given to the printing process from OS
             0 MiB allocation reported by mallinfo(arena+hblkhd)
         63064 MiB available memory on the node where the printing process lives
------------------
     ethr =  8.72E-04,  avg # of iterations =  2.0

     negative rho (up, down):  3.785E-03 0.000E+00

     total cpu time spent up to now is     1279.7 secs

     total energy              =  -29707.69299581 Ry
     estimated scf accuracy    <      11.62429236 Ry

     iteration #  2     ecut=    50.00 Ry     beta= 0.70
     Davidson diagonalization with overlap

---- Real-time Memory Report at c_bands before calling an iterative solver
           543 MiB given to the printing process from OS
             0 MiB allocation reported by mallinfo(arena+hblkhd)
         63061 MiB available memory on the node where the printing process lives
------------------
     ethr =  8.78E-04,  avg # of iterations = 13.0

     negative rho (up, down):  3.839E-03 0.000E+00

     total cpu time spent up to now is     2148.7 secs

     total energy              =  -29671.32433562 Ry
     estimated scf accuracy    <     801.01077789 Ry

     iteration #  3     ecut=    50.00 Ry     beta= 0.70
     Davidson diagonalization with overlap

---- Real-time Memory Report at c_bands before calling an iterative solver
           548 MiB given to the printing process from OS
             0 MiB allocation reported by mallinfo(arena+hblkhd)
         62890 MiB available memory on the node where the printing process lives
------------------
     ethr =  8.78E-04,  avg # of iterations = 10.0

     negative rho (up, down):  3.093E-03 0.000E+00

     total cpu time spent up to now is     3495.4 secs

     total energy              =  -29707.49249786 Ry
     estimated scf accuracy    <      96.29796965 Ry

     iteration #  4     ecut=    50.00 Ry     beta= 0.70
     Davidson diagonalization with overlap

---- Real-time Memory Report at c_bands before calling an iterative solver
           549 MiB given to the printing process from OS
             0 MiB allocation reported by mallinfo(arena+hblkhd)
         62861 MiB available memory on the node where the printing process lives
------------------
     ethr =  8.78E-04,  avg # of iterations =  8.6

     negative rho (up, down):  2.325E-03 0.000E+00

     total cpu time spent up to now is     4104.9 secs

     total energy              =  -29710.08753941 Ry
     estimated scf accuracy    <     113.16702768 Ry

     iteration #  5     ecut=    50.00 Ry     beta= 0.70
     Davidson diagonalization with overlap

---- Real-time Memory Report at c_bands before calling an iterative solver
           550 MiB given to the printing process from OS
             0 MiB allocation reported by mallinfo(arena+hblkhd)
         62825 MiB available memory on the node where the printing process lives
------------------
     ethr =  8.78E-04,  avg # of iterations =  7.0

     negative rho (up, down):  2.316E-03 0.000E+00

     total cpu time spent up to now is     4675.3 secs

     total energy              =  -29715.21745918 Ry
     estimated scf accuracy    <       4.38576771 Ry

     iteration #  6     ecut=    50.00 Ry     beta= 0.70
     Davidson diagonalization with overlap

---- Real-time Memory Report at c_bands before calling an iterative solver
           551 MiB given to the printing process from OS
             0 MiB allocation reported by mallinfo(arena+hblkhd)
         62793 MiB available memory on the node where the printing process lives
------------------
     ethr =  3.31E-04,  avg # of iterations =  7.2

     negative rho (up, down):  2.847E-03 0.000E+00

     total cpu time spent up to now is     5211.8 secs

     total energy              =  -29715.67194959 Ry
     estimated scf accuracy    <       0.26212770 Ry

     iteration #  7     ecut=    50.00 Ry     beta= 0.70
     Davidson diagonalization with overlap

---- Real-time Memory Report at c_bands before calling an iterative solver
           552 MiB given to the printing process from OS
             0 MiB allocation reported by mallinfo(arena+hblkhd)
         62762 MiB available memory on the node where the printing process lives
------------------
     c_bands:  1 eigenvalues not converged
     c_bands:  3 eigenvalues not converged
     ethr =  1.98E-05,  avg # of iterations = 16.8

     negative rho (up, down):  3.397E-03 0.000E+00

     total cpu time spent up to now is     5816.8 secs

     total energy              =  -29715.68748906 Ry
     estimated scf accuracy    <       0.06097499 Ry

     iteration #  8     ecut=    50.00 Ry     beta= 0.70
     Davidson diagonalization with overlap

---- Real-time Memory Report at c_bands before calling an iterative solver
           553 MiB given to the printing process from OS
             0 MiB allocation reported by mallinfo(arena+hblkhd)
         62730 MiB available memory on the node where the printing process lives
------------------
     ethr =  4.61E-06,  avg # of iterations = 11.4

     negative rho (up, down):  3.755E-03 0.000E+00

     total cpu time spent up to now is     6436.8 secs

     total energy              =  -29715.68836759 Ry
     estimated scf accuracy    <       0.06002733 Ry

     iteration #  9     ecut=    50.00 Ry     beta= 0.70
     Davidson diagonalization with overlap

---- Real-time Memory Report at c_bands before calling an iterative solver
           554 MiB given to the printing process from OS
             0 MiB allocation reported by mallinfo(arena+hblkhd)
         62698 MiB available memory on the node where the printing process lives
------------------
     ethr =  4.53E-06,  avg # of iterations =  3.0

     negative rho (up, down):  3.837E-03 0.000E+00

     total cpu time spent up to now is     6975.5 secs

     total energy              =  -29715.69377578 Ry
     estimated scf accuracy    <       0.03492015 Ry

     iteration # 10     ecut=    50.00 Ry     beta= 0.70
     Davidson diagonalization with overlap

---- Real-time Memory Report at c_bands before calling an iterative solver
           555 MiB given to the printing process from OS
             0 MiB allocation reported by mallinfo(arena+hblkhd)
         62668 MiB available memory on the node where the printing process lives
------------------
     c_bands:  1 eigenvalues not converged
     ethr =  2.64E-06,  avg # of iterations =  6.4

     negative rho (up, down):  3.881E-03 0.000E+00

     total cpu time spent up to now is     7508.4 secs

     total energy              =  -29715.69573651 Ry
     estimated scf accuracy    <       0.01392691 Ry

     iteration # 11     ecut=    50.00 Ry     beta= 0.70
     Davidson diagonalization with overlap

---- Real-time Memory Report at c_bands before calling an iterative solver
           555 MiB given to the printing process from OS
             0 MiB allocation reported by mallinfo(arena+hblkhd)
         62635 MiB available memory on the node where the printing process lives
------------------
     c_bands:  2 eigenvalues not converged
     ethr =  1.05E-06,  avg # of iterations =  8.4

     negative rho (up, down):  4.409E-03 0.000E+00

     total cpu time spent up to now is     8031.2 secs

     total energy              =  -29715.68871442 Ry
     estimated scf accuracy    <       0.01160016 Ry

     iteration # 12     ecut=    50.00 Ry     beta= 0.70
     Davidson diagonalization with overlap

---- Real-time Memory Report at c_bands before calling an iterative solver
           555 MiB given to the printing process from OS
             0 MiB allocation reported by mallinfo(arena+hblkhd)
         62632 MiB available memory on the node where the printing process lives
------------------
     c_bands:  1 eigenvalues not converged
     ethr =  8.76E-07,  avg # of iterations = 15.6

     negative rho (up, down):  4.150E-03 0.000E+00

     total cpu time spent up to now is     8662.6 secs

     total energy              =  -29715.68931159 Ry
     estimated scf accuracy    <       0.00931691 Ry

     iteration # 13     ecut=    50.00 Ry     beta= 0.70
     Davidson diagonalization with overlap

---- Real-time Memory Report at c_bands before calling an iterative solver
           555 MiB given to the printing process from OS
             0 MiB allocation reported by mallinfo(arena+hblkhd)
         62632 MiB available memory on the node where the printing process lives
------------------
     ethr =  7.04E-07,  avg # of iterations =  3.0

     negative rho (up, down):  4.113E-03 0.000E+00

     total cpu time spent up to now is     9181.6 secs

     total energy              =  -29715.68705652 Ry
     estimated scf accuracy    <       0.00702830 Ry

     iteration # 14     ecut=    50.00 Ry     beta= 0.70
     Davidson diagonalization with overlap

---- Real-time Memory Report at c_bands before calling an iterative solver
           555 MiB given to the printing process from OS
             0 MiB allocation reported by mallinfo(arena+hblkhd)
         62630 MiB available memory on the node where the printing process lives
------------------
     c_bands:  1 eigenvalues not converged
     ethr =  5.31E-07,  avg # of iterations = 13.2

     negative rho (up, down):  4.064E-03 0.000E+00

     total cpu time spent up to now is     9791.4 secs

     total energy              =  -29715.68221899 Ry
     estimated scf accuracy    <       0.14339094 Ry

     iteration # 15     ecut=    50.00 Ry     beta= 0.70
     Davidson diagonalization with overlap

---- Real-time Memory Report at c_bands before calling an iterative solver
           555 MiB given to the printing process from OS
             0 MiB allocation reported by mallinfo(arena+hblkhd)
         62625 MiB available memory on the node where the printing process lives
------------------
     ethr =  5.31E-07,  avg # of iterations =  9.4

     negative rho (up, down):  4.052E-03 0.000E+00

     total cpu time spent up to now is    10357.8 secs

     total energy              =  -29715.68996669 Ry
     estimated scf accuracy    <       0.00044315 Ry

     iteration # 16     ecut=    50.00 Ry     beta= 0.70
     Davidson diagonalization with overlap

---- Real-time Memory Report at c_bands before calling an iterative solver
           555 MiB given to the printing process from OS
             0 MiB allocation reported by mallinfo(arena+hblkhd)
         62624 MiB available memory on the node where the printing process lives
------------------
     ethr =  3.35E-08,  avg # of iterations =  3.0

     negative rho (up, down):  4.032E-03 0.000E+00

     total cpu time spent up to now is    10939.6 secs

     total energy              =  -29715.69002870 Ry
     estimated scf accuracy    <       0.00035444 Ry

     iteration # 17     ecut=    50.00 Ry     beta= 0.70
     Davidson diagonalization with overlap

---- Real-time Memory Report at c_bands before calling an iterative solver
           555 MiB given to the printing process from OS
             0 MiB allocation reported by mallinfo(arena+hblkhd)
         62623 MiB available memory on the node where the printing process lives
------------------
     ethr =  2.68E-08,  avg # of iterations =  2.0

     negative rho (up, down):  4.009E-03 0.000E+00

     total cpu time spent up to now is    11438.2 secs

     total energy              =  -29715.69007459 Ry
     estimated scf accuracy    <       0.00006298 Ry

     iteration # 18     ecut=    50.00 Ry     beta= 0.70
     Davidson diagonalization with overlap

---- Real-time Memory Report at c_bands before calling an iterative solver
           555 MiB given to the printing process from OS
             0 MiB allocation reported by mallinfo(arena+hblkhd)
         62625 MiB available memory on the node where the printing process lives
------------------
     ethr =  4.76E-09,  avg # of iterations =  2.8

     negative rho (up, down):  3.999E-03 0.000E+00

     total cpu time spent up to now is    11944.1 secs

     total energy              =  -29715.69008167 Ry
     estimated scf accuracy    <       0.00001004 Ry

     iteration # 19     ecut=    50.00 Ry     beta= 0.70
     Davidson diagonalization with overlap

---- Real-time Memory Report at c_bands before calling an iterative solver
           555 MiB given to the printing process from OS
             0 MiB allocation reported by mallinfo(arena+hblkhd)
         62624 MiB available memory on the node where the printing process lives
------------------
     ethr =  7.59E-10,  avg # of iterations =  2.8

     negative rho (up, down):  3.994E-03 0.000E+00

     total cpu time spent up to now is    12453.0 secs

     total energy              =  -29715.69008318 Ry
     estimated scf accuracy    <       0.00000103 Ry

     iteration # 20     ecut=    50.00 Ry     beta= 0.70
     Davidson diagonalization with overlap

---- Real-time Memory Report at c_bands before calling an iterative solver
           555 MiB given to the printing process from OS
             0 MiB allocation reported by mallinfo(arena+hblkhd)
         62625 MiB available memory on the node where the printing process lives
------------------
     ethr =  7.76E-11,  avg # of iterations =  4.0

     negative rho (up, down):  3.993E-03 0.000E+00

     total cpu time spent up to now is    12994.5 secs

     total energy              =  -29715.69008319 Ry
     estimated scf accuracy    <       0.00000142 Ry

     iteration # 21     ecut=    50.00 Ry     beta= 0.70
     Davidson diagonalization with overlap

---- Real-time Memory Report at c_bands before calling an iterative solver
           555 MiB given to the printing process from OS
             0 MiB allocation reported by mallinfo(arena+hblkhd)
         62624 MiB available memory on the node where the printing process lives
------------------
     ethr =  7.76E-11,  avg # of iterations =  2.0

     negative rho (up, down):  3.990E-03 0.000E+00

     total cpu time spent up to now is    13499.4 secs

     End of self-consistent calculation

          k = 0.0000 0.0000 0.0000 ( 90569 PWs)   bands (ev):

  -122.8114-122.8097-122.8093-122.8087-122.8081-122.8079-122.8078-122.8076
  -122.8069-122.8069-122.8066-122.8062-122.8056-122.8054-122.8049-122.8044
  -122.7772-122.7738-122.7726-122.7685-122.7676-122.7666-122.7655-122.7641
  -122.7627-122.7615-122.7608-122.7601-122.7598-122.7594-122.7590-122.7587
  -122.6065-122.6063-122.6053-122.6052-122.6051-122.6044-122.6042-122.6041
  -122.6039-122.6036-122.6033-122.6031-122.6024-122.6021-122.6019-122.6015
  -122.6008-122.6000-122.5996-122.5930-122.5846-122.5837-122.5830-122.5827
  -122.5822-122.5817-122.5811-122.5808-122.5801-122.5794-122.5786-122.5772
   -76.9745 -76.9743 -76.9742 -76.9682 -76.9681 -76.9676 -76.9675 -76.9673
   -76.9670 -76.9629 -76.9610 -76.9607 -76.9600 -76.9593 -76.9593 -76.9590
   -76.9587 -76.9580 -76.9580 -76.9576 -76.9573 -76.9570 -76.9570 -76.9566
   -76.9565 -76.9565 -76.9564 -76.9561 -76.9560 -76.9560 -76.9554 -76.9549
   -76.9548 -76.9548 -76.9545 -76.9540 -76.9537 -76.9480 -76.9477 -76.9475
   -76.9436 -76.9435 -76.9434 -76.9430 -76.9427 -76.9425 -76.9385 -76.9383
   -76.9361 -76.9349 -76.9337 -76.9282 -76.9275 -76.9266 -76.9252 -76.9250
   -76.9248 -76.9243 -76.9235 -76.9234 -76.9194 -76.9186 -76.9176 -76.9170
   -76.9166 -76.9166 -76.9159 -76.9155 -76.9152 -76.9144 -76.9138 -76.9137
   -76.9132 -76.9125 -76.9124 -76.9119 -76.9117 -76.9112 -76.9108 -76.9104
   -76.9101 -76.9100 -76.9098 -76.9096 -76.9085 -76.9056 -76.9043 -76.9032
   -76.9018 -76.9008 -76.9002 -76.8986 -76.8980 -76.8975 -76.8942 -76.8935
   -76.7676 -76.7675 -76.7674 -76.7667 -76.7655 -76.7653 -76.7645 -76.7641
   -76.7638 -76.7631 -76.7628 -76.7626 -76.7622 -76.7620 -76.7618 -76.7615
   -76.7614 -76.7610 -76.7607 -76.7606 -76.7606 -76.7605 -76.7605 -76.7604
   -76.7602 -76.7599 -76.7594 -76.7585 -76.7584 -76.7582 -76.7567 -76.7532
   -76.7529 -76.7503 -76.7501 -76.7498 -76.7496 -76.7492 -76.7490 -76.7489
   -76.7482 -76.7482 -76.7478 -76.7477 -76.7472 -76.7470 -76.7454 -76.7449
   -76.7439 -76.7431 -76.7428 -76.7427 -76.7423 -76.7417 -76.7415 -76.7413
   -76.7412 -76.7411 -76.7409 -76.7409 -76.7408 -76.7402 -76.7395 -76.7393
   -76.7384 -76.7370 -76.7370 -76.7367 -76.7366 -76.7365 -76.7362 -76.7359
   -76.7357 -76.7354 -76.7343 -76.7319 -76.7317 -76.7315 -76.7315 -76.7300
   -76.7292 -76.7271 -76.7265 -76.7258 -76.7254 -76.7224 -76.7219 -76.7198
   -76.7193 -76.7182 -76.7166 -76.7154 -76.7146 -76.7142 -76.7109 -76.7099
   -15.5255 -14.1426 -13.3201 -10.9440 -10.8484  -7.9275  -7.6470  -6.4395
    -5.7770  -5.6477  -5.1653  -5.1563  -4.9246  -4.8433  -4.8417  -4.8403
    -4.8382  -4.8361  -4.8354  -4.8312  -4.6462  -4.6462  -4.6462  -4.5913
    -4.5913  -4.5912  -4.4865  -4.4856  -4.4827  -4.4808  -4.4802  -4.4794
    -4.4557  -4.4556  -4.4556  -4.3828  -4.3824  -4.3823  -4.3194  -4.3191
    -4.3186  -4.3184  -4.3183  -4.3181  -4.2821  -4.2820  -4.2820  -4.2461
    -4.2452  -4.2437  -4.2433  -4.2429  -4.2418  -4.2244  -4.2235  -4.2228
    -4.2226  -4.2218  -4.2212  -4.2127  -4.2126  -4.2124  -4.1816  -4.1813
    -4.1806  -4.1804  -4.1803  -4.1798  -4.1416  -4.1414  -4.1403  -4.1393
    -4.1382  -4.1377  -4.0660  -4.0505  -4.0487  -4.0474  -4.0453  -4.0447
    -4.0436  -4.0409  -4.0408  -4.0402  -4.0397  -4.0391  -4.0388  -3.9942
    -3.9937  -3.9931  -3.9925  -3.9920  -3.9914  -3.9904  -3.9895  -3.9888
    -3.9881  -3.9856  -3.9844  -3.9840  -3.9835  -3.9830  -3.9491  -3.9489
    -3.9467  -3.9456  -3.9452  -3.9444  -3.9058  -3.9055  -3.9053  -3.9035
    -3.9019  -3.9007  -3.8606  -3.8604  -3.8599  -3.8595  -3.8592  -3.8584
    -3.8580  -3.8580  -3.8542  -3.8534  -3.8531  -3.8511  -3.8500  -3.8495
    -3.8489  -3.8485  -3.8481  -3.8321  -3.8086  -3.8085  -3.7886  -3.7886
    -3.7879  -3.7875  -3.7871  -3.7862  -3.7724  -3.7718  -3.7702  -3.7698
    -3.7691  -3.7688  -3.7344  -3.7337  -3.7331  -3.7326  -3.7324  -3.7322
    -3.7077  -3.7073  -3.7061  -3.7060  -3.7057  -3.7056  -3.6459  -3.6459
    -3.6301  -3.6295  -3.6294  -3.6290  -3.6289  -3.6283  -3.6236  -3.6235
    -3.5891  -3.5890  -3.5890  -3.5822  -3.5817  -3.5815  -3.5805  -3.5800
    -3.5793  -3.5561  -3.5554  -3.5549  -3.5543  -3.5523  -3.5520  -3.5335
    -3.5329  -3.5318  -3.5315  -3.5313  -3.5309  -3.5237  -3.5237  -3.5233
    -3.5233  -3.5231  -3.5231  -3.5069  -3.5067  -3.5065  -3.5050  -3.5035
    -3.5028  -3.5009  -3.5005  -3.5002  -3.4997  -3.4996  -3.4992  -3.4986
    -3.4985  -3.4980  -3.4948  -3.4942  -3.4941  -3.4940  -3.4934  -3.4929
    -3.4689  -3.4688  -3.4683  -3.4682  -3.4679  -3.4677  -3.4255  -3.4252
    -3.4249  -3.4186  -3.4179  -3.4171  -3.4170  -3.4163  -3.4162  -3.4127
    -3.4125  -3.4123  -3.4111  -3.4093  -3.4090  -3.3673  -3.3671  -3.3658
    -3.3652  -3.3648  -3.3641  -3.3623  -3.3614  -3.3522  -3.3521  -3.3520
    -3.3515  -3.3510  -3.3507  -3.3414  -3.3411  -3.3408  -3.3403  -3.3391
    -3.3386  -3.3362  -3.3360  -3.3356  -3.3350  -3.3345  -3.3341  -3.2709
    -3.2705  -3.2624  -3.2619  -3.2613  -3.2336  -3.2333  -3.2330  -3.2329
    -3.2326  -3.2324  -3.2251  -3.2248  -3.2245  -3.2207  -3.2181  -3.2164
    -3.2159  -3.2130  -3.2128  -3.2090  -3.2079  -3.2074  -3.1894  -3.1891
    -3.1890  -3.1795  -3.1790  -3.1784  -3.1771  -3.1768  -3.1764  -3.1608
    -3.1607  -3.1605  -3.1598  -3.1593  -3.1590  -3.1450  -3.1449  -3.1444
    -3.1433  -3.1420  -3.1415  -3.1337  -3.1277  -3.1272  -3.1198  -3.1136
    -3.1136  -3.0999  -3.0995  -3.0497  -3.0495  -3.0494  -3.0493  -3.0491
    -3.0490  -3.0422  -3.0360  -3.0352  -3.0350  -3.0345  -3.0342  -3.0332
    -3.0178  -3.0178  -3.0178  -2.9746  -2.9746  -2.9744  -2.9384  -2.8145
    -2.8124  -2.8105  -2.8100  -2.8100  -2.8099  -2.8077  -2.8064  -2.8047
    -2.7927  -2.7920  -2.7918  -2.6299  -2.1361  -1.8445  -1.4202  -1.4193
    -1.4182  -1.4173  -1.4166  -1.4104  -0.9576  -0.9330  -0.7625  -0.1652
     0.0514   0.0523   0.0535   0.0546   0.0551   0.0559   0.2615   0.4430
     0.4675   0.4687   0.4694   0.4704   0.4737   0.5171   0.8857   0.8888
     0.8902   0.8920   0.8925   0.8940   1.2114   1.2192   1.3395   1.3398
     1.3399   1.9019   1.9025   1.9029   2.2524   2.2529   2.2535   2.2982
     2.3027   2.3033   2.3039   2.3046   2.3055   2.4916   2.4933   2.4948
     2.5641   3.5003   3.5070   3.5180   3.5192   3.5210   3.5298   3.9914
     3.9925   3.9943   3.9952   3.9972   3.9978   4.1800   4.5886   4.5909
     4.5945   4.8721   4.8733   4.8749   5.6925   5.6951   5.6963   5.9882
     6.0030   6.0431   6.0499   6.0618   6.0677   6.2037   6.3787   6.5568
     6.6018   6.6087   6.6175   7.2545   7.3561   7.3599   7.3784   7.3822
     7.3832   7.3861   7.5486   7.5899   7.5905   7.5917   7.5930   7.5937
     7.5948   7.7689   7.7694   7.7729   7.7733   7.7742   7.7751   7.8776
     8.1188   8.1608   8.2899   8.3026   8.3902   8.4207   8.4815   8.4834
     8.4857   8.4876   8.4884   8.4893   8.5317   8.5437   8.5680   8.5739
     8.5753   8.5755   8.5785   8.5808   8.5817   8.7822   8.8558   8.8653
     8.9802   9.0044   9.0749   9.1834   9.2054   9.2409   9.3250   9.3834
     9.4390   9.5072   9.5178   9.5446   9.5639   9.5925   9.6026   9.6146
     9.6648   9.7821   9.9905  10.0096  10.0168  10.0209  10.0251  10.0320
    10.0625  10.0700  10.0713  10.0735  10.0738  10.0748  10.1584  10.1858
    10.1894  10.4759  10.5212  10.5334  10.6396  10.6514  10.7537  10.8376
    10.9306  10.9634  11.0145  11.0668  11.0934  11.1556  11.2605  11.3005
    11.3321  11.3814  11.4327  11.4381  11.4548  11.4557  11.4607  11.4930
    11.5207  11.5944

     occupation numbers 
     1.0000   1.0000   1.0000   1.0000   1.0000   1.0000   1.0000   1.0000
     1.0000   1.0000   1.0000   1.0000   1.0000   1.0000   1.0000   1.0000
     1.0000   1.0000   1.0000   1.0000   1.0000   1.0000   1.0000   1.0000
     1.0000   1.0000   1.0000   1.0000   1.0000   1.0000   1.0000   1.0000
     1.0000   1.0000   1.0000   1.0000   1.0000   1.0000   1.0000   1.0000
     1.0000   1.0000   1.0000   1.0000   1.0000   1.0000   1.0000   1.0000
     1.0000   1.0000   1.0000   1.0000   1.0000   1.0000   1.0000   1.0000
     1.0000   1.0000   1.0000   1.0000   1.0000   1.0000   1.0000   1.0000
     1.0000   1.0000   1.0000   1.0000   1.0000   1.0000   1.0000   1.0000
     1.0000   1.0000   1.0000   1.0000   1.0000   1.0000   1.0000   1.0000
     1.0000   1.0000   1.0000   1.0000   1.0000   1.0000   1.0000   1.0000
     1.0000   1.0000   1.0000   1.0000   1.0000   1.0000   1.0000   1.0000
     1.0000   1.0000   1.0000   1.0000   1.0000   1.0000   1.0000   1.0000
     1.0000   1.0000   1.0000   1.0000   1.0000   1.0000   1.0000   1.0000
     1.0000   1.0000   1.0000   1.0000   1.0000   1.0000   1.0000   1.0000
     1.0000   1.0000   1.0000   1.0000   1.0000   1.0000   1.0000   1.0000
     1.0000   1.0000   1.0000   1.0000   1.0000   1.0000   1.0000   1.0000
     1.0000   1.0000   1.0000   1.0000   1.0000   1.0000   1.0000   1.0000
     1.0000   1.0000   1.0000   1.0000   1.0000   1.0000   1.0000   1.0000
     1.0000   1.0000   1.0000   1.0000   1.0000   1.0000   1.0000   1.0000
     1.0000   1.0000   1.0000   1.0000   1.0000   1.0000   1.0000   1.0000
     1.0000   1.0000   1.0000   1.0000   1.0000   1.0000   1.0000   1.0000
     1.0000   1.0000   1.0000   1.0000   1.0000   1.0000   1.0000   1.0000
     1.0000   1.0000   1.0000   1.0000   1.0000   1.0000   1.0000   1.0000
     1.0000   1.0000   1.0000   1.0000   1.0000   1.0000   1.0000   1.0000
     1.0000   1.0000   1.0000   1.0000   1.0000   1.0000   1.0000   1.0000
     1.0000   1.0000   1.0000   1.0000   1.0000   1.0000   1.0000   1.0000
     1.0000   1.0000   1.0000   1.0000   1.0000   1.0000   1.0000   1.0000
     1.0000   1.0000   1.0000   1.0000   1.0000   1.0000   1.0000   1.0000
     1.0000   1.0000   1.0000   1.0000   1.0000   1.0000   1.0000   1.0000
     1.0000   1.0000   1.0000   1.0000   1.0000   1.0000   1.0000   1.0000
     1.0000   1.0000   1.0000   1.0000   1.0000   1.0000   1.0000   1.0000
     1.0000   1.0000   1.0000   1.0000   1.0000   1.0000   1.0000   1.0000
     1.0000   1.0000   1.0000   1.0000   1.0000   1.0000   1.0000   1.0000
     1.0000   1.0000   1.0000   1.0000   1.0000   1.0000   1.0000   1.0000
     1.0000   1.0000   1.0000   1.0000   1.0000   1.0000   1.0000   1.0000
     1.0000   1.0000   1.0000   1.0000   1.0000   1.0000   1.0000   1.0000
     1.0000   1.0000   1.0000   1.0000   1.0000   1.0000   1.0000   1.0000
     1.0000   1.0000   1.0000   1.0000   1.0000   1.0000   1.0000   1.0000
     1.0000   1.0000   1.0000   1.0000   1.0000   1.0000   1.0000   1.0000
     1.0000   1.0000   1.0000   1.0000   1.0000   1.0000   1.0000   1.0000
     1.0000   1.0000   1.0000   1.0000   1.0000   1.0000   1.0000   1.0000
     1.0000   1.0000   1.0000   1.0000   1.0000   1.0000   1.0000   1.0000
     1.0000   1.0000   1.0000   1.0000   1.0000   1.0000   1.0000   1.0000
     1.0000   1.0000   1.0000   1.0000   1.0000   1.0000   1.0000   1.0000
     1.0000   1.0000   1.0000   1.0000   1.0000   1.0000   1.0000   1.0000
     1.0000   1.0000   1.0000   1.0000   1.0000   1.0000   1.0000   1.0000
     1.0000   1.0000   1.0000   1.0000   1.0000   1.0000   1.0000   1.0000
     1.0000   1.0000   1.0000   1.0000   1.0000   1.0000   1.0000   1.0000
     1.0000   1.0000   1.0000   1.0000   1.0000   1.0000   1.0000   1.0000
     1.0000   1.0000   1.0000   1.0000   1.0000   1.0000   1.0000   1.0000
     1.0000   1.0000   1.0000   1.0000   1.0000   1.0000   1.0000   1.0000
     1.0000   1.0000   1.0000   1.0000   1.0000   1.0000   1.0000   1.0000
     1.0000   1.0000   1.0000   1.0000   1.0000   1.0000   1.0000   1.0000
     1.0000   1.0000   1.0000   1.0000   1.0000   1.0000   1.0000   1.0000
     1.0000   1.0000   1.0000   1.0000   1.0000   1.0000   1.0000   1.0000
     1.0000   1.0000   1.0000   1.0000   1.0000   1.0000   1.0000   1.0000
     1.0000   1.0000   1.0000   1.0000   1.0000   1.0000   1.0000   1.0000
     1.0000   1.0000   1.0000   1.0000   1.0000   1.0000   1.0000   1.0000
     1.0000   1.0000   1.0000   1.0000   1.0000   1.0000   1.0000   1.0000
     1.0000   1.0000   1.0000   1.0000   1.0000   1.0000   1.0000   1.0000
     1.0000   1.0000   1.0000   1.0000   1.0000   1.0000   1.0000   1.0000
     1.0000   1.0000   1.0000   1.0000   1.0000   1.0000   1.0000   1.0000
     1.0000   1.0000   1.0000   1.0000   1.0000   1.0000   1.0000   1.0000
     1.0000   1.0000   1.0000   1.0000   1.0000   1.0000   1.0000   1.0000
     1.0000   1.0000   1.0000   1.0000   1.0000   1.0000   1.0000   1.0000
     1.0000   1.0000   1.0000   1.0000   1.0000   1.0000   1.0000   1.0000
     1.0000   1.0000   1.0000   1.0000   1.0000   1.0000   1.0000   1.0000
     1.0000   1.0000   1.0000   1.0000   1.0000   1.0000   1.0000   1.0000
     1.0000   1.0000   1.0000   1.0000   1.0000   1.0000   1.0000   1.0000
     1.0000   1.0000   1.0000   1.0000   1.0000   1.0000   1.0000   1.0000
     1.0000   1.0000   1.0000   1.0000   1.0000   1.0000   1.0000   1.0000
     1.0000   1.0000   1.0000   1.0000   1.0000   1.0000   1.0000   1.0000
     1.0000   1.0000   1.0000   1.0000   1.0000   1.0000   1.0000   1.0000
     1.0000   1.0000   1.0000   1.0000   1.0000   1.0000   1.0000   1.0000
     1.0000   1.0000   1.0000   1.0000   1.0000   1.0000   1.0000   1.0000
     1.0000   1.0000   1.0000   1.0000   1.0000   1.0000   1.0000   1.0000
     1.0000   1.0000   1.0000   1.0000   1.0000   1.0000   1.0000   1.0000
     1.0000   1.0000   1.0000   1.0000   1.0000   1.0000   1.0000   1.0000
     1.0000   1.0000   1.0000   1.0000   1.0000   1.0000   1.0000   1.0000
     1.0000   1.0000   1.0000   1.0000   1.0000   1.0000   1.0000   1.0000
     1.0000   1.0000   1.0000   1.0000   1.0000   1.0000   1.0000   1.0000
     1.0000   1.0369   1.0390   1.0425   1.0429   1.0435   1.0464   0.5798
     0.5767   0.5716   0.5691   0.5635   0.5620   0.1565   0.0004   0.0004
     0.0004   0.0000   0.0000   0.0000   0.0000   0.0000   0.0000   0.0000
     0.0000   0.0000   0.0000   0.0000   0.0000   0.0000   0.0000   0.0000
     0.0000   0.0000   0.0000   0.0000   0.0000   0.0000   0.0000   0.0000
     0.0000   0.0000   0.0000   0.0000   0.0000   0.0000   0.0000   0.0000
     0.0000   0.0000   0.0000   0.0000   0.0000   0.0000   0.0000   0.0000
     0.0000   0.0000   0.0000   0.0000   0.0000   0.0000   0.0000   0.0000
     0.0000   0.0000   0.0000   0.0000   0.0000   0.0000   0.0000   0.0000
     0.0000   0.0000   0.0000   0.0000   0.0000   0.0000   0.0000   0.0000
     0.0000   0.0000   0.0000   0.0000   0.0000   0.0000   0.0000   0.0000
     0.0000   0.0000   0.0000   0.0000   0.0000   0.0000   0.0000   0.0000
     0.0000   0.0000   0.0000   0.0000   0.0000   0.0000   0.0000   0.0000
     0.0000   0.0000   0.0000   0.0000   0.0000   0.0000   0.0000   0.0000
     0.0000   0.0000   0.0000   0.0000   0.0000   0.0000   0.0000   0.0000
     0.0000   0.0000   0.0000   0.0000   0.0000   0.0000   0.0000   0.0000
     0.0000   0.0000   0.0000   0.0000   0.0000   0.0000   0.0000   0.0000
     0.0000   0.0000

          k = 0.0000 0.3849 0.0000 ( 90604 PWs)   bands (ev):

  -122.8113-122.8098-122.8093-122.8087-122.8083-122.8079-122.8077-122.8074
  -122.8071-122.8069-122.8065-122.8062-122.8057-122.8054-122.8049-122.8044
  -122.7772-122.7738-122.7726-122.7685-122.7676-122.7666-122.7655-122.7641
  -122.7626-122.7616-122.7607-122.7601-122.7598-122.7594-122.7590-122.7587
  -122.6063-122.6063-122.6058-122.6052-122.6048-122.6044-122.6042-122.6042
  -122.6037-122.6035-122.6034-122.6030-122.6026-122.6022-122.6018-122.6015
  -122.6008-122.6000-122.5996-122.5930-122.5846-122.5837-122.5832-122.5825
  -122.5821-122.5818-122.5811-122.5809-122.5801-122.5794-122.5786-122.5772
   -76.9732 -76.9731 -76.9721 -76.9699 -76.9698 -76.9684 -76.9679 -76.9654
   -76.9652 -76.9651 -76.9628 -76.9613 -76.9612 -76.9612 -76.9607 -76.9600
   -76.9595 -76.9591 -76.9589 -76.9585 -76.9583 -76.9581 -76.9581 -76.9579
   -76.9576 -76.9573 -76.9568 -76.9564 -76.9560 -76.9554 -76.9532 -76.9528
   -76.9524 -76.9522 -76.9502 -76.9496 -76.9492 -76.9485 -76.9475 -76.9470
   -76.9459 -76.9454 -76.9448 -76.9430 -76.9426 -76.9408 -76.9405 -76.9390
   -76.9356 -76.9342 -76.9328 -76.9282 -76.9281 -76.9267 -76.9259 -76.9248
   -76.9246 -76.9237 -76.9235 -76.9229 -76.9214 -76.9194 -76.9191 -76.9188
   -76.9186 -76.9176 -76.9166 -76.9161 -76.9158 -76.9152 -76.9137 -76.9135
   -76.9126 -76.9122 -76.9117 -76.9112 -76.9110 -76.9108 -76.9104 -76.9100
   -76.9098 -76.9092 -76.9083 -76.9067 -76.9058 -76.9048 -76.9039 -76.9036
   -76.9024 -76.9017 -76.9005 -76.8988 -76.8981 -76.8975 -76.8960 -76.8937
   -76.7667 -76.7663 -76.7662 -76.7655 -76.7653 -76.7651 -76.7645 -76.7645
   -76.7635 -76.7631 -76.7631 -76.7631 -76.7629 -76.7624 -76.7622 -76.7620
   -76.7617 -76.7615 -76.7612 -76.7611 -76.7607 -76.7603 -76.7600 -76.7599
   -76.7594 -76.7585 -76.7585 -76.7584 -76.7582 -76.7582 -76.7582 -76.7562
   -76.7544 -76.7543 -76.7533 -76.7529 -76.7515 -76.7513 -76.7492 -76.7464
   -76.7461 -76.7457 -76.7456 -76.7455 -76.7449 -76.7439 -76.7435 -76.7433
   -76.7431 -76.7427 -76.7427 -76.7423 -76.7422 -76.7418 -76.7417 -76.7413
   -76.7412 -76.7410 -76.7407 -76.7406 -76.7403 -76.7402 -76.7401 -76.7393
   -76.7391 -76.7386 -76.7384 -76.7380 -76.7376 -76.7370 -76.7365 -76.7362
   -76.7358 -76.7350 -76.7340 -76.7339 -76.7336 -76.7322 -76.7314 -76.7308
   -76.7280 -76.7274 -76.7261 -76.7231 -76.7223 -76.7217 -76.7210 -76.7200
   -76.7192 -76.7187 -76.7173 -76.7157 -76.7149 -76.7140 -76.7123 -76.7102
   -15.5255 -14.1426 -13.3201 -10.9441 -10.8484  -7.9275  -7.6470  -6.2273
    -5.7770  -5.6202  -5.4499  -5.1656  -5.1564  -5.0755  -5.0739  -4.9163
    -4.7838  -4.7209  -4.6181  -4.5772  -4.5726  -4.5725  -4.5612  -4.5259
    -4.5242  -4.5182  -4.5177  -4.5159  -4.5155  -4.4902  -4.4825  -4.4328
    -4.4231  -4.3981  -4.3980  -4.3802  -4.3799  -4.3696  -4.3695  -4.3529
    -4.3444  -4.3229  -4.3227  -4.3096  -4.3092  -4.3053  -4.3050  -4.2825
    -4.2803  -4.2802  -4.2692  -4.2691  -4.2559  -4.2557  -4.2509  -4.2496
    -4.2493  -4.2342  -4.2341  -4.2177  -4.2164  -4.2049  -4.2047  -4.1990
    -4.1989  -4.1837  -4.1815  -4.1810  -4.1800  -4.1791  -4.1651  -4.1648
    -4.1640  -4.1316  -4.1315  -4.1275  -4.1268  -4.1094  -4.1088  -4.1070
    -4.1064  -4.1011  -4.0997  -4.0992  -4.0542  -4.0532  -4.0499  -4.0488
    -4.0439  -4.0263  -4.0256  -4.0230  -4.0227  -4.0114  -4.0113  -4.0026
    -3.9836  -3.9835  -3.9756  -3.9753  -3.9748  -3.9746  -3.9688  -3.9682
    -3.9666  -3.9472  -3.9470  -3.9381  -3.9376  -3.9365  -3.9325  -3.9317
    -3.9300  -3.9295  -3.9286  -3.9184  -3.9176  -3.9068  -3.9064  -3.9051
    -3.8861  -3.8662  -3.8578  -3.8570  -3.8491  -3.8372  -3.8366  -3.8341
    -3.8329  -3.8320  -3.8257  -3.8253  -3.8230  -3.8201  -3.8197  -3.8065
    -3.7956  -3.7951  -3.7906  -3.7902  -3.7708  -3.7706  -3.7577  -3.7536
    -3.7490  -3.7454  -3.7448  -3.7402  -3.7400  -3.7219  -3.7213  -3.7159
    -3.7154  -3.7027  -3.7024  -3.6987  -3.6786  -3.6783  -3.6750  -3.6740
    -3.6734  -3.6639  -3.6619  -3.6510  -3.6506  -3.6499  -3.6476  -3.6471
    -3.6194  -3.6192  -3.6175  -3.6162  -3.6158  -3.5965  -3.5958  -3.5942
    -3.5940  -3.5762  -3.5732  -3.5620  -3.5618  -3.5424  -3.5420  -3.5410
    -3.5406  -3.5404  -3.5353  -3.5351  -3.5325  -3.5296  -3.5294  -3.5223
    -3.5211  -3.5095  -3.5093  -3.5036  -3.5033  -3.5013  -3.5009  -3.4904
    -3.4900  -3.4808  -3.4806  -3.4790  -3.4787  -3.4781  -3.4697  -3.4695
    -3.4622  -3.4566  -3.4562  -3.4441  -3.4438  -3.4390  -3.4378  -3.4372
    -3.4298  -3.4294  -3.4249  -3.4244  -3.4210  -3.4207  -3.4201  -3.4158
    -3.4147  -3.3987  -3.3980  -3.3971  -3.3959  -3.3956  -3.3953  -3.3910
    -3.3897  -3.3893  -3.3795  -3.3625  -3.3617  -3.3616  -3.3585  -3.3577
    -3.3407  -3.3401  -3.3307  -3.3303  -3.3075  -3.3045  -3.3037  -3.3004
    -3.3000  -3.2997  -3.2970  -3.2954  -3.2925  -3.2919  -3.2911  -3.2904
    -3.2825  -3.2824  -3.2776  -3.2759  -3.2748  -3.2727  -3.2723  -3.2691
    -3.2683  -3.2616  -3.2611  -3.2601  -3.2597  -3.2580  -3.2501  -3.2439
    -3.2430  -3.2354  -3.2351  -3.2194  -3.2174  -3.2170  -3.2092  -3.2063
    -3.2063  -3.2056  -3.2054  -3.1840  -3.1789  -3.1765  -3.1759  -3.1723
    -3.1700  -3.1670  -3.1661  -3.1653  -3.1645  -3.1642  -3.1640  -3.1617
    -3.1604  -3.1535  -3.1523  -3.1500  -3.1497  -3.1475  -3.1444  -3.1440
    -3.1367  -3.1355  -3.1350  -3.1288  -3.1238  -3.1234  -3.1195  -3.1172
    -3.1152  -3.1145  -3.1057  -3.0901  -3.0900  -3.0756  -3.0593  -3.0592
    -3.0537  -3.0536  -3.0408  -3.0333  -3.0313  -3.0313  -3.0303  -3.0297
    -3.0273  -3.0151  -3.0145  -3.0100  -2.9608  -2.9602  -2.9044  -2.9044
    -2.8871  -2.8867  -2.8694  -2.8515  -2.7605  -2.7601  -2.6996  -2.6300
    -2.4232  -2.2292  -2.1365  -2.0965  -2.0956  -1.8459  -1.7441  -1.7357
    -1.6040  -1.6034  -1.5947  -0.9424  -0.8253  -0.8233  -0.8007  -0.7635
    -0.6537  -0.6521  -0.5890  -0.3442  -0.1650  -0.1031   0.1400   0.1429
     0.2035   0.2035   0.2446   0.2618   0.4849   0.6000   0.6037   0.6949
     0.6950   1.0371   1.0373   1.1909   1.1926   1.2195   1.4908   1.4912
     1.4966   1.6432   1.7157   2.1427   2.1434   2.2933   2.3652   2.3695
     2.4260   2.4279   2.5700   2.6745   2.6761   2.9843   2.9858   3.0415
     3.0461   3.1102   3.1108   3.1600   3.9732   3.9740   4.2775   4.2782
     4.3885   4.4271   4.4327   4.5805   4.5813   4.8146   4.8156   5.0196
     5.0737   5.1759   5.2165   5.2177   5.6298   5.6480   5.6569   5.6583
     5.7371   5.7401   5.8113   5.8127   5.8175   5.9219   5.9239   6.1355
     6.2787   6.2832   6.3691   6.3729   6.3743   6.6895   6.7540   6.8443
     6.8681   7.0767   7.0775   7.2402   7.2409   7.3306   7.3515   7.3639
     7.3776   7.4252   7.4526   7.5712   7.5754   7.7300   7.8356   7.9309
     7.9675   7.9889   8.0012   8.0096   8.0115   8.0306   8.1373   8.1499
     8.1510   8.1728   8.1829   8.3563   8.5460   8.5552   8.5577   8.6007
     8.6644   8.7782   8.7846   8.8270   8.8480   8.9019   9.0171   9.0741
     9.1516   9.1956   9.2066   9.2459   9.2885   9.3032   9.3117   9.4025
     9.4330   9.4550   9.5761   9.6711   9.6831   9.7059   9.7832   9.7937
     9.8038   9.8943   9.9256   9.9952  10.0568  10.1407  10.1680  10.2199
    10.2557  10.2847  10.3021  10.3814  10.4002  10.4281  10.4767  10.4907
    10.5385  10.5657  10.6663  10.6903  10.7102  10.7457  10.8937  10.9052
    10.9072  10.9291  10.9952  11.0882  11.1081  11.1402  11.1534  11.1623
    11.1830  11.1895  11.2123  11.2298  11.3183  11.4267  11.4791  11.5592
    11.6411  11.6813

     occupation numbers 
     1.0000   1.0000   1.0000   1.0000   1.0000   1.0000   1.0000   1.0000
     1.0000   1.0000   1.0000   1.0000   1.0000   1.0000   1.0000   1.0000
     1.0000   1.0000   1.0000   1.0000   1.0000   1.0000   1.0000   1.0000
     1.0000   1.0000   1.0000   1.0000   1.0000   1.0000   1.0000   1.0000
     1.0000   1.0000   1.0000   1.0000   1.0000   1.0000   1.0000   1.0000
     1.0000   1.0000   1.0000   1.0000   1.0000   1.0000   1.0000   1.0000
     1.0000   1.0000   1.0000   1.0000   1.0000   1.0000   1.0000   1.0000
     1.0000   1.0000   1.0000   1.0000   1.0000   1.0000   1.0000   1.0000
     1.0000   1.0000   1.0000   1.0000   1.0000   1.0000   1.0000   1.0000
     1.0000   1.0000   1.0000   1.0000   1.0000   1.0000   1.0000   1.0000
     1.0000   1.0000   1.0000   1.0000   1.0000   1.0000   1.0000   1.0000
     1.0000   1.0000   1.0000   1.0000   1.0000   1.0000   1.0000   1.0000
     1.0000   1.0000   1.0000   1.0000   1.0000   1.0000   1.0000   1.0000
     1.0000   1.0000   1.0000   1.0000   1.0000   1.0000   1.0000   1.0000
     1.0000   1.0000   1.0000   1.0000   1.0000   1.0000   1.0000   1.0000
     1.0000   1.0000   1.0000   1.0000   1.0000   1.0000   1.0000   1.0000
     1.0000   1.0000   1.0000   1.0000   1.0000   1.0000   1.0000   1.0000
     1.0000   1.0000   1.0000   1.0000   1.0000   1.0000   1.0000   1.0000
     1.0000   1.0000   1.0000   1.0000   1.0000   1.0000   1.0000   1.0000
     1.0000   1.0000   1.0000   1.0000   1.0000   1.0000   1.0000   1.0000
     1.0000   1.0000   1.0000   1.0000   1.0000   1.0000   1.0000   1.0000
     1.0000   1.0000   1.0000   1.0000   1.0000   1.0000   1.0000   1.0000
     1.0000   1.0000   1.0000   1.0000   1.0000   1.0000   1.0000   1.0000
     1.0000   1.0000   1.0000   1.0000   1.0000   1.0000   1.0000   1.0000
     1.0000   1.0000   1.0000   1.0000   1.0000   1.0000   1.0000   1.0000
     1.0000   1.0000   1.0000   1.0000   1.0000   1.0000   1.0000   1.0000
     1.0000   1.0000   1.0000   1.0000   1.0000   1.0000   1.0000   1.0000
     1.0000   1.0000   1.0000   1.0000   1.0000   1.0000   1.0000   1.0000
     1.0000   1.0000   1.0000   1.0000   1.0000   1.0000   1.0000   1.0000
     1.0000   1.0000   1.0000   1.0000   1.0000   1.0000   1.0000   1.0000
     1.0000   1.0000   1.0000   1.0000   1.0000   1.0000   1.0000   1.0000
     1.0000   1.0000   1.0000   1.0000   1.0000   1.0000   1.0000   1.0000
     1.0000   1.0000   1.0000   1.0000   1.0000   1.0000   1.0000   1.0000
     1.0000   1.0000   1.0000   1.0000   1.0000   1.0000   1.0000   1.0000
     1.0000   1.0000   1.0000   1.0000   1.0000   1.0000   1.0000   1.0000
     1.0000   1.0000   1.0000   1.0000   1.0000   1.0000   1.0000   1.0000
     1.0000   1.0000   1.0000   1.0000   1.0000   1.0000   1.0000   1.0000
     1.0000   1.0000   1.0000   1.0000   1.0000   1.0000   1.0000   1.0000
     1.0000   1.0000   1.0000   1.0000   1.0000   1.0000   1.0000   1.0000
     1.0000   1.0000   1.0000   1.0000   1.0000   1.0000   1.0000   1.0000
     1.0000   1.0000   1.0000   1.0000   1.0000   1.0000   1.0000   1.0000
     1.0000   1.0000   1.0000   1.0000   1.0000   1.0000   1.0000   1.0000
     1.0000   1.0000   1.0000   1.0000   1.0000   1.0000   1.0000   1.0000
     1.0000   1.0000   1.0000   1.0000   1.0000   1.0000   1.0000   1.0000
     1.0000   1.0000   1.0000   1.0000   1.0000   1.0000   1.0000   1.0000
     1.0000   1.0000   1.0000   1.0000   1.0000   1.0000   1.0000   1.0000
     1.0000   1.0000   1.0000   1.0000   1.0000   1.0000   1.0000   1.0000
     1.0000   1.0000   1.0000   1.0000   1.0000   1.0000   1.0000   1.0000
     1.0000   1.0000   1.0000   1.0000   1.0000   1.0000   1.0000   1.0000
     1.0000   1.0000   1.0000   1.0000   1.0000   1.0000   1.0000   1.0000
     1.0000   1.0000   1.0000   1.0000   1.0000   1.0000   1.0000   1.0000
     1.0000   1.0000   1.0000   1.0000   1.0000   1.0000   1.0000   1.0000
     1.0000   1.0000   1.0000   1.0000   1.0000   1.0000   1.0000   1.0000
     1.0000   1.0000   1.0000   1.0000   1.0000   1.0000   1.0000   1.0000
     1.0000   1.0000   1.0000   1.0000   1.0000   1.0000   1.0000   1.0000
     1.0000   1.0000   1.0000   1.0000   1.0000   1.0000   1.0000   1.0000
     1.0000   1.0000   1.0000   1.0000   1.0000   1.0000   1.0000   1.0000
     1.0000   1.0000   1.0000   1.0000   1.0000   1.0000   1.0000   1.0000
     1.0000   1.0000   1.0000   1.0000   1.0000   1.0000   1.0000   1.0000
     1.0000   1.0000   1.0000   1.0000   1.0000   1.0000   1.0000   1.0000
     1.0000   1.0000   1.0000   1.0000   1.0000   1.0000   1.0000   1.0000
     1.0000   1.0000   1.0000   1.0000   1.0000   1.0000   1.0000   1.0000
     1.0000   1.0000   1.0000   1.0000   1.0000   1.0000   1.0000   1.0000
     1.0000   1.0000   1.0000   1.0000   1.0000   1.0000   1.0000   1.0000
     1.0000   1.0000   1.0000   1.0000   1.0000   1.0000   1.0000   1.0000
     1.0000   1.0000   1.0000   1.0000   1.0000   1.0000   1.0000   1.0000
     1.0000   1.0000   1.0000   1.0000   1.0000   1.0000   1.0000   1.0000
     1.0000   1.0000   1.0000   1.0000   1.0000   1.0000   1.0000   1.0000
     1.0000   1.0000   1.0000   1.0000   1.0000   1.0000   1.0000   1.0000
     1.0000   1.0000   1.0000   1.0000   1.0000   1.0000   1.0000   1.0000
     1.0000   1.0000   1.0000   1.0000   1.0000   1.0000   1.0000   1.0000
     1.0000   1.0000   1.0000   1.0000   1.0000   1.0000   1.0000   1.0000
     1.0000   1.0000   1.0000   1.0000   1.0000   1.0000   1.0000   1.0000
     1.0000   1.0000   1.0000   1.0000   1.0000   1.0000   1.0000   1.0000
     1.0000   1.0000   1.0000   1.0000   1.0000   1.0000   1.0000   1.0000
     1.0000   1.0000   1.0000   1.0000   1.0000   1.0000   1.0000   1.0000
     1.0000   1.0000   1.0000   1.0000   1.0000   1.0000   1.0000   1.0000
     1.0000   1.0000   1.0000   1.0000   1.0000   1.0000   1.0000   1.0000
     1.0000   1.0000   1.0000   1.0000   1.0000   1.0000   1.0000   1.0000
     1.0000   1.0000   1.0000   1.0000   1.0000   1.0000   1.0000   1.0000
     1.0000   1.0000   1.0000   1.0000   1.0000   1.0000   1.0000   1.0000
     1.0000   1.0000   1.0000   1.0000   1.0000   1.0000   1.0000   1.0000
     1.0000   1.0001   1.0001   1.0004   0.6302   0.6279   0.0567   0.0563
     0.0133   0.0074   0.0068   0.0005   0.0005   0.0000   0.0000   0.0000
     0.0000   0.0000   0.0000   0.0000   0.0000   0.0000   0.0000   0.0000
     0.0000   0.0000   0.0000   0.0000   0.0000   0.0000   0.0000   0.0000
     0.0000   0.0000   0.0000   0.0000   0.0000   0.0000   0.0000   0.0000
     0.0000   0.0000   0.0000   0.0000   0.0000   0.0000   0.0000   0.0000
     0.0000   0.0000   0.0000   0.0000   0.0000   0.0000   0.0000   0.0000
     0.0000   0.0000   0.0000   0.0000   0.0000   0.0000   0.0000   0.0000
     0.0000   0.0000   0.0000   0.0000   0.0000   0.0000   0.0000   0.0000
     0.0000   0.0000   0.0000   0.0000   0.0000   0.0000   0.0000   0.0000
     0.0000   0.0000   0.0000   0.0000   0.0000   0.0000   0.0000   0.0000
     0.0000   0.0000   0.0000   0.0000   0.0000   0.0000   0.0000   0.0000
     0.0000   0.0000   0.0000   0.0000   0.0000   0.0000   0.0000   0.0000
     0.0000   0.0000   0.0000   0.0000   0.0000   0.0000   0.0000   0.0000
     0.0000   0.0000   0.0000   0.0000   0.0000   0.0000   0.0000   0.0000
     0.0000   0.0000   0.0000   0.0000   0.0000   0.0000   0.0000   0.0000
     0.0000   0.0000   0.0000   0.0000   0.0000   0.0000   0.0000   0.0000
     0.0000   0.0000

          k = 0.3333 0.1925 0.0000 ( 90604 PWs)   bands (ev):

  -122.8113-122.8099-122.8093-122.8086-122.8083-122.8080-122.8077-122.8074
  -122.8071-122.8068-122.8065-122.8062-122.8056-122.8054-122.8049-122.8044
  -122.7772-122.7738-122.7726-122.7685-122.7676-122.7666-122.7655-122.7641
  -122.7627-122.7615-122.7608-122.7602-122.7598-122.7594-122.7590-122.7587
  -122.6063-122.6063-122.6057-122.6052-122.6048-122.6045-122.6042-122.6042
  -122.6037-122.6036-122.6034-122.6030-122.6026-122.6021-122.6018-122.6015
  -122.6008-122.6000-122.5996-122.5930-122.5846-122.5837-122.5832-122.5826
  -122.5821-122.5818-122.5810-122.5809-122.5801-122.5794-122.5786-122.5772
   -76.9731 -76.9731 -76.9721 -76.9699 -76.9699 -76.9683 -76.9679 -76.9654
   -76.9652 -76.9650 -76.9628 -76.9613 -76.9612 -76.9611 -76.9606 -76.9599
   -76.9596 -76.9592 -76.9589 -76.9585 -76.9583 -76.9582 -76.9581 -76.9579
   -76.9576 -76.9573 -76.9567 -76.9565 -76.9560 -76.9554 -76.9532 -76.9529
   -76.9523 -76.9522 -76.9502 -76.9498 -76.9491 -76.9486 -76.9475 -76.9468
   -76.9459 -76.9454 -76.9447 -76.9430 -76.9426 -76.9407 -76.9405 -76.9391
   -76.9355 -76.9340 -76.9328 -76.9286 -76.9282 -76.9270 -76.9262 -76.9249
   -76.9247 -76.9235 -76.9234 -76.9220 -76.9214 -76.9194 -76.9192 -76.9186
   -76.9181 -76.9176 -76.9166 -76.9162 -76.9155 -76.9152 -76.9138 -76.9137
   -76.9125 -76.9120 -76.9118 -76.9115 -76.9113 -76.9107 -76.9104 -76.9100
   -76.9098 -76.9096 -76.9085 -76.9065 -76.9062 -76.9047 -76.9043 -76.9034
   -76.9025 -76.9017 -76.9000 -76.8990 -76.8983 -76.8970 -76.8954 -76.8943
   -76.7667 -76.7663 -76.7662 -76.7655 -76.7653 -76.7651 -76.7645 -76.7645
   -76.7635 -76.7632 -76.7631 -76.7630 -76.7629 -76.7623 -76.7622 -76.7620
   -76.7617 -76.7616 -76.7612 -76.7611 -76.7606 -76.7604 -76.7600 -76.7600
   -76.7594 -76.7585 -76.7585 -76.7584 -76.7582 -76.7582 -76.7579 -76.7563
   -76.7544 -76.7543 -76.7533 -76.7529 -76.7515 -76.7513 -76.7491 -76.7464
   -76.7460 -76.7460 -76.7456 -76.7455 -76.7449 -76.7439 -76.7435 -76.7433
   -76.7430 -76.7429 -76.7427 -76.7423 -76.7422 -76.7418 -76.7417 -76.7414
   -76.7411 -76.7410 -76.7407 -76.7403 -76.7402 -76.7401 -76.7401 -76.7393
   -76.7391 -76.7386 -76.7384 -76.7380 -76.7375 -76.7370 -76.7364 -76.7362
   -76.7358 -76.7350 -76.7341 -76.7338 -76.7336 -76.7322 -76.7314 -76.7309
   -76.7283 -76.7275 -76.7261 -76.7230 -76.7226 -76.7218 -76.7208 -76.7198
   -76.7193 -76.7187 -76.7170 -76.7158 -76.7149 -76.7140 -76.7121 -76.7104
   -15.5255 -14.1426 -13.3201 -10.9441 -10.8484  -7.9275  -7.6470  -6.2273
    -5.7770  -5.6203  -5.4499  -5.1656  -5.1564  -5.0754  -5.0740  -4.9164
    -4.7838  -4.7209  -4.6181  -4.5771  -4.5726  -4.5725  -4.5613  -4.5256
    -4.5243  -4.5185  -4.5180  -4.5156  -4.5151  -4.4903  -4.4825  -4.4330
    -4.4231  -4.3981  -4.3980  -4.3803  -4.3799  -4.3695  -4.3695  -4.3529
    -4.3445  -4.3229  -4.3227  -4.3095  -4.3092  -4.3053  -4.3050  -4.2827
    -4.2803  -4.2802  -4.2693  -4.2691  -4.2558  -4.2557  -4.2509  -4.2495
    -4.2494  -4.2342  -4.2341  -4.2175  -4.2163  -4.2049  -4.2047  -4.1991
    -4.1990  -4.1838  -4.1813  -4.1810  -4.1800  -4.1790  -4.1652  -4.1648
    -4.1639  -4.1316  -4.1316  -4.1275  -4.1269  -4.1097  -4.1089  -4.1071
    -4.1062  -4.1013  -4.0996  -4.0990  -4.0541  -4.0533  -4.0497  -4.0486
    -4.0438  -4.0259  -4.0254  -4.0231  -4.0229  -4.0114  -4.0113  -4.0025
    -3.9836  -3.9835  -3.9759  -3.9751  -3.9746  -3.9744  -3.9691  -3.9682
    -3.9663  -3.9472  -3.9470  -3.9382  -3.9379  -3.9366  -3.9323  -3.9316
    -3.9300  -3.9296  -3.9286  -3.9186  -3.9176  -3.9068  -3.9065  -3.9051
    -3.8861  -3.8659  -3.8579  -3.8570  -3.8492  -3.8376  -3.8365  -3.8341
    -3.8337  -3.8319  -3.8257  -3.8253  -3.8222  -3.8200  -3.8197  -3.8065
    -3.7960  -3.7957  -3.7905  -3.7902  -3.7708  -3.7707  -3.7577  -3.7530
    -3.7489  -3.7453  -3.7448  -3.7402  -3.7400  -3.7221  -3.7215  -3.7160
    -3.7154  -3.7026  -3.7022  -3.6988  -3.6785  -3.6781  -3.6749  -3.6741
    -3.6736  -3.6639  -3.6618  -3.6512  -3.6505  -3.6497  -3.6475  -3.6471
    -3.6193  -3.6192  -3.6176  -3.6159  -3.6154  -3.5965  -3.5962  -3.5943
    -3.5941  -3.5762  -3.5731  -3.5622  -3.5620  -3.5423  -3.5421  -3.5410
    -3.5404  -3.5401  -3.5354  -3.5351  -3.5331  -3.5298  -3.5296  -3.5222
    -3.5212  -3.5095  -3.5090  -3.5036  -3.5033  -3.5014  -3.5009  -3.4905
    -3.4900  -3.4809  -3.4808  -3.4790  -3.4787  -3.4781  -3.4699  -3.4696
    -3.4620  -3.4565  -3.4562  -3.4443  -3.4439  -3.4390  -3.4377  -3.4372
    -3.4296  -3.4292  -3.4249  -3.4244  -3.4211  -3.4207  -3.4199  -3.4159
    -3.4151  -3.3986  -3.3978  -3.3966  -3.3958  -3.3955  -3.3953  -3.3910
    -3.3897  -3.3892  -3.3796  -3.3624  -3.3617  -3.3614  -3.3585  -3.3578
    -3.3405  -3.3399  -3.3309  -3.3304  -3.3075  -3.3047  -3.3039  -3.3003
    -3.2997  -3.2994  -3.2979  -3.2955  -3.2926  -3.2918  -3.2911  -3.2903
    -3.2826  -3.2824  -3.2780  -3.2755  -3.2752  -3.2726  -3.2722  -3.2690
    -3.2683  -3.2618  -3.2614  -3.2601  -3.2598  -3.2576  -3.2501  -3.2440
    -3.2430  -3.2354  -3.2352  -3.2193  -3.2175  -3.2170  -3.2092  -3.2063
    -3.2063  -3.2057  -3.2057  -3.1839  -3.1790  -3.1764  -3.1758  -3.1723
    -3.1699  -3.1670  -3.1661  -3.1652  -3.1644  -3.1642  -3.1640  -3.1616
    -3.1607  -3.1538  -3.1523  -3.1502  -3.1495  -3.1476  -3.1444  -3.1440
    -3.1367  -3.1355  -3.1350  -3.1288  -3.1237  -3.1232  -3.1195  -3.1173
    -3.1151  -3.1140  -3.1055  -3.0901  -3.0900  -3.0756  -3.0593  -3.0591
    -3.0537  -3.0536  -3.0408  -3.0334  -3.0315  -3.0312  -3.0302  -3.0295
    -3.0273  -3.0152  -3.0146  -3.0101  -2.9606  -2.9602  -2.9045  -2.9044
    -2.8872  -2.8866  -2.8694  -2.8515  -2.7604  -2.7602  -2.6997  -2.6300
    -2.4231  -2.2292  -2.1366  -2.0964  -2.0957  -1.8459  -1.7440  -1.7356
    -1.6039  -1.6035  -1.5946  -0.9423  -0.8253  -0.8234  -0.8008  -0.7635
    -0.6537  -0.6521  -0.5889  -0.3442  -0.1650  -0.1031   0.1400   0.1428
     0.2035   0.2035   0.2448   0.2618   0.4850   0.6000   0.6036   0.6949
     0.6950   1.0371   1.0373   1.1909   1.1926   1.2195   1.4908   1.4912
     1.4966   1.6436   1.7157   2.1429   2.1434   2.2933   2.3653   2.3695
     2.4256   2.4278   2.5697   2.6745   2.6753   2.9844   2.9857   3.0421
     3.0460   3.1097   3.1103   3.1605   3.9729   3.9739   4.2779   4.2785
     4.3883   4.4265   4.4337   4.5811   4.5818   4.8152   4.8172   5.0198
     5.0731   5.1747   5.2167   5.2182   5.6298   5.6479   5.6573   5.6588
     5.7370   5.7398   5.8107   5.8114   5.8165   5.9225   5.9239   6.1366
     6.2783   6.2826   6.3704   6.3724   6.3742   6.6868   6.7546   6.8447
     6.8680   7.0762   7.0770   7.2403   7.2409   7.3305   7.3537   7.3656
     7.3751   7.4259   7.4557   7.5717   7.5750   7.7293   7.8445   7.9295
     7.9700   7.9898   8.0019   8.0098   8.0122   8.0268   8.1352   8.1500
     8.1510   8.1750   8.1828   8.3593   8.5450   8.5548   8.5576   8.5919
     8.6673   8.7787   8.7842   8.8218   8.8493   8.8967   9.0072   9.0640
     9.1507   9.1981   9.2096   9.2463   9.2921   9.3005   9.3203   9.3908
     9.4325   9.4480   9.5805   9.6687   9.6817   9.7067   9.7833   9.7945
     9.8045   9.8984   9.9334   9.9922  10.0694  10.1451  10.1634  10.2165
    10.2515  10.2917  10.2958  10.3774  10.3951  10.4259  10.4794  10.4973
    10.5341  10.5692  10.6668  10.6843  10.7176  10.7536  10.8919  10.9053
    10.9073  10.9318  10.9957  11.0903  11.1060  11.1467  11.1541  11.1594
    11.1715  11.1966  11.2094  11.2414  11.3190  11.4114  11.4655  11.5782
    11.6389  11.7008

     occupation numbers 
     1.0000   1.0000   1.0000   1.0000   1.0000   1.0000   1.0000   1.0000
     1.0000   1.0000   1.0000   1.0000   1.0000   1.0000   1.0000   1.0000
     1.0000   1.0000   1.0000   1.0000   1.0000   1.0000   1.0000   1.0000
     1.0000   1.0000   1.0000   1.0000   1.0000   1.0000   1.0000   1.0000
     1.0000   1.0000   1.0000   1.0000   1.0000   1.0000   1.0000   1.0000
     1.0000   1.0000   1.0000   1.0000   1.0000   1.0000   1.0000   1.0000
     1.0000   1.0000   1.0000   1.0000   1.0000   1.0000   1.0000   1.0000
     1.0000   1.0000   1.0000   1.0000   1.0000   1.0000   1.0000   1.0000
     1.0000   1.0000   1.0000   1.0000   1.0000   1.0000   1.0000   1.0000
     1.0000   1.0000   1.0000   1.0000   1.0000   1.0000   1.0000   1.0000
     1.0000   1.0000   1.0000   1.0000   1.0000   1.0000   1.0000   1.0000
     1.0000   1.0000   1.0000   1.0000   1.0000   1.0000   1.0000   1.0000
     1.0000   1.0000   1.0000   1.0000   1.0000   1.0000   1.0000   1.0000
     1.0000   1.0000   1.0000   1.0000   1.0000   1.0000   1.0000   1.0000
     1.0000   1.0000   1.0000   1.0000   1.0000   1.0000   1.0000   1.0000
     1.0000   1.0000   1.0000   1.0000   1.0000   1.0000   1.0000   1.0000
     1.0000   1.0000   1.0000   1.0000   1.0000   1.0000   1.0000   1.0000
     1.0000   1.0000   1.0000   1.0000   1.0000   1.0000   1.0000   1.0000
     1.0000   1.0000   1.0000   1.0000   1.0000   1.0000   1.0000   1.0000
     1.0000   1.0000   1.0000   1.0000   1.0000   1.0000   1.0000   1.0000
     1.0000   1.0000   1.0000   1.0000   1.0000   1.0000   1.0000   1.0000
     1.0000   1.0000   1.0000   1.0000   1.0000   1.0000   1.0000   1.0000
     1.0000   1.0000   1.0000   1.0000   1.0000   1.0000   1.0000   1.0000
     1.0000   1.0000   1.0000   1.0000   1.0000   1.0000   1.0000   1.0000
     1.0000   1.0000   1.0000   1.0000   1.0000   1.0000   1.0000   1.0000
     1.0000   1.0000   1.0000   1.0000   1.0000   1.0000   1.0000   1.0000
     1.0000   1.0000   1.0000   1.0000   1.0000   1.0000   1.0000   1.0000
     1.0000   1.0000   1.0000   1.0000   1.0000   1.0000   1.0000   1.0000
     1.0000   1.0000   1.0000   1.0000   1.0000   1.0000   1.0000   1.0000
     1.0000   1.0000   1.0000   1.0000   1.0000   1.0000   1.0000   1.0000
     1.0000   1.0000   1.0000   1.0000   1.0000   1.0000   1.0000   1.0000
     1.0000   1.0000   1.0000   1.0000   1.0000   1.0000   1.0000   1.0000
     1.0000   1.0000   1.0000   1.0000   1.0000   1.0000   1.0000   1.0000
     1.0000   1.0000   1.0000   1.0000   1.0000   1.0000   1.0000   1.0000
     1.0000   1.0000   1.0000   1.0000   1.0000   1.0000   1.0000   1.0000
     1.0000   1.0000   1.0000   1.0000   1.0000   1.0000   1.0000   1.0000
     1.0000   1.0000   1.0000   1.0000   1.0000   1.0000   1.0000   1.0000
     1.0000   1.0000   1.0000   1.0000   1.0000   1.0000   1.0000   1.0000
     1.0000   1.0000   1.0000   1.0000   1.0000   1.0000   1.0000   1.0000
     1.0000   1.0000   1.0000   1.0000   1.0000   1.0000   1.0000   1.0000
     1.0000   1.0000   1.0000   1.0000   1.0000   1.0000   1.0000   1.0000
     1.0000   1.0000   1.0000   1.0000   1.0000   1.0000   1.0000   1.0000
     1.0000   1.0000   1.0000   1.0000   1.0000   1.0000   1.0000   1.0000
     1.0000   1.0000   1.0000   1.0000   1.0000   1.0000   1.0000   1.0000
     1.0000   1.0000   1.0000   1.0000   1.0000   1.0000   1.0000   1.0000
     1.0000   1.0000   1.0000   1.0000   1.0000   1.0000   1.0000   1.0000
     1.0000   1.0000   1.0000   1.0000   1.0000   1.0000   1.0000   1.0000
     1.0000   1.0000   1.0000   1.0000   1.0000   1.0000   1.0000   1.0000
     1.0000   1.0000   1.0000   1.0000   1.0000   1.0000   1.0000   1.0000
     1.0000   1.0000   1.0000   1.0000   1.0000   1.0000   1.0000   1.0000
     1.0000   1.0000   1.0000   1.0000   1.0000   1.0000   1.0000   1.0000
     1.0000   1.0000   1.0000   1.0000   1.0000   1.0000   1.0000   1.0000
     1.0000   1.0000   1.0000   1.0000   1.0000   1.0000   1.0000   1.0000
     1.0000   1.0000   1.0000   1.0000   1.0000   1.0000   1.0000   1.0000
     1.0000   1.0000   1.0000   1.0000   1.0000   1.0000   1.0000   1.0000
     1.0000   1.0000   1.0000   1.0000   1.0000   1.0000   1.0000   1.0000
     1.0000   1.0000   1.0000   1.0000   1.0000   1.0000   1.0000   1.0000
     1.0000   1.0000   1.0000   1.0000   1.0000   1.0000   1.0000   1.0000
     1.0000   1.0000   1.0000   1.0000   1.0000   1.0000   1.0000   1.0000
     1.0000   1.0000   1.0000   1.0000   1.0000   1.0000   1.0000   1.0000
     1.0000   1.0000   1.0000   1.0000   1.0000   1.0000   1.0000   1.0000
     1.0000   1.0000   1.0000   1.0000   1.0000   1.0000   1.0000   1.0000
     1.0000   1.0000   1.0000   1.0000   1.0000   1.0000   1.0000   1.0000
     1.0000   1.0000   1.0000   1.0000   1.0000   1.0000   1.0000   1.0000
     1.0000   1.0000   1.0000   1.0000   1.0000   1.0000   1.0000   1.0000
     1.0000   1.0000   1.0000   1.0000   1.0000   1.0000   1.0000   1.0000
     1.0000   1.0000   1.0000   1.0000   1.0000   1.0000   1.0000   1.0000
     1.0000   1.0000   1.0000   1.0000   1.0000   1.0000   1.0000   1.0000
     1.0000   1.0000   1.0000   1.0000   1.0000   1.0000   1.0000   1.0000
     1.0000   1.0000   1.0000   1.0000   1.0000   1.0000   1.0000   1.0000
     1.0000   1.0000   1.0000   1.0000   1.0000   1.0000   1.0000   1.0000
     1.0000   1.0000   1.0000   1.0000   1.0000   1.0000   1.0000   1.0000
     1.0000   1.0000   1.0000   1.0000   1.0000   1.0000   1.0000   1.0000
     1.0000   1.0000   1.0000   1.0000   1.0000   1.0000   1.0000   1.0000
     1.0000   1.0000   1.0000   1.0000   1.0000   1.0000   1.0000   1.0000
     1.0000   1.0000   1.0000   1.0000   1.0000   1.0000   1.0000   1.0000
[...]
     atom   77 type  4   force =     0.00000000    0.00000000    0.00000000
     atom   78 type  4   force =     0.00000000    0.00000000    0.00000000
     atom   79 type  4   force =     0.00000000    0.00000000    0.00000000
     The Hubbard contrib.    to forces
     atom    1 type  1   force =     0.00000000    0.00000000    0.00000000
     atom    2 type  1   force =     0.00000000    0.00000000    0.00000000
     atom    3 type  1   force =     0.00000000    0.00000000    0.00000000
     atom    4 type  1   force =     0.00000000    0.00000000    0.00000000
     atom    5 type  1   force =     0.00000000    0.00000000    0.00000000
     atom    6 type  1   force =     0.00000000    0.00000000    0.00000000
     atom    7 type  1   force =     0.00000000    0.00000000    0.00000000
     atom    8 type  1   force =     0.00000000    0.00000000    0.00000000
     atom    9 type  1   force =     0.00000000    0.00000000    0.00000000
     atom   10 type  1   force =     0.00000000    0.00000000    0.00000000
     atom   11 type  1   force =     0.00000000    0.00000000    0.00000000
     atom   12 type  1   force =     0.00000000    0.00000000    0.00000000
     atom   13 type  1   force =     0.00000000    0.00000000    0.00000000
     atom   14 type  1   force =     0.00000000    0.00000000    0.00000000
     atom   15 type  1   force =     0.00000000    0.00000000    0.00000000
     atom   16 type  1   force =     0.00000000    0.00000000    0.00000000
     atom   17 type  1   force =     0.00000000    0.00000000    0.00000000
     atom   18 type  1   force =     0.00000000    0.00000000    0.00000000
     atom   19 type  1   force =     0.00000000    0.00000000    0.00000000
     atom   20 type  1   force =     0.00000000    0.00000000    0.00000000
     atom   21 type  1   force =     0.00000000    0.00000000    0.00000000
     atom   22 type  1   force =     0.00000000    0.00000000    0.00000000
     atom   23 type  1   force =     0.00000000    0.00000000    0.00000000
     atom   24 type  1   force =     0.00000000    0.00000000    0.00000000
     atom   25 type  1   force =     0.00000000    0.00000000    0.00000000
     atom   26 type  1   force =     0.00000000    0.00000000    0.00000000
     atom   27 type  1   force =     0.00000000    0.00000000    0.00000000
     atom   28 type  1   force =     0.00000000    0.00000000    0.00000000
     atom   29 type  1   force =     0.00000000    0.00000000    0.00000000
     atom   30 type  1   force =     0.00000000    0.00000000    0.00000000
     atom   31 type  1   force =     0.00000000    0.00000000    0.00000000
     atom   32 type  1   force =     0.00000000    0.00000000    0.00000000
     atom   33 type  1   force =     0.00000000    0.00000000    0.00000000
     atom   34 type  1   force =     0.00000000    0.00000000    0.00000000
     atom   35 type  1   force =     0.00000000    0.00000000    0.00000000
     atom   36 type  1   force =     0.00000000    0.00000000    0.00000000
     atom   37 type  1   force =     0.00000000    0.00000000    0.00000000
     atom   38 type  1   force =     0.00000000    0.00000000    0.00000000
     atom   39 type  1   force =     0.00000000    0.00000000    0.00000000
     atom   40 type  1   force =     0.00000000    0.00000000    0.00000000
     atom   41 type  1   force =     0.00000000    0.00000000    0.00000000
     atom   42 type  1   force =     0.00000000    0.00000000    0.00000000
     atom   43 type  1   force =     0.00000000    0.00000000    0.00000000
     atom   44 type  1   force =     0.00000000    0.00000000    0.00000000
     atom   45 type  1   force =     0.00000000    0.00000000    0.00000000
     atom   46 type  1   force =     0.00000000    0.00000000    0.00000000
     atom   47 type  1   force =     0.00000000    0.00000000    0.00000000
     atom   48 type  1   force =     0.00000000    0.00000000    0.00000000
     atom   49 type  1   force =     0.00000000    0.00000000    0.00000000
     atom   50 type  1   force =     0.00000000    0.00000000    0.00000000
     atom   51 type  1   force =     0.00000000    0.00000000    0.00000000
     atom   52 type  1   force =     0.00000000    0.00000000    0.00000000
     atom   53 type  1   force =     0.00000000    0.00000000    0.00000000
     atom   54 type  1   force =     0.00000000    0.00000000    0.00000000
     atom   55 type  1   force =     0.00000000    0.00000000    0.00000000
     atom   56 type  1   force =     0.00000000    0.00000000    0.00000000
     atom   57 type  1   force =     0.00000000    0.00000000    0.00000000
     atom   58 type  1   force =     0.00000000    0.00000000    0.00000000
     atom   59 type  1   force =     0.00000000    0.00000000    0.00000000
     atom   60 type  1   force =     0.00000000    0.00000000    0.00000000
     atom   61 type  1   force =     0.00000000    0.00000000    0.00000000
     atom   62 type  1   force =     0.00000000    0.00000000    0.00000000
     atom   63 type  1   force =     0.00000000    0.00000000    0.00000000
     atom   64 type  1   force =     0.00000000    0.00000000    0.00000000
     atom   65 type  2   force =     0.00000000    0.00000000    0.00000000
     atom   66 type  2   force =     0.00000000    0.00000000    0.00000000
     atom   67 type  2   force =     0.00000000    0.00000000    0.00000000
     atom   68 type  2   force =     0.00000000    0.00000000    0.00000000
     atom   69 type  2   force =     0.00000000    0.00000000    0.00000000
     atom   70 type  2   force =     0.00000000    0.00000000    0.00000000
     atom   71 type  2   force =     0.00000000    0.00000000    0.00000000
     atom   72 type  3   force =     0.00000000    0.00000000    0.00000000
     atom   73 type  3   force =     0.00000000    0.00000000    0.00000000
     atom   74 type  4   force =     0.00000000    0.00000000    0.00000000
     atom   75 type  4   force =     0.00000000    0.00000000    0.00000000
     atom   76 type  4   force =     0.00000000    0.00000000    0.00000000
     atom   77 type  4   force =     0.00000000    0.00000000    0.00000000
     atom   78 type  4   force =     0.00000000    0.00000000    0.00000000
     atom   79 type  4   force =     0.00000000    0.00000000    0.00000000
     The SCF correction term to forces
     atom    1 type  1   force =    -0.00038541   -0.00030464    0.00047611
     atom    2 type  1   force =     0.00039123   -0.00053651    0.00034965
     atom    3 type  1   force =    -0.00068290   -0.00047764   -0.00022594
     atom    4 type  1   force =     0.00068015   -0.00085534   -0.00024409
     atom    5 type  1   force =    -0.00033516   -0.00001734    0.00053254
     atom    6 type  1   force =     0.00031628   -0.00017573   -0.00014926
     atom    7 type  1   force =    -0.00055671   -0.00004333   -0.00028126
     atom    8 type  1   force =     0.00053518   -0.00025800   -0.00011454
     atom    9 type  1   force =     0.00019957    0.00018286    0.00063202
     atom   10 type  1   force =    -0.00020467    0.00062727    0.00002732
     atom   11 type  1   force =     0.00032551    0.00027329   -0.00031771
     atom   12 type  1   force =    -0.00031740    0.00102916   -0.00016951
     atom   13 type  1   force =     0.00013386   -0.00008332    0.00057124
     atom   14 type  1   force =    -0.00014699    0.00029309    0.00054030
     atom   15 type  1   force =     0.00019881   -0.00015913   -0.00025452
     atom   16 type  1   force =    -0.00019935    0.00047897   -0.00028881
     atom   17 type  1   force =    -0.00012154   -0.00074187    0.00019017
     atom   18 type  1   force =     0.00012239   -0.00007108    0.00064150
     atom   19 type  1   force =    -0.00018786   -0.00120169   -0.00015445
     atom   20 type  1   force =     0.00019109   -0.00012150   -0.00031059
     atom   21 type  1   force =    -0.00064028   -0.00012864    0.00000812
     atom   22 type  1   force =     0.00066042   -0.00006424    0.00036174
     atom   23 type  1   force =    -0.00104218   -0.00018424   -0.00013748
     atom   24 type  1   force =     0.00106534   -0.00011935   -0.00026523
     atom   25 type  1   force =    -0.00058540    0.00034036    0.00042967
     atom   26 type  1   force =     0.00058739    0.00048206    0.00022124
     atom   27 type  1   force =    -0.00094522    0.00055685   -0.00027430
     atom   28 type  1   force =     0.00092964    0.00076357   -0.00020906
     atom   29 type  1   force =    -0.00005767   -0.00027295    0.00062248
     atom   30 type  1   force =     0.00006921    0.00048122    0.00050484
     atom   31 type  1   force =    -0.00006625   -0.00045391   -0.00029519
     atom   32 type  1   force =     0.00006192    0.00078044   -0.00025504
     atom   33 type  1   force =    -0.00033027   -0.00076242   -0.00024628
     atom   34 type  1   force =     0.00032278   -0.00018962   -0.00015091
     atom   35 type  1   force =    -0.00023107   -0.00048715   -0.00040480
     atom   36 type  1   force =     0.00023245   -0.00013381   -0.00054784
     atom   37 type  1   force =    -0.00101985   -0.00032652   -0.00026532
     atom   38 type  1   force =     0.00099831   -0.00053503   -0.00033467
     atom   39 type  1   force =    -0.00065863   -0.00027459   -0.00033164
     atom   40 type  1   force =     0.00068594   -0.00039744   -0.00014739
     atom   41 type  1   force =    -0.00048155    0.00027291   -0.00015498
     atom   42 type  1   force =     0.00046599    0.00064479   -0.00041410
     atom   43 type  1   force =    -0.00031585    0.00015860   -0.00055653
     atom   44 type  1   force =     0.00032937    0.00048728    0.00007526
     atom   45 type  1   force =     0.00017743   -0.00014063   -0.00013458
     atom   46 type  1   force =    -0.00019027    0.00102378   -0.00023288
     atom   47 type  1   force =     0.00008615   -0.00004177   -0.00062362
     atom   48 type  1   force =    -0.00009275    0.00070119   -0.00034335
     atom   49 type  1   force =     0.00021851   -0.00105729   -0.00025214
     atom   50 type  1   force =    -0.00020956    0.00008512   -0.00014446
     atom   51 type  1   force =     0.00009735   -0.00069626   -0.00039582
     atom   52 type  1   force =    -0.00009839    0.00005865   -0.00055507
     atom   53 type  1   force =    -0.00029125   -0.00066615   -0.00045185
     atom   54 type  1   force =     0.00029479   -0.00016187   -0.00015080
     atom   55 type  1   force =    -0.00025425   -0.00052928    0.00008123
     atom   56 type  1   force =     0.00023399   -0.00013793   -0.00054769
     atom   57 type  1   force =    -0.00095353    0.00058841   -0.00035841
     atom   58 type  1   force =     0.00099260    0.00035540   -0.00021919
     atom   59 type  1   force =    -0.00066685    0.00038743   -0.00009905
     atom   60 type  1   force =     0.00064635    0.00025829   -0.00040687
     atom   61 type  1   force =    -0.00044638    0.00025738   -0.00015730
     atom   62 type  1   force =     0.00045915    0.00060588   -0.00021534
     atom   63 type  1   force =    -0.00029677    0.00019721   -0.00055424
     atom   64 type  1   force =     0.00030101    0.00044411   -0.00041499
     atom   65 type  2   force =    -0.00000078    0.00000789    0.00010347
     atom   66 type  2   force =    -0.00000247   -0.00000636   -0.00008217
     atom   67 type  2   force =     0.00007564   -0.00005416   -0.00014187
     atom   68 type  2   force =    -0.00007630    0.00002883   -0.00014833
     atom   69 type  2   force =     0.00004537   -0.00002726   -0.00005300
     atom   70 type  2   force =    -0.00004261    0.00002037   -0.00006226
     atom   71 type  2   force =     0.00000550    0.00001400    0.00009217
     atom   72 type  3   force =    -0.00000002    0.00000803    0.00010929
     atom   73 type  3   force =     0.00001256    0.00002831    0.00021018
     atom   74 type  4   force =    -0.00001200    0.00001363    0.00001981
     atom   75 type  4   force =     0.00001863   -0.00000324    0.00001969
     atom   76 type  4   force =     0.00001250   -0.00000784   -0.00000911
     atom   77 type  4   force =    -0.00001183    0.00000539   -0.00001066
     atom   78 type  4   force =     0.00001543   -0.00000737    0.00000966
     atom   79 type  4   force =    -0.00001498    0.00000909    0.00000722

     Total force =     0.052234     Total SCF correction =     0.006273
     SCF correction compared to forces is large: reduce conv_thr to get better values


     Computing stress (Cartesian axis) and pressure


     negative rho (up, down):  3.990E-03 0.000E+00
          total   stress  (Ry/bohr**3)                   (kbar)     P=       -1.89
  -0.00001679   0.00000189  -0.00000047           -2.47        0.28       -0.07
   0.00000189  -0.00001428   0.00000045            0.28       -2.10        0.07
  -0.00000047   0.00000045  -0.00000738           -0.07        0.07       -1.09

     kinetic stress (kbar)  17132.24     27.87     -1.25
                               27.87  17167.79     -3.48
                               -1.25     -3.48  17186.64

     local   stress (kbar)**********    756.70    -69.48
                              756.70**********   -256.59
                              -69.48   -256.591455748.72

     nonloc. stress (kbar)  -1607.83     -2.00      0.23
                               -2.00  -1610.30      0.72
                                0.23      0.72  -1666.28

     hartree stress (kbar) 756882.36   -284.96     27.12
                             -284.96 756528.17    104.19
                               27.12    104.19-680949.94

     exc-cor stress (kbar)  -8421.48     -1.38      0.11
                               -1.38  -8423.23      0.29
                                0.11      0.29  -8430.51

     corecor stress (kbar)    -83.38      0.42     -0.04
                                0.42    -82.86     -0.10
                               -0.04     -0.10    -84.05

     ewald   stress (kbar) 676611.35   -496.37     43.24
                             -496.37 675990.38    155.04
                               43.24    155.04-781805.66

     hubbard stress (kbar)      0.00      0.00      0.00
                                0.00      0.00      0.00
                                0.00      0.00      0.00

     DFT-D   stress (kbar)      0.00      0.00      0.00
                                0.00      0.00      0.00
                                0.00      0.00      0.00

     XDM     stress (kbar)      0.00      0.00      0.00
                                0.00      0.00      0.00
                                0.00      0.00      0.00

     dft-nl  stress (kbar)      0.00      0.00      0.00
                                0.00      0.00      0.00
                                0.00      0.00      0.00

     TS-vdW  stress (kbar)      0.00      0.00      0.00
                                0.00      0.00      0.00
                                0.00      0.00      0.00

     MDB     stress (kbar)      0.00      0.00      0.00
                                0.00      0.00      0.00
                                0.00      0.00      0.00

     3D-RISM stress (kbar)      0.00      0.00      0.00
                                0.00      0.00      0.00
                                0.00      0.00      0.00


     Writing all to output data dir ./tmp/Zn002_4x4x2_primitive_14Avacumn_bridgesite_upright_cross_ABN.save/ :
     XML data file, charge density, pseudopotentials, collected wavefunctions

     init_run     :    156.97s CPU    158.59s WALL (       1 calls)
     electrons    :  13205.19s CPU  13340.34s WALL (       1 calls)
     forces       :    127.18s CPU    127.73s WALL (       1 calls)
     stress       :    363.01s CPU    364.24s WALL (       1 calls)

     Called by init_run:
     wfcinit      :    155.93s CPU    157.49s WALL (       1 calls)
     wfcinit:atom :      0.09s CPU      0.14s WALL (       5 calls)
     wfcinit:wfcr :    154.78s CPU    156.23s WALL (       5 calls)
     potinit      :      0.11s CPU      0.12s WALL (       1 calls)
     hinit0       :      0.06s CPU      0.07s WALL (       1 calls)

     Called by electrons:
     c_bands      :  12420.73s CPU  12543.35s WALL (      22 calls)
     sum_band     :    766.70s CPU    778.79s WALL (      22 calls)
     v_of_rho     :      0.89s CPU      0.94s WALL (      22 calls)
     v_h          :      0.05s CPU      0.06s WALL (      22 calls)
     v_xc         :      0.92s CPU      0.96s WALL (      24 calls)
     newd         :     15.92s CPU     16.29s WALL (      22 calls)
     PAW_pot      :      1.45s CPU      1.46s WALL (      22 calls)
     mix_rho      :      0.23s CPU      0.23s WALL (      22 calls)

     Called by c_bands:
     init_us_2    :      8.40s CPU      8.44s WALL (     235 calls)
     cegterg      :  12403.24s CPU  12525.71s WALL (     110 calls)

     Called by sum_band:
     sum_band:wei :      0.09s CPU      0.09s WALL (      22 calls)
     sum_band:loo :    751.81s CPU    763.53s WALL (      22 calls)
     sum_band:buf :      1.76s CPU      1.77s WALL (     110 calls)
     sum_band:ini :      3.99s CPU      4.00s WALL (     110 calls)
     sum_band:cal :    677.02s CPU    679.71s WALL (     110 calls)
     sum_band:bec :      4.24s CPU      4.25s WALL (     110 calls)
     addusdens    :     14.43s CPU     14.77s WALL (      22 calls)
                                        0.00s GPU  (      22 calls)
     addusd:skk   :      0.17s CPU      0.17s WALL (      88 calls)
                                        0.00s GPU  (      88 calls)

     Called by *egterg:
     cdiaghg      :    882.66s CPU    919.98s WALL (     902 calls)
     cegterg:over :   1870.82s CPU   1877.01s WALL (     797 calls)
     cegterg:upda :   1046.87s CPU   1051.48s WALL (     797 calls)
     cegterg:last :   3179.59s CPU   3193.13s WALL (     237 calls)
     cdiaghg:chol :     56.19s CPU     56.33s WALL (     902 calls)
     cdiaghg:inve :      9.40s CPU      9.43s WALL (     902 calls)
     cdiaghg:para :    271.12s CPU    275.27s WALL (    1804 calls)
     h_psi        :   3471.63s CPU   3525.42s WALL (     912 calls)
     s_psi        :   1523.45s CPU   1527.08s WALL (     912 calls)
     g_psi        :      1.18s CPU      1.19s WALL (     797 calls)

     Called by h_psi:
     h_psi:calbec :   1631.69s CPU   1638.18s WALL (     912 calls)
     vloc_psi     :    309.39s CPU    351.25s WALL (     912 calls)
     add_vuspsi   :   1527.37s CPU   1531.07s WALL (     912 calls)

     General routines
     calbec       :   2465.04s CPU   2474.82s WALL (    1047 calls)
     fft          :      0.61s CPU      0.70s WALL (     268 calls)
     ffts         :      0.04s CPU      0.05s WALL (      22 calls)
     fftw         :    346.02s CPU    393.62s WALL (  508046 calls)

     Parallel routines

     PAW routines
     PAW_pot      :      1.45s CPU      1.46s WALL (      22 calls)

     PWSCF        :      3h50m CPU      3h53m WALL


   This run was terminated on:   6:10:55  22Mar2025            

=------------------------------------------------------------------------------=
   JOB DONE.
=------------------------------------------------------------------------------=
Note: The following floating-point exceptions are signalling: IEEE_DENORMAL
Note: The following floating-point exceptions are signalling: IEEE_DENORMAL
Note: The following floating-point exceptions are signalling: IEEE_DENORMAL
Note: The following floating-point exceptions are signalling: IEEE_DENORMAL
Note: The following floating-point exceptions are signalling: IEEE_DENORMAL
Note: The following floating-point exceptions are signalling: IEEE_DENORMAL
Note: The following floating-point exceptions are signalling: IEEE_DENORMAL
Note: The following floating-point exceptions are signalling: IEEE_DENORMAL
Note: The following floating-point exceptions are signalling: IEEE_DENORMAL
Note: The following floating-point exceptions are signalling: IEEE_DENORMAL
