--------------------------------------------------------------------------
By default, for Open MPI 4.0 and later, infiniband ports on a device
are not used by default.  The intent is to use UCX for these devices.
You can override this policy by setting the btl_openib_allow_ib MCA parameter
to true.

  Local host:              psid01
  Local adapter:           mlx5_0
  Local port:              1

--------------------------------------------------------------------------
--------------------------------------------------------------------------
WARNING: There was an error initializing an OpenFabrics device.

  Local host:   psid01
  Local device: mlx5_0
--------------------------------------------------------------------------

     Program PWSCF v.7.3.1 starts on 22Mar2025 at  2:31: 3 

     This program is part of the open-source Quantum ESPRESSO suite
     for quantum simulation of materials; please cite
         "P. Giannozzi et al., J. Phys.:Condens. Matter 21 395502 (2009);
         "P. Giannozzi et al., J. Phys.:Condens. Matter 29 465901 (2017);
         "P. Giannozzi et al., J. Chem. Phys. 152 154105 (2020);
          URL http://www.quantum-espresso.org", 
     in publications or presentations arising from this work. More details at
     http://www.quantum-espresso.org/quote

     Parallel version (MPI), running on    32 processors

     MPI processes distributed on     1 nodes
     54689 MiB available memory on the printing compute node when the environment starts

     Waiting for input...
     Reading input from standard input
Warning: card &CELL ignored
Warning: card   CELL_DOFREE = 'ALL' ignored
Warning: card / ignored

     Current dimensions of program PWSCF are:
     Max number of different atomic species (ntypx) = 10
     Max number of k-points (npk) =  40000
     Max angular momentum in pseudopotentials (lmaxx) =  4
     file C.pbe-n-kjpaw_psl.1.0.0.UPF: wavefunction(s)  2S 2P renormalized

     R & G space division:  proc/nbgrp/npool/nimage =      32
     Subspace diagonalization in iterative solution of the eigenvalue problem:
     one sub-group per band group will be used
     custom distributed-memory algorithm (size of sub-group:  5*  5 procs)


     Parallelization info
     --------------------
     sticks:   dense  smooth     PW     G-vecs:    dense   smooth      PW
     Min         168     168     44                22650    22650    3088
     Max         169     169     45                22663    22663    3101
     Sum        5389    5389   1417               724931   724931   99009

     Using Slab Decomposition



     bravais-lattice index     =            0
     lattice parameter (alat)  =      19.7617  a.u.
     unit-cell volume          =   15176.5939 (a.u.)^3
     number of atoms/cell      =           79
     number of atomic types    =            4
     number of electrons       =      1324.00
     number of Kohn-Sham states=          794
     kinetic-energy cutoff     =      50.0000  Ry
     charge density cutoff     =     200.0000  Ry
     scf convergence threshold =      7.3E-07
     mixing beta               =       0.7000
     number of iterations used =            8  plain     mixing
     Exchange-correlation= PBE
                           (   1   4   3   4   0   0   0)

     celldm(1)=  19.761696  celldm(2)=   0.000000  celldm(3)=   0.000000
     celldm(4)=   0.000000  celldm(5)=   0.000000  celldm(6)=   0.000000

     crystal axes: (cart. coord. in units of alat)
               a(1) = (   1.000000   0.000000   0.000000 )  
               a(2) = (  -0.500000   0.866025   0.000000 )  
               a(3) = (   0.000000   0.000000   2.270759 )  

     reciprocal axes: (cart. coord. in units 2 pi/alat)
               b(1) = (  1.000000  0.577350 -0.000000 )  
               b(2) = (  0.000000  1.154701  0.000000 )  
               b(3) = (  0.000000 -0.000000  0.440381 )  


     PseudoPot. # 1 for Zn read from file:
     /home/ys/qepseudo/SSSP_1.3.0_PBE_efficiency/Zn_pbe_v1.uspp.F.UPF
     MD5 check sum: df62231357ef9e81f77b2b3087fa5675
     Pseudo is Ultrasoft, Zval = 20.0
     Generated by new atomic code, or converted to UPF format
     Using radial grid of  943 points,  6 beta functions with: 
                l(1) =   0
                l(2) =   0
                l(3) =   1
                l(4) =   1
                l(5) =   2
                l(6) =   2
     Q(r) pseudized with  8 coefficients,  rinner =    1.100   1.100   1.100
                                                       1.100   1.100

     PseudoPot. # 2 for C  read from file:
     /home/ys/qepseudo/SSSP_1.3.0_PBE_efficiency/C.pbe-n-kjpaw_psl.1.0.0.UPF
     MD5 check sum: 5d2aebdfa2cae82b50a7e79e9516da0f
     Pseudo is Projector augmented-wave + core cor, Zval =  4.0
     Generated using "atomic" code by A. Dal Corso  v.5.1
     Shape of augmentation charge: PSQ
     Using radial grid of 1073 points,  4 beta functions with: 
                l(1) =   0
                l(2) =   0
                l(3) =   1
                l(4) =   1
     Q(r) pseudized with 0 coefficients 


     PseudoPot. # 3 for N  read from file:
     /home/ys/qepseudo/SSSP_1.3.0_PBE_efficiency/N.pbe-n-radius_5.UPF
     MD5 check sum: 16739722b17309cd8fe442a2ace49922
     Pseudo is Ultrasoft + core correction, Zval =  5.0
     Generated using "atomic" code by A. Dal Corso  v.5.1
     Using radial grid of 1085 points,  4 beta functions with: 
                l(1) =   0
                l(2) =   0
                l(3) =   1
                l(4) =   1
     Q(r) pseudized with 0 coefficients 


     PseudoPot. # 4 for H  read from file:
     /home/ys/qepseudo/SSSP_1.3.0_PBE_efficiency/H.pbe-rrkjus_psl.1.0.0.UPF
     MD5 check sum: f52b6d4d1c606e5624b1dc7b2218f220
     Pseudo is Ultrasoft, Zval =  1.0
     Generated using "atomic" code by A. Dal Corso  v.5.1
     Using radial grid of  929 points,  2 beta functions with: 
                l(1) =   0
                l(2) =   0
     Q(r) pseudized with 0 coefficients 


     atomic species   valence    mass     pseudopotential
     Zn               20.00    65.38000     Zn( 1.00)
     C                 4.00    12.01070     C ( 1.00)
     N                 5.00    14.00670     N ( 1.00)
     H                 1.00     1.00800     H ( 1.00)

     No symmetry found


                                    s                        frac. trans.

      isym =  1     identity                                     

 cryst.   s( 1) = (     1          0          0      )
                  (     0          1          0      )
                  (     0          0          1      )

 cart.    s( 1) = (  1.0000000  0.0000000  0.0000000 )
                  (  0.0000000  1.0000000  0.0000000 )
                  (  0.0000000  0.0000000  1.0000000 )


   Cartesian axes

     site n.     atom                  positions (alat units)
         1        Zn     tau(   1) = (  -0.0000000   0.1443376   0.1164999  )
         2        Zn     tau(   2) = (   0.5000000   0.1443376   0.1164999  )
         3        Zn     tau(   3) = (   0.0001063   0.1443772   0.5902127  )
         4        Zn     tau(   4) = (   0.4998958   0.1443643   0.5917156  )
         5        Zn     tau(   5) = (  -0.1250000   0.3608439   0.1164999  )
         6        Zn     tau(   6) = (   0.3750000   0.3608439   0.1164999  )
         7        Zn     tau(   7) = (  -0.1249761   0.3609302   0.5908726  )
         8        Zn     tau(   8) = (   0.3749642   0.3608477   0.5913644  )
         9        Zn     tau(   9) = (  -0.2500000   0.5773503   0.1164999  )
        10        Zn     tau(  10) = (   0.2500000   0.5773503   0.1164999  )
        11        Zn     tau(  11) = (  -0.2499911   0.5773738   0.5915504  )
        12        Zn     tau(  12) = (   0.2499824   0.5772583   0.5907382  )
        13        Zn     tau(  13) = (  -0.3750000   0.7938566   0.1164999  )
        14        Zn     tau(  14) = (   0.1250000   0.7938566   0.1164999  )
        15        Zn     tau(  15) = (  -0.3749161   0.7938269   0.5909604  )
        16        Zn     tau(  16) = (   0.1249053   0.7937898   0.5911170  )
        17        Zn     tau(  17) = (   0.2500000   0.1443376   0.1164999  )
        18        Zn     tau(  18) = (   0.7500000   0.1443376   0.1164999  )
        19        Zn     tau(  19) = (   0.2499566   0.1443139   0.5910485  )
        20        Zn     tau(  20) = (   0.7500401   0.1444360   0.5909256  )
        21        Zn     tau(  21) = (   0.1250000   0.3608439   0.1164999  )
        22        Zn     tau(  22) = (   0.6250000   0.3608439   0.1164999  )
        23        Zn     tau(  23) = (   0.1249684   0.3608327   0.5904686  )
        24        Zn     tau(  24) = (   0.6250220   0.3609386   0.5917101  )
        25        Zn     tau(  25) = (  -0.0000000   0.5773503   0.1164999  )
        26        Zn     tau(  26) = (   0.5000000   0.5773503   0.1164999  )
        27        Zn     tau(  27) = (  -0.0000983   0.5773031   0.5910657  )
        28        Zn     tau(  28) = (   0.5000885   0.5773473   0.5912976  )
        29        Zn     tau(  29) = (  -0.1250000   0.7938566   0.1164999  )
        30        Zn     tau(  30) = (   0.3750000   0.7938566   0.1164999  )
        31        Zn     tau(  31) = (  -0.1251014   0.7937984   0.5915674  )
        32        Zn     tau(  32) = (   0.3751324   0.7938157   0.5904624  )
        33        Zn     tau(  33) = (   0.1250000   0.0721688   0.3494996  )
        34        Zn     tau(  34) = (   0.6250000   0.0721688   0.3494996  )
        35        Zn     tau(  35) = (   0.1246193   0.0719582   0.8323171  )
        36        Zn     tau(  36) = (   0.6247863   0.0721058   0.8327879  )
        37        Zn     tau(  37) = (   0.0000000   0.2886751   0.3494996  )
        38        Zn     tau(  38) = (   0.5000000   0.2886751   0.3494996  )
        39        Zn     tau(  39) = (  -0.0004141   0.2885605   0.8324874  )
        40        Zn     tau(  40) = (   0.4998445   0.2884781   0.8325306  )
        41        Zn     tau(  41) = (  -0.1250000   0.5051815   0.3494996  )
        42        Zn     tau(  42) = (   0.3750000   0.5051815   0.3494996  )
        43        Zn     tau(  43) = (  -0.1253003   0.5051007   0.8330462  )
        44        Zn     tau(  44) = (   0.3745658   0.5052859   0.8281149  )
        45        Zn     tau(  45) = (  -0.2500000   0.7216878   0.3494996  )
        46        Zn     tau(  46) = (   0.2500000   0.7216878   0.3494996  )
        47        Zn     tau(  47) = (  -0.2502782   0.7215646   0.8329798  )
        48        Zn     tau(  48) = (   0.2496056   0.7217398   0.8326485  )
        49        Zn     tau(  49) = (   0.3750000   0.0721688   0.3494996  )
        50        Zn     tau(  50) = (   0.8750000   0.0721688   0.3494996  )
        51        Zn     tau(  51) = (   0.3747307   0.0719485   0.8330090  )
        52        Zn     tau(  52) = (   0.8747167   0.0720990   0.8321645  )
        53        Zn     tau(  53) = (   0.2500000   0.2886751   0.3494996  )
        54        Zn     tau(  54) = (   0.7500000   0.2886751   0.3494996  )
        55        Zn     tau(  55) = (   0.2494612   0.2883582   0.8293599  )
        56        Zn     tau(  56) = (   0.7498011   0.2885935   0.8327814  )
        57        Zn     tau(  57) = (   0.1250000   0.5051815   0.3494996  )
        58        Zn     tau(  58) = (   0.6250000   0.5051815   0.3494996  )
        59        Zn     tau(  59) = (   0.1245013   0.5051684   0.8329884  )
        60        Zn     tau(  60) = (   0.6248259   0.5050968   0.8330687  )
        61        Zn     tau(  61) = (   0.0000000   0.7216878   0.3494996  )
        62        Zn     tau(  62) = (   0.5000000   0.7216878   0.3494996  )
        63        Zn     tau(  63) = (  -0.0003079   0.7216319   0.8331317  )
        64        Zn     tau(  64) = (   0.4997535   0.7217316   0.8322593  )
        65        C      tau(  65) = (   0.0958764   0.5780630   1.6266218  )
        66        C      tau(  66) = (   0.1592900   0.5413514   1.5117823  )
        67        C      tau(  67) = (   0.1331186   0.4223444   1.4537430  )
        68        C      tau(  68) = (   0.2494630   0.6235525   1.4540805  )
        69        C      tau(  69) = (   0.3114430   0.5879637   1.3424436  )
        70        C      tau(  70) = (   0.1951033   0.3867376   1.3420579  )
        71        C      tau(  71) = (   0.2856606   0.4687460   1.2841507  )
        72        N      tau(  72) = (   0.0437068   0.6087514   1.7212212  )
        73        N      tau(  73) = (   0.3516227   0.4311666   1.1765539  )
        74        H      tau(  74) = (   0.3975496   0.4995526   1.1243887  )
        75        H      tau(  75) = (   0.3155708   0.3581561   1.1229390  )
        76        H      tau(  76) = (   0.0633638   0.3580351   1.4977940  )
        77        H      tau(  77) = (   0.2702523   0.7159615   1.4984413  )
        78        H      tau(  78) = (   0.3818570   0.6523126   1.2991872  )
        79        H      tau(  79) = (   0.1745302   0.2937755   1.2984412  )

   Crystallographic axes

     site n.     atom                  positions (cryst. coord.)
         1        Zn     tau(   1) = (  0.0833333  0.1666667  0.0513044  )
         2        Zn     tau(   2) = (  0.5833333  0.1666667  0.0513044  )
         3        Zn     tau(   3) = (  0.0834625  0.1667124  0.2599187  )
         4        Zn     tau(   4) = (  0.5832446  0.1666976  0.2605806  )
         5        Zn     tau(   5) = (  0.0833333  0.4166667  0.0513044  )
         6        Zn     tau(   6) = (  0.5833333  0.4166667  0.0513044  )
         7        Zn     tau(   7) = (  0.0834070  0.4167663  0.2602093  )
         8        Zn     tau(   8) = (  0.5832997  0.4166711  0.2604259  )
         9        Zn     tau(   9) = (  0.0833333  0.6666667  0.0513044  )
        10        Zn     tau(  10) = (  0.5833333  0.6666667  0.0513044  )
        11        Zn     tau(  11) = (  0.0833558  0.6666938  0.2605078  )
        12        Zn     tau(  12) = (  0.5832626  0.6665605  0.2601501  )
        13        Zn     tau(  13) = (  0.0833333  0.9166667  0.0513044  )
        14        Zn     tau(  14) = (  0.5833333  0.9166667  0.0513044  )
        15        Zn     tau(  15) = (  0.0834001  0.9166324  0.2602480  )
        16        Zn     tau(  16) = (  0.5832000  0.9165895  0.2603170  )
        17        Zn     tau(  17) = (  0.3333333  0.1666667  0.0513044  )
        18        Zn     tau(  18) = (  0.8333333  0.1666667  0.0513044  )
        19        Zn     tau(  19) = (  0.3332763  0.1666393  0.2602868  )
        20        Zn     tau(  20) = (  0.8334303  0.1667804  0.2602327  )
        21        Zn     tau(  21) = (  0.3333333  0.4166667  0.0513044  )
        22        Zn     tau(  22) = (  0.8333333  0.4166667  0.0513044  )
        23        Zn     tau(  23) = (  0.3332952  0.4166537  0.2600314  )
        24        Zn     tau(  24) = (  0.8334099  0.4167759  0.2605781  )
        25        Zn     tau(  25) = (  0.3333333  0.6666667  0.0513044  )
        26        Zn     tau(  26) = (  0.8333333  0.6666667  0.0513044  )
        27        Zn     tau(  27) = (  0.3332078  0.6666122  0.2602944  )
        28        Zn     tau(  28) = (  0.8334201  0.6666632  0.2603965  )
        29        Zn     tau(  29) = (  0.3333333  0.9166667  0.0513044  )
        30        Zn     tau(  30) = (  0.8333333  0.9166667  0.0513044  )
        31        Zn     tau(  31) = (  0.3331983  0.9165994  0.2605153  )
        32        Zn     tau(  32) = (  0.8334421  0.9166194  0.2600287  )
        33        Zn     tau(  33) = (  0.1666667  0.0833333  0.1539131  )
        34        Zn     tau(  34) = (  0.6666667  0.0833333  0.1539131  )
        35        Zn     tau(  35) = (  0.1661644  0.0830902  0.3665370  )
        36        Zn     tau(  36) = (  0.6664166  0.0832606  0.3667443  )
        37        Zn     tau(  37) = (  0.1666667  0.3333333  0.1539131  )
        38        Zn     tau(  38) = (  0.6666667  0.3333333  0.1539131  )
        39        Zn     tau(  39) = (  0.1661864  0.3332010  0.3666120  )
        40        Zn     tau(  40) = (  0.6663975  0.3331059  0.3666310  )
        41        Zn     tau(  41) = (  0.1666667  0.5833333  0.1539131  )
        42        Zn     tau(  42) = (  0.6666667  0.5833333  0.1539131  )
        43        Zn     tau(  43) = (  0.1663198  0.5832401  0.3668581  )
        44        Zn     tau(  44) = (  0.6662927  0.5834539  0.3646864  )
        45        Zn     tau(  45) = (  0.1666667  0.8333333  0.1539131  )
        46        Zn     tau(  46) = (  0.6666667  0.8333333  0.1539131  )
        47        Zn     tau(  47) = (  0.1663173  0.8331911  0.3668289  )
        48        Zn     tau(  48) = (  0.6663023  0.8333933  0.3666830  )
        49        Zn     tau(  49) = (  0.4166667  0.0833333  0.1539131  )
        50        Zn     tau(  50) = (  0.9166667  0.0833333  0.1539131  )
        51        Zn     tau(  51) = (  0.4162701  0.0830790  0.3668417  )
        52        Zn     tau(  52) = (  0.9163430  0.0832527  0.3664698  )
        53        Zn     tau(  53) = (  0.4166667  0.3333333  0.1539131  )
        54        Zn     tau(  54) = (  0.9166667  0.3333333  0.1539131  )
        55        Zn     tau(  55) = (  0.4159449  0.3329674  0.3652347  )
        56        Zn     tau(  56) = (  0.9164207  0.3332391  0.3667415  )
        57        Zn     tau(  57) = (  0.4166667  0.5833333  0.1539131  )
        58        Zn     tau(  58) = (  0.9166667  0.5833333  0.1539131  )
        59        Zn     tau(  59) = (  0.4161604  0.5833182  0.3668326  )
        60        Zn     tau(  60) = (  0.9164437  0.5832356  0.3668680  )
        61        Zn     tau(  61) = (  0.4166667  0.8333333  0.1539131  )
        62        Zn     tau(  62) = (  0.9166667  0.8333333  0.1539131  )
        63        Zn     tau(  63) = (  0.4163265  0.8332688  0.3668957  )
        64        Zn     tau(  64) = (  0.9164455  0.8333839  0.3665115  )
        65        C      tau(  65) = (  0.4296212  0.6674896  0.7163340  )
        66        C      tau(  66) = (  0.4718393  0.6250987  0.6657609  )
        67        C      tau(  67) = (  0.3769593  0.4876813  0.6402014  )
        68        C      tau(  68) = (  0.6094712  0.7200164  0.6403501  )
        69        C      tau(  69) = (  0.6509040  0.6789220  0.5911872  )
        70        C      tau(  70) = (  0.4183864  0.4465661  0.5910174  )
        71        C      tau(  71) = (  0.5562913  0.5412613  0.5655161  )
        72        N      tau(  72) = (  0.3951696  0.7029256  0.7579939  )
        73        N      tau(  73) = (  0.6005569  0.4978683  0.5181325  )
        74        H      tau(  74) = (  0.6859664  0.5768337  0.4951599  )
        75        H      tau(  75) = (  0.5223522  0.4135630  0.4945215  )
        76        H      tau(  76) = (  0.2700755  0.4134233  0.6596007  )
        77        H      tau(  77) = (  0.6836128  0.8267211  0.6598857  )
        78        H      tau(  78) = (  0.7584698  0.7532257  0.5721379  )
        79        H      tau(  79) = (  0.3441416  0.3392227  0.5718094  )

     number of k points=     5  Marzari-Vanderbilt smearing, width (Ry)=  0.0200
                       cart. coord. in units 2pi/alat
        k(    1) = (   0.0000000   0.0000000   0.0000000), wk =   0.2222222
        k(    2) = (   0.0000000   0.3849002   0.0000000), wk =   0.4444444
        k(    3) = (   0.3333333   0.1924501   0.0000000), wk =   0.4444444
        k(    4) = (   0.3333333   0.5773503   0.0000000), wk =   0.4444444
        k(    5) = (   0.3333333  -0.1924501   0.0000000), wk =   0.4444444

                       cryst. coord.
        k(    1) = (   0.0000000   0.0000000   0.0000000), wk =   0.2222222
        k(    2) = (   0.0000000   0.3333333   0.0000000), wk =   0.4444444
        k(    3) = (   0.3333333   0.0000000   0.0000000), wk =   0.4444444
        k(    4) = (   0.3333333   0.3333333   0.0000000), wk =   0.4444444
        k(    5) = (   0.3333333  -0.3333333   0.0000000), wk =   0.4444444

     Dense  grid:   724931 G-vectors     FFT dimensions: (  90,  90, 216)

     Dynamical RAM for                 wfc:      34.30 MB

     Dynamical RAM for     wfc (w. buffer):     205.79 MB

     Dynamical RAM for           str. fact:       1.38 MB

     Dynamical RAM for           local pot:       0.00 MB

     Dynamical RAM for          nlocal pot:      53.39 MB

     Dynamical RAM for                qrad:       4.54 MB

     Dynamical RAM for          rho,v,vnew:       2.33 MB

     Dynamical RAM for               rhoin:       0.78 MB

     Dynamical RAM for            rho*nmix:       5.53 MB

     Dynamical RAM for           G-vectors:       1.47 MB

     Dynamical RAM for          h,s,v(r/c):       4.60 MB

     Dynamical RAM for          <psi|beta>:      14.97 MB

     Dynamical RAM for                 psi:      68.60 MB

     Dynamical RAM for                hpsi:      68.60 MB

     Dynamical RAM for                spsi:      68.60 MB

     Dynamical RAM for      wfcinit/wfcrot:      93.00 MB

     Dynamical RAM for           addusdens:      86.43 MB

     Dynamical RAM for          addusforce:     130.41 MB

     Dynamical RAM for         addusstress:      69.49 MB

     Estimated static dynamical RAM per process >     273.59 MB

     Estimated max dynamical RAM per process >     504.49 MB

     Estimated total dynamical RAM >      15.77 GB

     Check: negative core charge=   -0.000007

     Initial potential from superposition of free atoms

     starting charge    1323.9906, renormalised to    1324.0000

     negative rho (up, down):  2.957E-03 0.000E+00
     Starting wfcs are  874 randomized atomic wfcs
[psid01:150927] 31 more processes have sent help message help-mpi-btl-openib.txt / ib port not selected
[psid01:150927] Set MCA parameter "orte_base_help_aggregate" to 0 to see all help / error messages
[psid01:150927] 31 more processes have sent help message help-mpi-btl-openib.txt / error in device init
     Checking if some PAW data can be deallocated... 
       PAW data deallocated on   28 nodes for type:  2

     total cpu time spent up to now is      159.1 secs

     Self-consistent Calculation

     iteration #  1     ecut=    50.00 Ry     beta= 0.70
     Davidson diagonalization with overlap

---- Real-time Memory Report at c_bands before calling an iterative solver
           376 MiB given to the printing process from OS
             0 MiB allocation reported by mallinfo(arena+hblkhd)
         44471 MiB available memory on the node where the printing process lives
------------------
     ethr =  1.00E-02,  avg # of iterations =  7.6

     Threshold (ethr) on eigenvalues was too large:
     Diagonalizing with lowered threshold

     Davidson diagonalization with overlap

---- Real-time Memory Report at c_bands before calling an iterative solver
           543 MiB given to the printing process from OS
             0 MiB allocation reported by mallinfo(arena+hblkhd)
         44446 MiB available memory on the node where the printing process lives
------------------
     ethr =  8.73E-04,  avg # of iterations =  2.0

     negative rho (up, down):  3.718E-03 0.000E+00

     total cpu time spent up to now is     1306.9 secs

     total energy              =  -29707.68188499 Ry
     estimated scf accuracy    <      11.63452934 Ry

     iteration #  2     ecut=    50.00 Ry     beta= 0.70
     Davidson diagonalization with overlap

---- Real-time Memory Report at c_bands before calling an iterative solver
           543 MiB given to the printing process from OS
             0 MiB allocation reported by mallinfo(arena+hblkhd)
         44435 MiB available memory on the node where the printing process lives
------------------
     ethr =  8.79E-04,  avg # of iterations = 13.8

     negative rho (up, down):  3.770E-03 0.000E+00

     total cpu time spent up to now is     2189.5 secs

     total energy              =  -29670.95538477 Ry
     estimated scf accuracy    <     824.54980962 Ry

     iteration #  3     ecut=    50.00 Ry     beta= 0.70
     Davidson diagonalization with overlap

---- Real-time Memory Report at c_bands before calling an iterative solver
           548 MiB given to the printing process from OS
             0 MiB allocation reported by mallinfo(arena+hblkhd)
         44264 MiB available memory on the node where the printing process lives
------------------
     ethr =  8.79E-04,  avg # of iterations = 10.2

     negative rho (up, down):  3.225E-03 0.000E+00

     total cpu time spent up to now is     3543.5 secs

     total energy              =  -29706.77132344 Ry
     estimated scf accuracy    <     116.19761577 Ry

     iteration #  4     ecut=    50.00 Ry     beta= 0.70
     Davidson diagonalization with overlap

---- Real-time Memory Report at c_bands before calling an iterative solver
           549 MiB given to the printing process from OS
             0 MiB allocation reported by mallinfo(arena+hblkhd)
         44230 MiB available memory on the node where the printing process lives
------------------
     ethr =  8.79E-04,  avg # of iterations =  8.8

     negative rho (up, down):  2.245E-03 0.000E+00

     total cpu time spent up to now is     4166.6 secs

     total energy              =  -29710.50274044 Ry
     estimated scf accuracy    <      98.02727473 Ry

     iteration #  5     ecut=    50.00 Ry     beta= 0.70
     Davidson diagonalization with overlap

---- Real-time Memory Report at c_bands before calling an iterative solver
           550 MiB given to the printing process from OS
             0 MiB allocation reported by mallinfo(arena+hblkhd)
         44201 MiB available memory on the node where the printing process lives
------------------
     ethr =  8.79E-04,  avg # of iterations =  7.0

     negative rho (up, down):  2.208E-03 0.000E+00

     total cpu time spent up to now is     4736.8 secs

     total energy              =  -29715.22570870 Ry
     estimated scf accuracy    <       4.34674054 Ry

     iteration #  6     ecut=    50.00 Ry     beta= 0.70
     Davidson diagonalization with overlap

---- Real-time Memory Report at c_bands before calling an iterative solver
           551 MiB given to the printing process from OS
             0 MiB allocation reported by mallinfo(arena+hblkhd)
         44169 MiB available memory on the node where the printing process lives
------------------
     ethr =  3.28E-04,  avg # of iterations =  5.2

     negative rho (up, down):  2.734E-03 0.000E+00

     total cpu time spent up to now is     5273.0 secs

     total energy              =  -29715.66975117 Ry
     estimated scf accuracy    <       0.26435868 Ry

     iteration #  7     ecut=    50.00 Ry     beta= 0.70
     Davidson diagonalization with overlap

---- Real-time Memory Report at c_bands before calling an iterative solver
           552 MiB given to the printing process from OS
             0 MiB allocation reported by mallinfo(arena+hblkhd)
         44136 MiB available memory on the node where the printing process lives
------------------
     c_bands:  2 eigenvalues not converged
     ethr =  2.00E-05,  avg # of iterations = 15.8

     negative rho (up, down):  3.292E-03 0.000E+00

     total cpu time spent up to now is     5877.4 secs

     total energy              =  -29715.68615475 Ry
     estimated scf accuracy    <       0.06778943 Ry

     iteration #  8     ecut=    50.00 Ry     beta= 0.70
     Davidson diagonalization with overlap

---- Real-time Memory Report at c_bands before calling an iterative solver
           553 MiB given to the printing process from OS
             0 MiB allocation reported by mallinfo(arena+hblkhd)
         44104 MiB available memory on the node where the printing process lives
------------------
     ethr =  5.12E-06,  avg # of iterations = 10.2

     negative rho (up, down):  3.680E-03 0.000E+00

     total cpu time spent up to now is     6468.4 secs

     total energy              =  -29715.68819100 Ry
     estimated scf accuracy    <       0.05826057 Ry

     iteration #  9     ecut=    50.00 Ry     beta= 0.70
     Davidson diagonalization with overlap

---- Real-time Memory Report at c_bands before calling an iterative solver
           554 MiB given to the printing process from OS
             0 MiB allocation reported by mallinfo(arena+hblkhd)
         44074 MiB available memory on the node where the printing process lives
------------------
     ethr =  4.40E-06,  avg # of iterations =  3.0

     negative rho (up, down):  3.759E-03 0.000E+00

     total cpu time spent up to now is     7009.5 secs

     total energy              =  -29715.69335765 Ry
     estimated scf accuracy    <       0.03257495 Ry

     iteration # 10     ecut=    50.00 Ry     beta= 0.70
     Davidson diagonalization with overlap

---- Real-time Memory Report at c_bands before calling an iterative solver
           555 MiB given to the printing process from OS
             0 MiB allocation reported by mallinfo(arena+hblkhd)
         44042 MiB available memory on the node where the printing process lives
------------------
     c_bands:  2 eigenvalues not converged
     ethr =  2.46E-06,  avg # of iterations =  6.2

     negative rho (up, down):  3.803E-03 0.000E+00

     total cpu time spent up to now is     7556.6 secs

     total energy              =  -29715.69517996 Ry
     estimated scf accuracy    <       0.01377407 Ry

     iteration # 11     ecut=    50.00 Ry     beta= 0.70
     Davidson diagonalization with overlap

---- Real-time Memory Report at c_bands before calling an iterative solver
           556 MiB given to the printing process from OS
             0 MiB allocation reported by mallinfo(arena+hblkhd)
         44015 MiB available memory on the node where the printing process lives
------------------
     ethr =  1.04E-06,  avg # of iterations =  3.8

     negative rho (up, down):  4.316E-03 0.000E+00

     total cpu time spent up to now is     8064.6 secs

     total energy              =  -29715.68860603 Ry
     estimated scf accuracy    <       0.01146866 Ry

     iteration # 12     ecut=    50.00 Ry     beta= 0.70
     Davidson diagonalization with overlap

---- Real-time Memory Report at c_bands before calling an iterative solver
           556 MiB given to the printing process from OS
             0 MiB allocation reported by mallinfo(arena+hblkhd)
         44013 MiB available memory on the node where the printing process lives
------------------
     ethr =  8.66E-07,  avg # of iterations = 16.0

     negative rho (up, down):  4.077E-03 0.000E+00

     total cpu time spent up to now is     8694.9 secs

     total energy              =  -29715.68905037 Ry
     estimated scf accuracy    <       0.00874470 Ry

     iteration # 13     ecut=    50.00 Ry     beta= 0.70
     Davidson diagonalization with overlap

---- Real-time Memory Report at c_bands before calling an iterative solver
           556 MiB given to the printing process from OS
             0 MiB allocation reported by mallinfo(arena+hblkhd)
         44008 MiB available memory on the node where the printing process lives
------------------
     ethr =  6.60E-07,  avg # of iterations =  3.0

     negative rho (up, down):  3.990E-03 0.000E+00

     total cpu time spent up to now is     9217.2 secs

     total energy              =  -29715.68629650 Ry
     estimated scf accuracy    <       0.00819931 Ry

     iteration # 14     ecut=    50.00 Ry     beta= 0.70
     Davidson diagonalization with overlap

---- Real-time Memory Report at c_bands before calling an iterative solver
           556 MiB given to the printing process from OS
             0 MiB allocation reported by mallinfo(arena+hblkhd)
         44005 MiB available memory on the node where the printing process lives
------------------
     c_bands:  2 eigenvalues not converged
     ethr =  6.19E-07,  avg # of iterations = 13.6

     negative rho (up, down):  3.971E-03 0.000E+00

     total cpu time spent up to now is     9827.9 secs

     total energy              =  -29715.68165308 Ry
     estimated scf accuracy    <       0.14418208 Ry

     iteration # 15     ecut=    50.00 Ry     beta= 0.70
     Davidson diagonalization with overlap

---- Real-time Memory Report at c_bands before calling an iterative solver
           556 MiB given to the printing process from OS
             0 MiB allocation reported by mallinfo(arena+hblkhd)
         44003 MiB available memory on the node where the printing process lives
------------------
     ethr =  6.19E-07,  avg # of iterations =  9.6

     negative rho (up, down):  3.965E-03 0.000E+00

     total cpu time spent up to now is    10396.2 secs

     total energy              =  -29715.68945051 Ry
     estimated scf accuracy    <       0.00068352 Ry

     iteration # 16     ecut=    50.00 Ry     beta= 0.70
     Davidson diagonalization with overlap

---- Real-time Memory Report at c_bands before calling an iterative solver
           556 MiB given to the printing process from OS
             0 MiB allocation reported by mallinfo(arena+hblkhd)
         44003 MiB available memory on the node where the printing process lives
------------------
     ethr =  5.16E-08,  avg # of iterations =  3.0

     negative rho (up, down):  3.942E-03 0.000E+00

     total cpu time spent up to now is    10947.6 secs

     total energy              =  -29715.68955161 Ry
     estimated scf accuracy    <       0.00042168 Ry

     iteration # 17     ecut=    50.00 Ry     beta= 0.70
     Davidson diagonalization with overlap

---- Real-time Memory Report at c_bands before calling an iterative solver
           556 MiB given to the printing process from OS
             0 MiB allocation reported by mallinfo(arena+hblkhd)
         44004 MiB available memory on the node where the printing process lives
------------------
     ethr =  3.18E-08,  avg # of iterations =  2.0

     negative rho (up, down):  3.918E-03 0.000E+00

     total cpu time spent up to now is    11452.6 secs

     total energy              =  -29715.68960574 Ry
     estimated scf accuracy    <       0.00006469 Ry

     iteration # 18     ecut=    50.00 Ry     beta= 0.70
     Davidson diagonalization with overlap

---- Real-time Memory Report at c_bands before calling an iterative solver
           556 MiB given to the printing process from OS
             0 MiB allocation reported by mallinfo(arena+hblkhd)
         44003 MiB available memory on the node where the printing process lives
------------------
     ethr =  4.89E-09,  avg # of iterations =  2.8

     negative rho (up, down):  3.907E-03 0.000E+00

     total cpu time spent up to now is    11959.9 secs

     total energy              =  -29715.68961349 Ry
     estimated scf accuracy    <       0.00000841 Ry

     iteration # 19     ecut=    50.00 Ry     beta= 0.70
     Davidson diagonalization with overlap

---- Real-time Memory Report at c_bands before calling an iterative solver
           556 MiB given to the printing process from OS
             0 MiB allocation reported by mallinfo(arena+hblkhd)
         44000 MiB available memory on the node where the printing process lives
------------------
     ethr =  6.35E-10,  avg # of iterations =  3.0

     negative rho (up, down):  3.903E-03 0.000E+00

     total cpu time spent up to now is    12474.0 secs

     total energy              =  -29715.68961468 Ry
     estimated scf accuracy    <       0.00000102 Ry

     iteration # 20     ecut=    50.00 Ry     beta= 0.70
     Davidson diagonalization with overlap

---- Real-time Memory Report at c_bands before calling an iterative solver
           556 MiB given to the printing process from OS
             0 MiB allocation reported by mallinfo(arena+hblkhd)
         44001 MiB available memory on the node where the printing process lives
------------------
     ethr =  7.72E-11,  avg # of iterations =  3.4

     negative rho (up, down):  3.902E-03 0.000E+00

     total cpu time spent up to now is    13047.1 secs

     total energy              =  -29715.68961466 Ry
     estimated scf accuracy    <       0.00000195 Ry

     iteration # 21     ecut=    50.00 Ry     beta= 0.70
     Davidson diagonalization with overlap

---- Real-time Memory Report at c_bands before calling an iterative solver
           556 MiB given to the printing process from OS
             0 MiB allocation reported by mallinfo(arena+hblkhd)
         43999 MiB available memory on the node where the printing process lives
------------------
     ethr =  7.72E-11,  avg # of iterations =  2.2

     negative rho (up, down):  3.899E-03 0.000E+00

     total cpu time spent up to now is    13553.4 secs

     End of self-consistent calculation

          k = 0.0000 0.0000 0.0000 ( 90569 PWs)   bands (ev):

  -122.8548-122.8536-122.8534-122.8527-122.8520-122.8517-122.8516-122.8508
  -122.8504-122.8494-122.8491-122.8485-122.8482-122.8478-122.8477-122.8470
  -122.8202-122.8149-122.8128-122.8121-122.8115-122.8071-122.8058-122.8055
  -122.8045-122.8033-122.8029-122.8027-122.8015-122.8011-122.8007-122.8000
  -122.6562-122.6507-122.6494-122.6492-122.6490-122.6487-122.6483-122.6479
  -122.6479-122.6475-122.6472-122.6468-122.6465-122.6463-122.6458-122.6455
  -122.6447-122.6437-122.6319-122.6302-122.6283-122.6266-122.6247-122.6238
  -122.6230-122.6227-122.6224-122.6210-122.6203-122.6202-122.6193-122.6185
   -77.0181 -77.0176 -77.0176 -77.0118 -77.0117 -77.0106 -77.0105 -77.0104
   -77.0103 -77.0063 -77.0049 -77.0047 -77.0039 -77.0032 -77.0029 -77.0028
   -77.0019 -77.0018 -77.0006 -77.0006 -77.0005 -77.0003 -76.9998 -76.9996
   -76.9995 -76.9992 -76.9991 -76.9990 -76.9988 -76.9986 -76.9983 -76.9982
   -76.9981 -76.9979 -76.9978 -76.9968 -76.9967 -76.9917 -76.9907 -76.9904
   -76.9871 -76.9868 -76.9868 -76.9858 -76.9855 -76.9854 -76.9816 -76.9811
   -76.9784 -76.9771 -76.9748 -76.9712 -76.9699 -76.9685 -76.9674 -76.9667
   -76.9659 -76.9657 -76.9653 -76.9638 -76.9631 -76.9624 -76.9593 -76.9585
   -76.9581 -76.9581 -76.9568 -76.9566 -76.9565 -76.9559 -76.9557 -76.9552
   -76.9546 -76.9544 -76.9542 -76.9541 -76.9537 -76.9526 -76.9526 -76.9523
   -76.9521 -76.9518 -76.9511 -76.9510 -76.9506 -76.9487 -76.9455 -76.9447
   -76.9441 -76.9424 -76.9420 -76.9399 -76.9396 -76.9394 -76.9362 -76.9349
   -76.8166 -76.8118 -76.8117 -76.8117 -76.8096 -76.8094 -76.8082 -76.8080
   -76.8075 -76.8070 -76.8069 -76.8066 -76.8066 -76.8062 -76.8059 -76.8057
   -76.8055 -76.8054 -76.8052 -76.8051 -76.8048 -76.8048 -76.8047 -76.8046
   -76.8044 -76.8040 -76.8039 -76.8031 -76.8021 -76.7976 -76.7944 -76.7944
   -76.7941 -76.7937 -76.7936 -76.7934 -76.7931 -76.7925 -76.7924 -76.7922
   -76.7920 -76.7919 -76.7914 -76.7914 -76.7907 -76.7888 -76.7875 -76.7867
   -76.7855 -76.7855 -76.7853 -76.7850 -76.7849 -76.7842 -76.7839 -76.7832
   -76.7827 -76.7823 -76.7816 -76.7812 -76.7811 -76.7810 -76.7809 -76.7809
   -76.7805 -76.7804 -76.7802 -76.7801 -76.7801 -76.7794 -76.7784 -76.7780
   -76.7763 -76.7760 -76.7760 -76.7758 -76.7743 -76.7709 -76.7708 -76.7703
   -76.7693 -76.7686 -76.7680 -76.7672 -76.7667 -76.7665 -76.7617 -76.7607
   -76.7591 -76.7583 -76.7581 -76.7560 -76.7556 -76.7553 -76.7523 -76.7508
   -15.4999 -14.0968 -13.2718 -10.9075 -10.8073  -7.8859  -7.6211  -6.4817
    -5.7330  -5.6887  -5.1477  -5.1090  -4.9674  -4.8865  -4.8855  -4.8817
    -4.8805  -4.8780  -4.8779  -4.8735  -4.6893  -4.6893  -4.6893  -4.6335
    -4.6331  -4.6328  -4.5298  -4.5268  -4.5239  -4.5229  -4.5221  -4.5219
    -4.4991  -4.4988  -4.4985  -4.4253  -4.4243  -4.4232  -4.3631  -4.3626
    -4.3621  -4.3615  -4.3614  -4.3613  -4.3250  -4.3249  -4.3249  -4.2891
    -4.2864  -4.2853  -4.2842  -4.2838  -4.2821  -4.2671  -4.2669  -4.2663
    -4.2650  -4.2640  -4.2639  -4.2547  -4.2546  -4.2545  -4.2245  -4.2244
    -4.2235  -4.2234  -4.2227  -4.2225  -4.1836  -4.1833  -4.1824  -4.1816
    -4.1807  -4.1803  -4.1087  -4.0934  -4.0907  -4.0882  -4.0873  -4.0869
    -4.0865  -4.0839  -4.0838  -4.0827  -4.0825  -4.0814  -4.0813  -4.0379
    -4.0368  -4.0362  -4.0355  -4.0346  -4.0343  -4.0336  -4.0322  -4.0313
    -4.0290  -4.0282  -4.0277  -4.0266  -4.0257  -4.0255  -3.9923  -3.9907
    -3.9895  -3.9877  -3.9870  -3.9869  -3.9482  -3.9480  -3.9475  -3.9450
    -3.9437  -3.9429  -3.9036  -3.9031  -3.9028  -3.9013  -3.9011  -3.9010
    -3.9006  -3.9003  -3.8967  -3.8958  -3.8951  -3.8934  -3.8925  -3.8918
    -3.8908  -3.8907  -3.8906  -3.8745  -3.8504  -3.8503  -3.8314  -3.8309
    -3.8305  -3.8291  -3.8285  -3.8282  -3.8154  -3.8146  -3.8130  -3.8126
    -3.8119  -3.8119  -3.7772  -3.7762  -3.7752  -3.7747  -3.7745  -3.7742
    -3.7503  -3.7489  -3.7483  -3.7482  -3.7481  -3.7477  -3.6901  -3.6901
    -3.6727  -3.6724  -3.6721  -3.6714  -3.6712  -3.6709  -3.6645  -3.6644
    -3.6320  -3.6317  -3.6317  -3.6255  -3.6251  -3.6247  -3.6228  -3.6223
    -3.6219  -3.5984  -3.5978  -3.5972  -3.5961  -3.5948  -3.5944  -3.5773
    -3.5752  -3.5747  -3.5740  -3.5735  -3.5716  -3.5677  -3.5677  -3.5674
    -3.5673  -3.5670  -3.5670  -3.5495  -3.5494  -3.5490  -3.5456  -3.5452
    -3.5435  -3.5429  -3.5426  -3.5423  -3.5422  -3.5417  -3.5415  -3.5414
    -3.5410  -3.5409  -3.5381  -3.5366  -3.5365  -3.5362  -3.5357  -3.5339
    -3.5122  -3.5121  -3.5117  -3.5114  -3.5107  -3.5106  -3.4678  -3.4674
    -3.4664  -3.4618  -3.4602  -3.4600  -3.4598  -3.4591  -3.4582  -3.4546
    -3.4544  -3.4541  -3.4522  -3.4515  -3.4508  -3.4101  -3.4100  -3.4088
    -3.4086  -3.4080  -3.4048  -3.4043  -3.4035  -3.3949  -3.3946  -3.3944
    -3.3942  -3.3940  -3.3938  -3.3839  -3.3832  -3.3830  -3.3819  -3.3816
    -3.3813  -3.3787  -3.3784  -3.3781  -3.3770  -3.3765  -3.3761  -3.3130
    -3.3127  -3.3051  -3.3042  -3.3039  -3.2775  -3.2774  -3.2773  -3.2768
    -3.2767  -3.2767  -3.2679  -3.2679  -3.2670  -3.2606  -3.2594  -3.2591
    -3.2553  -3.2548  -3.2538  -3.2520  -3.2508  -3.2494  -3.2317  -3.2316
    -3.2312  -3.2224  -3.2212  -3.2200  -3.2199  -3.2190  -3.2189  -3.2043
    -3.2040  -3.2039  -3.2029  -3.2028  -3.2026  -3.1872  -3.1869  -3.1868
    -3.1844  -3.1836  -3.1831  -3.1719  -3.1703  -3.1691  -3.1578  -3.1577
    -3.1410  -3.1405  -3.1018  -3.0930  -3.0930  -3.0925  -3.0924  -3.0924
    -3.0913  -3.0776  -3.0775  -3.0766  -3.0764  -3.0759  -3.0723  -3.0610
    -3.0610  -3.0609  -3.0166  -3.0163  -3.0160  -3.0119  -2.9808  -2.8581
    -2.8546  -2.8543  -2.8542  -2.8541  -2.8526  -2.8499  -2.8480  -2.8470
    -2.8344  -2.8331  -2.8317  -2.6076  -2.0931  -1.8032  -1.4647  -1.4622
    -1.4607  -1.4593  -1.4580  -1.4561  -0.9984  -0.8983  -0.7401  -0.1097
     0.0088   0.0103   0.0114   0.0118   0.0127   0.0136   0.3088   0.4141
     0.4231   0.4258   0.4268   0.4287   0.4291   0.5436   0.8438   0.8456
     0.8496   0.8504   0.8513   0.8523   1.1672   1.2555   1.2970   1.2975
     1.2976   1.8585   1.8609   1.8621   2.2087   2.2101   2.2120   2.2587
     2.2601   2.2610   2.2616   2.2618   2.2619   2.4503   2.4517   2.4543
     2.6023   3.4567   3.4604   3.4738   3.4793   3.4807   3.4840   3.9468
     3.9501   3.9507   3.9522   3.9541   3.9556   4.1344   4.5446   4.5506
     4.5514   4.8297   4.8303   4.8329   5.6494   5.6530   5.6533   5.9548
     5.9662   5.9917   6.0078   6.0158   6.0280   6.2150   6.4125   6.5439
     6.5609   6.5633   6.5734   7.2714   7.3098   7.3319   7.3351   7.3372
     7.3401   7.3442   7.5461   7.5470   7.5492   7.5504   7.5521   7.5523
     7.5901   7.7268   7.7272   7.7300   7.7306   7.7323   7.7328   7.9420
     8.1043   8.1247   8.1909   8.3527   8.3643   8.4073   8.4388   8.4420
     8.4429   8.4443   8.4464   8.4475   8.4907   8.5016   8.5050   8.5315
     8.5334   8.5344   8.5380   8.5389   8.5395   8.7250   8.8617   8.9698
     8.9749   9.0943   9.1300   9.2060   9.2523   9.2883   9.3724   9.4067
     9.4566   9.4994   9.5120   9.5405   9.5454   9.5497   9.5629   9.5920
     9.5996   9.7800   9.9538   9.9715   9.9761   9.9784   9.9802   9.9810
    10.0226  10.0255  10.0273  10.0295  10.0313  10.0346  10.1274  10.1354
    10.1492  10.3339  10.6391  10.6609  10.6740  10.7588  10.7719  10.8343
    10.9255  11.0063  11.0579  11.0682  11.1049  11.2387  11.2543  11.2716
    11.3303  11.3458  11.3909  11.4020  11.4047  11.4214  11.4332  11.4398
    11.5099  11.5572

     occupation numbers 
     1.0000   1.0000   1.0000   1.0000   1.0000   1.0000   1.0000   1.0000
     1.0000   1.0000   1.0000   1.0000   1.0000   1.0000   1.0000   1.0000
     1.0000   1.0000   1.0000   1.0000   1.0000   1.0000   1.0000   1.0000
     1.0000   1.0000   1.0000   1.0000   1.0000   1.0000   1.0000   1.0000
     1.0000   1.0000   1.0000   1.0000   1.0000   1.0000   1.0000   1.0000
     1.0000   1.0000   1.0000   1.0000   1.0000   1.0000   1.0000   1.0000
     1.0000   1.0000   1.0000   1.0000   1.0000   1.0000   1.0000   1.0000
     1.0000   1.0000   1.0000   1.0000   1.0000   1.0000   1.0000   1.0000
     1.0000   1.0000   1.0000   1.0000   1.0000   1.0000   1.0000   1.0000
     1.0000   1.0000   1.0000   1.0000   1.0000   1.0000   1.0000   1.0000
     1.0000   1.0000   1.0000   1.0000   1.0000   1.0000   1.0000   1.0000
     1.0000   1.0000   1.0000   1.0000   1.0000   1.0000   1.0000   1.0000
     1.0000   1.0000   1.0000   1.0000   1.0000   1.0000   1.0000   1.0000
     1.0000   1.0000   1.0000   1.0000   1.0000   1.0000   1.0000   1.0000
     1.0000   1.0000   1.0000   1.0000   1.0000   1.0000   1.0000   1.0000
     1.0000   1.0000   1.0000   1.0000   1.0000   1.0000   1.0000   1.0000
     1.0000   1.0000   1.0000   1.0000   1.0000   1.0000   1.0000   1.0000
     1.0000   1.0000   1.0000   1.0000   1.0000   1.0000   1.0000   1.0000
     1.0000   1.0000   1.0000   1.0000   1.0000   1.0000   1.0000   1.0000
     1.0000   1.0000   1.0000   1.0000   1.0000   1.0000   1.0000   1.0000
     1.0000   1.0000   1.0000   1.0000   1.0000   1.0000   1.0000   1.0000
     1.0000   1.0000   1.0000   1.0000   1.0000   1.0000   1.0000   1.0000
     1.0000   1.0000   1.0000   1.0000   1.0000   1.0000   1.0000   1.0000
     1.0000   1.0000   1.0000   1.0000   1.0000   1.0000   1.0000   1.0000
     1.0000   1.0000   1.0000   1.0000   1.0000   1.0000   1.0000   1.0000
     1.0000   1.0000   1.0000   1.0000   1.0000   1.0000   1.0000   1.0000
     1.0000   1.0000   1.0000   1.0000   1.0000   1.0000   1.0000   1.0000
     1.0000   1.0000   1.0000   1.0000   1.0000   1.0000   1.0000   1.0000
     1.0000   1.0000   1.0000   1.0000   1.0000   1.0000   1.0000   1.0000
     1.0000   1.0000   1.0000   1.0000   1.0000   1.0000   1.0000   1.0000
     1.0000   1.0000   1.0000   1.0000   1.0000   1.0000   1.0000   1.0000
     1.0000   1.0000   1.0000   1.0000   1.0000   1.0000   1.0000   1.0000
     1.0000   1.0000   1.0000   1.0000   1.0000   1.0000   1.0000   1.0000
     1.0000   1.0000   1.0000   1.0000   1.0000   1.0000   1.0000   1.0000
     1.0000   1.0000   1.0000   1.0000   1.0000   1.0000   1.0000   1.0000
     1.0000   1.0000   1.0000   1.0000   1.0000   1.0000   1.0000   1.0000
     1.0000   1.0000   1.0000   1.0000   1.0000   1.0000   1.0000   1.0000
     1.0000   1.0000   1.0000   1.0000   1.0000   1.0000   1.0000   1.0000
     1.0000   1.0000   1.0000   1.0000   1.0000   1.0000   1.0000   1.0000
     1.0000   1.0000   1.0000   1.0000   1.0000   1.0000   1.0000   1.0000
     1.0000   1.0000   1.0000   1.0000   1.0000   1.0000   1.0000   1.0000
     1.0000   1.0000   1.0000   1.0000   1.0000   1.0000   1.0000   1.0000
     1.0000   1.0000   1.0000   1.0000   1.0000   1.0000   1.0000   1.0000
     1.0000   1.0000   1.0000   1.0000   1.0000   1.0000   1.0000   1.0000
     1.0000   1.0000   1.0000   1.0000   1.0000   1.0000   1.0000   1.0000
     1.0000   1.0000   1.0000   1.0000   1.0000   1.0000   1.0000   1.0000
     1.0000   1.0000   1.0000   1.0000   1.0000   1.0000   1.0000   1.0000
     1.0000   1.0000   1.0000   1.0000   1.0000   1.0000   1.0000   1.0000
     1.0000   1.0000   1.0000   1.0000   1.0000   1.0000   1.0000   1.0000
     1.0000   1.0000   1.0000   1.0000   1.0000   1.0000   1.0000   1.0000
     1.0000   1.0000   1.0000   1.0000   1.0000   1.0000   1.0000   1.0000
     1.0000   1.0000   1.0000   1.0000   1.0000   1.0000   1.0000   1.0000
     1.0000   1.0000   1.0000   1.0000   1.0000   1.0000   1.0000   1.0000
     1.0000   1.0000   1.0000   1.0000   1.0000   1.0000   1.0000   1.0000
     1.0000   1.0000   1.0000   1.0000   1.0000   1.0000   1.0000   1.0000
     1.0000   1.0000   1.0000   1.0000   1.0000   1.0000   1.0000   1.0000
     1.0000   1.0000   1.0000   1.0000   1.0000   1.0000   1.0000   1.0000
     1.0000   1.0000   1.0000   1.0000   1.0000   1.0000   1.0000   1.0000
     1.0000   1.0000   1.0000   1.0000   1.0000   1.0000   1.0000   1.0000
     1.0000   1.0000   1.0000   1.0000   1.0000   1.0000   1.0000   1.0000
     1.0000   1.0000   1.0000   1.0000   1.0000   1.0000   1.0000   1.0000
     1.0000   1.0000   1.0000   1.0000   1.0000   1.0000   1.0000   1.0000
     1.0000   1.0000   1.0000   1.0000   1.0000   1.0000   1.0000   1.0000
     1.0000   1.0000   1.0000   1.0000   1.0000   1.0000   1.0000   1.0000
     1.0000   1.0000   1.0000   1.0000   1.0000   1.0000   1.0000   1.0000
     1.0000   1.0000   1.0000   1.0000   1.0000   1.0000   1.0000   1.0000
     1.0000   1.0000   1.0000   1.0000   1.0000   1.0000   1.0000   1.0000
     1.0000   1.0000   1.0000   1.0000   1.0000   1.0000   1.0000   1.0000
     1.0000   1.0000   1.0000   1.0000   1.0000   1.0000   1.0000   1.0000
     1.0000   1.0000   1.0000   1.0000   1.0000   1.0000   1.0000   1.0000
     1.0000   1.0000   1.0000   1.0000   1.0000   1.0000   1.0000   1.0000
     1.0000   1.0000   1.0000   1.0000   1.0000   1.0000   1.0000   1.0000
     1.0000   1.0000   1.0000   1.0000   1.0000   1.0000   1.0000   1.0000
     1.0000   1.0000   1.0000   1.0000   1.0000   1.0000   1.0000   1.0000
     1.0000   1.0000   1.0000   1.0000   1.0000   1.0000   1.0000   1.0000
     1.0000   1.0000   1.0000   1.0000   1.0000   1.0000   1.0000   1.0000
     1.0000   1.0000   1.0000   1.0000   1.0000   1.0000   1.0000   1.0000
     1.0000   1.0000   1.0000   1.0000   1.0000   1.0000   1.0000   1.0000
     1.0000   1.0000   1.0000   1.0000   1.0000   1.0000   1.0000   1.0000
     1.0000   1.0000   1.0000   1.0000   1.0000   1.0000   1.0000   1.0000
     1.0000   1.0000   1.0000   1.0000   1.0000   1.0000   1.0000   1.0000
     1.0000   1.0000   1.0000   1.0000   1.0000   1.0000   1.0000   1.0000
     1.0000   1.0367   1.0379   1.0421   1.0439   1.0444   1.0455   0.5841
     0.5747   0.5731   0.5691   0.5637   0.5597   0.1603   0.0004   0.0004
     0.0004   0.0000   0.0000   0.0000   0.0000   0.0000   0.0000   0.0000
     0.0000   0.0000   0.0000   0.0000   0.0000   0.0000   0.0000   0.0000
     0.0000   0.0000   0.0000   0.0000   0.0000   0.0000   0.0000   0.0000
     0.0000   0.0000   0.0000   0.0000   0.0000   0.0000   0.0000   0.0000
     0.0000   0.0000   0.0000   0.0000   0.0000   0.0000   0.0000   0.0000
     0.0000   0.0000   0.0000   0.0000   0.0000   0.0000   0.0000   0.0000
     0.0000   0.0000   0.0000   0.0000   0.0000   0.0000   0.0000   0.0000
     0.0000   0.0000   0.0000   0.0000   0.0000   0.0000   0.0000   0.0000
     0.0000   0.0000   0.0000   0.0000   0.0000   0.0000   0.0000   0.0000
     0.0000   0.0000   0.0000   0.0000   0.0000   0.0000   0.0000   0.0000
     0.0000   0.0000   0.0000   0.0000   0.0000   0.0000   0.0000   0.0000
     0.0000   0.0000   0.0000   0.0000   0.0000   0.0000   0.0000   0.0000
     0.0000   0.0000   0.0000   0.0000   0.0000   0.0000   0.0000   0.0000
     0.0000   0.0000   0.0000   0.0000   0.0000   0.0000   0.0000   0.0000
     0.0000   0.0000   0.0000   0.0000   0.0000   0.0000   0.0000   0.0000
     0.0000   0.0000

          k = 0.0000 0.3849 0.0000 ( 90604 PWs)   bands (ev):

  -122.8547-122.8539-122.8530-122.8527-122.8521-122.8519-122.8514-122.8509
  -122.8503-122.8497-122.8488-122.8485-122.8482-122.8479-122.8476-122.8470
  -122.8202-122.8149-122.8128-122.8121-122.8115-122.8071-122.8058-122.8055
  -122.8045-122.8035-122.8028-122.8027-122.8016-122.8011-122.8007-122.8000
  -122.6562-122.6505-122.6499-122.6490-122.6489-122.6487-122.6483-122.6481
  -122.6479-122.6474-122.6471-122.6468-122.6466-122.6463-122.6459-122.6455
  -122.6446-122.6437-122.6319-122.6302-122.6283-122.6266-122.6247-122.6237
  -122.6232-122.6226-122.6224-122.6210-122.6204-122.6201-122.6193-122.6185
   -77.0167 -77.0164 -77.0156 -77.0134 -77.0133 -77.0120 -77.0108 -77.0084
   -77.0083 -77.0082 -77.0062 -77.0053 -77.0044 -77.0043 -77.0042 -77.0039
   -77.0033 -77.0031 -77.0025 -77.0020 -77.0016 -77.0015 -77.0013 -77.0010
   -77.0000 -76.9996 -76.9993 -76.9990 -76.9985 -76.9979 -76.9968 -76.9960
   -76.9957 -76.9954 -76.9939 -76.9930 -76.9927 -76.9913 -76.9906 -76.9898
   -76.9892 -76.9887 -76.9876 -76.9863 -76.9855 -76.9838 -76.9833 -76.9820
   -76.9775 -76.9765 -76.9737 -76.9712 -76.9708 -76.9702 -76.9682 -76.9659
   -76.9659 -76.9646 -76.9638 -76.9637 -76.9634 -76.9631 -76.9624 -76.9609
   -76.9596 -76.9581 -76.9579 -76.9569 -76.9568 -76.9565 -76.9563 -76.9556
   -76.9546 -76.9539 -76.9537 -76.9537 -76.9526 -76.9525 -76.9522 -76.9517
   -76.9516 -76.9510 -76.9504 -76.9493 -76.9481 -76.9461 -76.9456 -76.9449
   -76.9446 -76.9436 -76.9415 -76.9408 -76.9398 -76.9387 -76.9372 -76.9360
   -76.8166 -76.8105 -76.8104 -76.8095 -76.8094 -76.8094 -76.8087 -76.8076
   -76.8074 -76.8074 -76.8073 -76.8070 -76.8068 -76.8066 -76.8066 -76.8061
   -76.8058 -76.8057 -76.8054 -76.8054 -76.8052 -76.8048 -76.8044 -76.8040
   -76.8038 -76.8031 -76.8028 -76.8027 -76.8025 -76.8021 -76.7987 -76.7986
   -76.7974 -76.7957 -76.7956 -76.7941 -76.7922 -76.7907 -76.7906 -76.7903
   -76.7898 -76.7897 -76.7888 -76.7877 -76.7873 -76.7868 -76.7867 -76.7866
   -76.7861 -76.7850 -76.7849 -76.7849 -76.7845 -76.7838 -76.7834 -76.7833
   -76.7829 -76.7828 -76.7826 -76.7823 -76.7823 -76.7816 -76.7809 -76.7805
   -76.7804 -76.7804 -76.7801 -76.7801 -76.7794 -76.7793 -76.7786 -76.7784
   -76.7783 -76.7779 -76.7771 -76.7765 -76.7757 -76.7740 -76.7724 -76.7706
   -76.7685 -76.7679 -76.7666 -76.7656 -76.7641 -76.7624 -76.7616 -76.7603
   -76.7600 -76.7596 -76.7574 -76.7570 -76.7557 -76.7545 -76.7529 -76.7521
   -15.4999 -14.0968 -13.2718 -10.9075 -10.8073  -7.8859  -7.6211  -6.2696
    -5.7329  -5.6624  -5.4906  -5.1480  -5.1235  -5.1165  -5.1036  -4.9581
    -4.8270  -4.7629  -4.6612  -4.6201  -4.6157  -4.6156  -4.6031  -4.5688
    -4.5650  -4.5613  -4.5600  -4.5586  -4.5567  -4.5322  -4.5260  -4.4742
    -4.4664  -4.4410  -4.4410  -4.4227  -4.4217  -4.4126  -4.4123  -4.3944
    -4.3881  -4.3653  -4.3649  -4.3515  -4.3514  -4.3485  -4.3480  -4.3240
    -4.3233  -4.3232  -4.3118  -4.3116  -4.2992  -4.2989  -4.2938  -4.2922
    -4.2917  -4.2770  -4.2770  -4.2600  -4.2572  -4.2479  -4.2472  -4.2415
    -4.2414  -4.2257  -4.2232  -4.2229  -4.2212  -4.2206  -4.2085  -4.2077
    -4.2068  -4.1747  -4.1746  -4.1699  -4.1685  -4.1524  -4.1513  -4.1492
    -4.1479  -4.1435  -4.1421  -4.1414  -4.0963  -4.0954  -4.0917  -4.0907
    -4.0866  -4.0690  -4.0669  -4.0657  -4.0654  -4.0543  -4.0542  -4.0453
    -4.0265  -4.0257  -4.0198  -4.0174  -4.0169  -4.0166  -4.0113  -4.0105
    -4.0084  -3.9904  -3.9896  -3.9810  -3.9808  -3.9795  -3.9757  -3.9733
    -3.9724  -3.9719  -3.9707  -3.9604  -3.9596  -3.9497  -3.9484  -3.9472
    -3.9293  -3.9079  -3.9007  -3.8982  -3.8917  -3.8798  -3.8785  -3.8759
    -3.8755  -3.8739  -3.8686  -3.8678  -3.8651  -3.8630  -3.8623  -3.8496
    -3.8379  -3.8376  -3.8326  -3.8322  -3.8136  -3.8128  -3.7995  -3.7956
    -3.7914  -3.7882  -3.7867  -3.7837  -3.7830  -3.7645  -3.7630  -3.7584
    -3.7565  -3.7462  -3.7447  -3.7412  -3.7214  -3.7210  -3.7191  -3.7168
    -3.7152  -3.7070  -3.7034  -3.6934  -3.6926  -3.6921  -3.6901  -3.6893
    -3.6624  -3.6620  -3.6596  -3.6591  -3.6567  -3.6407  -3.6386  -3.6370
    -3.6366  -3.6189  -3.6139  -3.6045  -3.6043  -3.5852  -3.5845  -3.5838
    -3.5831  -3.5827  -3.5789  -3.5788  -3.5754  -3.5733  -3.5722  -3.5636
    -3.5631  -3.5521  -3.5516  -3.5465  -3.5458  -3.5445  -3.5438  -3.5328
    -3.5324  -3.5243  -3.5235  -3.5223  -3.5212  -3.5198  -3.5124  -3.5113
    -3.5048  -3.4988  -3.4985  -3.4867  -3.4852  -3.4807  -3.4800  -3.4795
    -3.4716  -3.4711  -3.4679  -3.4665  -3.4640  -3.4628  -3.4620  -3.4579
    -3.4575  -3.4414  -3.4400  -3.4394  -3.4382  -3.4380  -3.4375  -3.4337
    -3.4326  -3.4320  -3.4224  -3.4050  -3.4044  -3.4037  -3.4010  -3.3999
    -3.3831  -3.3822  -3.3733  -3.3732  -3.3504  -3.3473  -3.3466  -3.3432
    -3.3424  -3.3415  -3.3402  -3.3375  -3.3353  -3.3345  -3.3339  -3.3332
    -3.3259  -3.3258  -3.3201  -3.3168  -3.3164  -3.3150  -3.3148  -3.3120
    -3.3109  -3.3045  -3.3043  -3.3026  -3.3019  -3.3005  -3.2931  -3.2857
    -3.2853  -3.2783  -3.2782  -3.2621  -3.2599  -3.2593  -3.2515  -3.2490
    -3.2488  -3.2486  -3.2477  -3.2262  -3.2226  -3.2187  -3.2178  -3.2145
    -3.2135  -3.2095  -3.2084  -3.2082  -3.2081  -3.2070  -3.2069  -3.2030
    -3.2026  -3.1962  -3.1927  -3.1924  -3.1919  -3.1888  -3.1876  -3.1870
    -3.1805  -3.1780  -3.1777  -3.1655  -3.1648  -3.1646  -3.1636  -3.1581
    -3.1577  -3.1473  -3.1334  -3.1333  -3.1188  -3.1036  -3.1025  -3.0965
    -3.0955  -3.0930  -3.0753  -3.0749  -3.0748  -3.0722  -3.0715  -3.0706
    -3.0569  -3.0562  -3.0508  -3.0130  -3.0032  -3.0008  -2.9486  -2.9486
    -2.9280  -2.9279  -2.9136  -2.8925  -2.8032  -2.8024  -2.7426  -2.6082
    -2.4655  -2.2716  -2.1412  -2.1370  -2.0909  -1.8149  -1.7864  -1.7711
    -1.6470  -1.6452  -1.6366  -0.9053  -0.8679  -0.8635  -0.8435  -0.7431
    -0.6968  -0.6938  -0.6313  -0.3878  -0.1456  -0.1097   0.0960   0.0980
     0.1611   0.1611   0.2032   0.3089   0.5251   0.5572   0.5652   0.6526
     0.6528   0.9955   0.9956   1.1476   1.1488   1.2554   1.4471   1.4494
     1.4546   1.6010   1.6727   2.0995   2.1020   2.2509   2.3243   2.3262
     2.3828   2.3851   2.5953   2.6322   2.6415   2.9409   2.9458   2.9983
     3.0060   3.0676   3.0688   3.1168   3.9303   3.9313   4.2347   4.2363
     4.3433   4.3842   4.3890   4.5375   4.5404   4.7722   4.7748   4.9742
     5.0308   5.1330   5.1739   5.1747   5.5909   5.5959   5.6143   5.6155
     5.6915   5.6986   5.7687   5.7722   5.7753   5.8807   5.8810   6.1780
     6.2358   6.2390   6.3305   6.3326   6.3945   6.6439   6.7417   6.8032
     6.8224   7.0336   7.0353   7.1976   7.1992   7.2905   7.3141   7.3186
     7.3372   7.3815   7.5194   7.5299   7.5359   7.7689   7.8879   7.9105
     7.9406   7.9542   7.9623   7.9683   7.9815   7.9938   8.1067   8.1097
     8.1290   8.1347   8.1623   8.4113   8.4991   8.5127   8.5154   8.5456
     8.6906   8.7339   8.7448   8.7943   8.8137   8.9458   8.9803   9.0620
     9.1411   9.1573   9.1707   9.2469   9.2594   9.2832   9.3591   9.3850
     9.3948   9.4976   9.5731   9.6357   9.6416   9.6725   9.7507   9.7596
     9.8240   9.9015   9.9584  10.0157  10.0963  10.1150  10.1375  10.1832
    10.2332  10.2547  10.2642  10.3013  10.3639  10.4134  10.4321  10.4517
    10.5453  10.5769  10.6675  10.6974  10.7164  10.8382  10.8647  10.8662
    10.8911  10.9865  11.0501  11.0747  11.0967  11.1109  11.1177  11.1243
    11.1425  11.1734  11.2111  11.2361  11.3606  11.4304  11.4966  11.5374
    11.6104  11.6760

     occupation numbers 
     1.0000   1.0000   1.0000   1.0000   1.0000   1.0000   1.0000   1.0000
     1.0000   1.0000   1.0000   1.0000   1.0000   1.0000   1.0000   1.0000
     1.0000   1.0000   1.0000   1.0000   1.0000   1.0000   1.0000   1.0000
     1.0000   1.0000   1.0000   1.0000   1.0000   1.0000   1.0000   1.0000
     1.0000   1.0000   1.0000   1.0000   1.0000   1.0000   1.0000   1.0000
     1.0000   1.0000   1.0000   1.0000   1.0000   1.0000   1.0000   1.0000
     1.0000   1.0000   1.0000   1.0000   1.0000   1.0000   1.0000   1.0000
     1.0000   1.0000   1.0000   1.0000   1.0000   1.0000   1.0000   1.0000
     1.0000   1.0000   1.0000   1.0000   1.0000   1.0000   1.0000   1.0000
     1.0000   1.0000   1.0000   1.0000   1.0000   1.0000   1.0000   1.0000
     1.0000   1.0000   1.0000   1.0000   1.0000   1.0000   1.0000   1.0000
     1.0000   1.0000   1.0000   1.0000   1.0000   1.0000   1.0000   1.0000
     1.0000   1.0000   1.0000   1.0000   1.0000   1.0000   1.0000   1.0000
     1.0000   1.0000   1.0000   1.0000   1.0000   1.0000   1.0000   1.0000
     1.0000   1.0000   1.0000   1.0000   1.0000   1.0000   1.0000   1.0000
     1.0000   1.0000   1.0000   1.0000   1.0000   1.0000   1.0000   1.0000
     1.0000   1.0000   1.0000   1.0000   1.0000   1.0000   1.0000   1.0000
     1.0000   1.0000   1.0000   1.0000   1.0000   1.0000   1.0000   1.0000
     1.0000   1.0000   1.0000   1.0000   1.0000   1.0000   1.0000   1.0000
     1.0000   1.0000   1.0000   1.0000   1.0000   1.0000   1.0000   1.0000
     1.0000   1.0000   1.0000   1.0000   1.0000   1.0000   1.0000   1.0000
     1.0000   1.0000   1.0000   1.0000   1.0000   1.0000   1.0000   1.0000
     1.0000   1.0000   1.0000   1.0000   1.0000   1.0000   1.0000   1.0000
     1.0000   1.0000   1.0000   1.0000   1.0000   1.0000   1.0000   1.0000
     1.0000   1.0000   1.0000   1.0000   1.0000   1.0000   1.0000   1.0000
     1.0000   1.0000   1.0000   1.0000   1.0000   1.0000   1.0000   1.0000
     1.0000   1.0000   1.0000   1.0000   1.0000   1.0000   1.0000   1.0000
     1.0000   1.0000   1.0000   1.0000   1.0000   1.0000   1.0000   1.0000
     1.0000   1.0000   1.0000   1.0000   1.0000   1.0000   1.0000   1.0000
     1.0000   1.0000   1.0000   1.0000   1.0000   1.0000   1.0000   1.0000
     1.0000   1.0000   1.0000   1.0000   1.0000   1.0000   1.0000   1.0000
     1.0000   1.0000   1.0000   1.0000   1.0000   1.0000   1.0000   1.0000
     1.0000   1.0000   1.0000   1.0000   1.0000   1.0000   1.0000   1.0000
     1.0000   1.0000   1.0000   1.0000   1.0000   1.0000   1.0000   1.0000
     1.0000   1.0000   1.0000   1.0000   1.0000   1.0000   1.0000   1.0000
     1.0000   1.0000   1.0000   1.0000   1.0000   1.0000   1.0000   1.0000
     1.0000   1.0000   1.0000   1.0000   1.0000   1.0000   1.0000   1.0000
     1.0000   1.0000   1.0000   1.0000   1.0000   1.0000   1.0000   1.0000
     1.0000   1.0000   1.0000   1.0000   1.0000   1.0000   1.0000   1.0000
     1.0000   1.0000   1.0000   1.0000   1.0000   1.0000   1.0000   1.0000
     1.0000   1.0000   1.0000   1.0000   1.0000   1.0000   1.0000   1.0000
     1.0000   1.0000   1.0000   1.0000   1.0000   1.0000   1.0000   1.0000
     1.0000   1.0000   1.0000   1.0000   1.0000   1.0000   1.0000   1.0000
     1.0000   1.0000   1.0000   1.0000   1.0000   1.0000   1.0000   1.0000
     1.0000   1.0000   1.0000   1.0000   1.0000   1.0000   1.0000   1.0000
     1.0000   1.0000   1.0000   1.0000   1.0000   1.0000   1.0000   1.0000
     1.0000   1.0000   1.0000   1.0000   1.0000   1.0000   1.0000   1.0000
     1.0000   1.0000   1.0000   1.0000   1.0000   1.0000   1.0000   1.0000
     1.0000   1.0000   1.0000   1.0000   1.0000   1.0000   1.0000   1.0000
     1.0000   1.0000   1.0000   1.0000   1.0000   1.0000   1.0000   1.0000
     1.0000   1.0000   1.0000   1.0000   1.0000   1.0000   1.0000   1.0000
     1.0000   1.0000   1.0000   1.0000   1.0000   1.0000   1.0000   1.0000
     1.0000   1.0000   1.0000   1.0000   1.0000   1.0000   1.0000   1.0000
     1.0000   1.0000   1.0000   1.0000   1.0000   1.0000   1.0000   1.0000
     1.0000   1.0000   1.0000   1.0000   1.0000   1.0000   1.0000   1.0000
     1.0000   1.0000   1.0000   1.0000   1.0000   1.0000   1.0000   1.0000
     1.0000   1.0000   1.0000   1.0000   1.0000   1.0000   1.0000   1.0000
     1.0000   1.0000   1.0000   1.0000   1.0000   1.0000   1.0000   1.0000
     1.0000   1.0000   1.0000   1.0000   1.0000   1.0000   1.0000   1.0000
     1.0000   1.0000   1.0000   1.0000   1.0000   1.0000   1.0000   1.0000
     1.0000   1.0000   1.0000   1.0000   1.0000   1.0000   1.0000   1.0000
     1.0000   1.0000   1.0000   1.0000   1.0000   1.0000   1.0000   1.0000
     1.0000   1.0000   1.0000   1.0000   1.0000   1.0000   1.0000   1.0000
     1.0000   1.0000   1.0000   1.0000   1.0000   1.0000   1.0000   1.0000
     1.0000   1.0000   1.0000   1.0000   1.0000   1.0000   1.0000   1.0000
     1.0000   1.0000   1.0000   1.0000   1.0000   1.0000   1.0000   1.0000
     1.0000   1.0000   1.0000   1.0000   1.0000   1.0000   1.0000   1.0000
     1.0000   1.0000   1.0000   1.0000   1.0000   1.0000   1.0000   1.0000
     1.0000   1.0000   1.0000   1.0000   1.0000   1.0000   1.0000   1.0000
     1.0000   1.0000   1.0000   1.0000   1.0000   1.0000   1.0000   1.0000
     1.0000   1.0000   1.0000   1.0000   1.0000   1.0000   1.0000   1.0000
     1.0000   1.0000   1.0000   1.0000   1.0000   1.0000   1.0000   1.0000
     1.0000   1.0000   1.0000   1.0000   1.0000   1.0000   1.0000   1.0000
     1.0000   1.0000   1.0000   1.0000   1.0000   1.0000   1.0000   1.0000
     1.0000   1.0000   1.0000   1.0000   1.0000   1.0000   1.0000   1.0000
     1.0000   1.0000   1.0000   1.0000   1.0000   1.0000   1.0000   1.0000
     1.0000   1.0000   1.0000   1.0000   1.0000   1.0000   1.0000   1.0000
     1.0000   1.0000   1.0000   1.0000   1.0000   1.0000   1.0000   1.0000
     1.0000   1.0000   1.0000   1.0000   1.0000   1.0000   1.0000   1.0000
     1.0000   1.0000   1.0000   1.0000   1.0000   1.0000   1.0000   1.0000
     1.0000   1.0000   1.0000   1.0000   1.0000   1.0000   1.0000   1.0000
     1.0000   1.0000   1.0000   1.0000   1.0000   1.0000   1.0000   1.0000
     1.0000   1.0001   1.0001   1.0004   0.6296   0.6269   0.0566   0.0555
     0.0137   0.0074   0.0069   0.0005   0.0005   0.0000   0.0000   0.0000
     0.0000   0.0000   0.0000   0.0000   0.0000   0.0000   0.0000   0.0000
     0.0000   0.0000   0.0000   0.0000   0.0000   0.0000   0.0000   0.0000
     0.0000   0.0000   0.0000   0.0000   0.0000   0.0000   0.0000   0.0000
     0.0000   0.0000   0.0000   0.0000   0.0000   0.0000   0.0000   0.0000
     0.0000   0.0000   0.0000   0.0000   0.0000   0.0000   0.0000   0.0000
     0.0000   0.0000   0.0000   0.0000   0.0000   0.0000   0.0000   0.0000
     0.0000   0.0000   0.0000   0.0000   0.0000   0.0000   0.0000   0.0000
     0.0000   0.0000   0.0000   0.0000   0.0000   0.0000   0.0000   0.0000
     0.0000   0.0000   0.0000   0.0000   0.0000   0.0000   0.0000   0.0000
     0.0000   0.0000   0.0000   0.0000   0.0000   0.0000   0.0000   0.0000
     0.0000   0.0000   0.0000   0.0000   0.0000   0.0000   0.0000   0.0000
     0.0000   0.0000   0.0000   0.0000   0.0000   0.0000   0.0000   0.0000
     0.0000   0.0000   0.0000   0.0000   0.0000   0.0000   0.0000   0.0000
     0.0000   0.0000   0.0000   0.0000   0.0000   0.0000   0.0000   0.0000
     0.0000   0.0000   0.0000   0.0000   0.0000   0.0000   0.0000   0.0000
     0.0000   0.0000

          k = 0.3333 0.1925 0.0000 ( 90604 PWs)   bands (ev):

  -122.8547-122.8539-122.8530-122.8527-122.8521-122.8520-122.8514-122.8509
  -122.8503-122.8497-122.8488-122.8485-122.8482-122.8479-122.8475-122.8470
  -122.8202-122.8149-122.8128-122.8121-122.8115-122.8071-122.8058-122.8055
  -122.8045-122.8035-122.8028-122.8027-122.8016-122.8011-122.8007-122.8000
  -122.6562-122.6505-122.6499-122.6490-122.6489-122.6487-122.6483-122.6481
  -122.6478-122.6475-122.6471-122.6468-122.6466-122.6463-122.6459-122.6455
  -122.6446-122.6437-122.6319-122.6302-122.6283-122.6266-122.6247-122.6237
  -122.6232-122.6226-122.6224-122.6210-122.6204-122.6201-122.6193-122.6185
   -77.0166 -77.0164 -77.0156 -77.0134 -77.0134 -77.0119 -77.0108 -77.0084
   -77.0082 -77.0082 -77.0062 -77.0053 -77.0044 -77.0042 -77.0042 -77.0039
   -77.0033 -77.0031 -77.0025 -77.0020 -77.0016 -77.0016 -77.0013 -77.0010
   -77.0000 -76.9996 -76.9993 -76.9990 -76.9985 -76.9979 -76.9968 -76.9961
   -76.9956 -76.9954 -76.9939 -76.9931 -76.9926 -76.9914 -76.9906 -76.9897
   -76.9893 -76.9887 -76.9876 -76.9862 -76.9855 -76.9838 -76.9832 -76.9821
   -76.9775 -76.9765 -76.9736 -76.9712 -76.9711 -76.9701 -76.9685 -76.9662
   -76.9659 -76.9643 -76.9638 -76.9637 -76.9631 -76.9631 -76.9624 -76.9609
   -76.9594 -76.9581 -76.9580 -76.9568 -76.9568 -76.9566 -76.9561 -76.9557
   -76.9546 -76.9539 -76.9539 -76.9537 -76.9528 -76.9526 -76.9522 -76.9517
   -76.9515 -76.9510 -76.9507 -76.9492 -76.9483 -76.9463 -76.9455 -76.9448
   -76.9444 -76.9435 -76.9415 -76.9408 -76.9400 -76.9383 -76.9371 -76.9363
   -76.8166 -76.8105 -76.8105 -76.8095 -76.8094 -76.8094 -76.8087 -76.8076
   -76.8075 -76.8074 -76.8072 -76.8070 -76.8068 -76.8066 -76.8065 -76.8061
   -76.8058 -76.8057 -76.8054 -76.8054 -76.8052 -76.8048 -76.8044 -76.8040
   -76.8038 -76.8031 -76.8028 -76.8027 -76.8025 -76.8021 -76.7987 -76.7986
   -76.7974 -76.7957 -76.7956 -76.7941 -76.7922 -76.7907 -76.7906 -76.7903
   -76.7899 -76.7897 -76.7888 -76.7876 -76.7873 -76.7872 -76.7867 -76.7866
   -76.7861 -76.7850 -76.7849 -76.7847 -76.7845 -76.7838 -76.7834 -76.7833
   -76.7829 -76.7826 -76.7825 -76.7823 -76.7823 -76.7819 -76.7809 -76.7805
   -76.7805 -76.7804 -76.7801 -76.7801 -76.7794 -76.7793 -76.7784 -76.7783
   -76.7779 -76.7776 -76.7772 -76.7765 -76.7761 -76.7742 -76.7726 -76.7701
   -76.7692 -76.7680 -76.7663 -76.7653 -76.7641 -76.7625 -76.7616 -76.7604
   -76.7599 -76.7596 -76.7575 -76.7570 -76.7557 -76.7545 -76.7530 -76.7521
   -15.4999 -14.0968 -13.2718 -10.9075 -10.8073  -7.8859  -7.6211  -6.2696
    -5.7329  -5.6624  -5.4906  -5.1480  -5.1234  -5.1164  -5.1037  -4.9581
    -4.8270  -4.7629  -4.6612  -4.6200  -4.6157  -4.6156  -4.6032  -4.5685
    -4.5652  -4.5614  -4.5604  -4.5581  -4.5567  -4.5323  -4.5260  -4.4744
    -4.4664  -4.4410  -4.4410  -4.4227  -4.4217  -4.4126  -4.4124  -4.3944
    -4.3881  -4.3653  -4.3650  -4.3516  -4.3512  -4.3485  -4.3480  -4.3241
    -4.3233  -4.3232  -4.3119  -4.3116  -4.2992  -4.2989  -4.2938  -4.2921
    -4.2917  -4.2770  -4.2770  -4.2598  -4.2572  -4.2479  -4.2471  -4.2416
    -4.2414  -4.2258  -4.2231  -4.2227  -4.2211  -4.2206  -4.2085  -4.2077
    -4.2068  -4.1748  -4.1746  -4.1699  -4.1685  -4.1525  -4.1515  -4.1490
    -4.1480  -4.1435  -4.1419  -4.1413  -4.0963  -4.0953  -4.0916  -4.0906
    -4.0865  -4.0687  -4.0668  -4.0658  -4.0654  -4.0543  -4.0542  -4.0452
    -4.0265  -4.0257  -4.0198  -4.0173  -4.0167  -4.0165  -4.0114  -4.0106
    -4.0082  -3.9904  -3.9896  -3.9812  -3.9810  -3.9795  -3.9756  -3.9733
    -3.9723  -3.9720  -3.9707  -3.9603  -3.9597  -3.9497  -3.9484  -3.9472
    -3.9293  -3.9077  -3.9007  -3.8983  -3.8917  -3.8799  -3.8786  -3.8764
    -3.8756  -3.8738  -3.8685  -3.8678  -3.8646  -3.8629  -3.8623  -3.8496
    -3.8382  -3.8381  -3.8325  -3.8322  -3.8136  -3.8129  -3.7994  -3.7951
    -3.7913  -3.7881  -3.7866  -3.7838  -3.7830  -3.7646  -3.7633  -3.7585
    -3.7564  -3.7461  -3.7446  -3.7412  -3.7212  -3.7209  -3.7191  -3.7169
    -3.7153  -3.7071  -3.7034  -3.6933  -3.6926  -3.6920  -3.6900  -3.6892
    -3.6623  -3.6620  -3.6594  -3.6590  -3.6564  -3.6407  -3.6389  -3.6371
    -3.6367  -3.6189  -3.6139  -3.6047  -3.6044  -3.5852  -3.5846  -3.5838
    -3.5828  -3.5826  -3.5790  -3.5788  -3.5759  -3.5735  -3.5722  -3.5636
    -3.5631  -3.5519  -3.5515  -3.5465  -3.5458  -3.5445  -3.5438  -3.5329
    -3.5325  -3.5244  -3.5236  -3.5223  -3.5212  -3.5198  -3.5125  -3.5114
    -3.5046  -3.4987  -3.4986  -3.4868  -3.4854  -3.4806  -3.4800  -3.4793
    -3.4715  -3.4710  -3.4678  -3.4664  -3.4641  -3.4627  -3.4622  -3.4580
    -3.4577  -3.4413  -3.4399  -3.4392  -3.4382  -3.4380  -3.4374  -3.4337
    -3.4326  -3.4319  -3.4225  -3.4050  -3.4044  -3.4035  -3.4010  -3.4001
    -3.3829  -3.3820  -3.3734  -3.3732  -3.3504  -3.3475  -3.3466  -3.3432
    -3.3420  -3.3415  -3.3407  -3.3376  -3.3353  -3.3344  -3.3339  -3.3332
    -3.3259  -3.3259  -3.3203  -3.3168  -3.3164  -3.3149  -3.3148  -3.3120
    -3.3109  -3.3047  -3.3044  -3.3026  -3.3020  -3.3002  -3.2931  -3.2857
    -3.2853  -3.2783  -3.2782  -3.2621  -3.2599  -3.2594  -3.2515  -3.2490
    -3.2489  -3.2486  -3.2478  -3.2261  -3.2226  -3.2188  -3.2177  -3.2143
    -3.2135  -3.2095  -3.2084  -3.2083  -3.2080  -3.2070  -3.2068  -3.2030
    -3.2028  -3.1963  -3.1928  -3.1925  -3.1919  -3.1889  -3.1876  -3.1871
    -3.1805  -3.1779  -3.1777  -3.1654  -3.1647  -3.1645  -3.1635  -3.1581
    -3.1576  -3.1471  -3.1334  -3.1333  -3.1188  -3.1037  -3.1025  -3.0968
    -3.0955  -3.0929  -3.0753  -3.0749  -3.0747  -3.0721  -3.0715  -3.0706
    -3.0569  -3.0561  -3.0509  -3.0130  -3.0031  -3.0008  -2.9486  -2.9486
    -2.9282  -2.9278  -2.9136  -2.8925  -2.8032  -2.8024  -2.7427  -2.6082
    -2.4655  -2.2717  -2.1411  -2.1372  -2.0909  -1.8148  -1.7864  -1.7711
    -1.6470  -1.6453  -1.6366  -0.9052  -0.8678  -0.8637  -0.8434  -0.7431
    -0.6967  -0.6939  -0.6312  -0.3879  -0.1456  -0.1097   0.0959   0.0980
     0.1610   0.1612   0.2032   0.3089   0.5252   0.5574   0.5651   0.6526
     0.6527   0.9954   0.9957   1.1478   1.1486   1.2554   1.4472   1.4494
     1.4545   1.6013   1.6727   2.0996   2.1020   2.2509   2.3243   2.3263
     2.3828   2.3850   2.5962   2.6319   2.6400   2.9411   2.9456   2.9981
     3.0066   3.0676   3.0680   3.1172   3.9304   3.9309   4.2349   4.2365
     4.3433   4.3842   4.3892   4.5380   4.5408   4.7740   4.7748   4.9742
     5.0304   5.1320   5.1745   5.1747   5.5909   5.5959   5.6150   5.6156
     5.6915   5.6987   5.7672   5.7714   5.7746   5.8809   5.8815   6.1784
     6.2350   6.2387   6.3312   6.3326   6.3944   6.6425   6.7407   6.8029
     6.8226   7.0331   7.0349   7.1975   7.1991   7.2888   7.3162   7.3209
     7.3379   7.3825   7.5230   7.5289   7.5331   7.7685   7.8881   7.9102
     7.9355   7.9552   7.9615   7.9684   7.9814   7.9951   8.1069   8.1103
     8.1293   8.1346   8.1603   8.4120   8.5010   8.5132   8.5154   8.5453
     8.6891   8.7393   8.7458   8.7952   8.8189   8.9437   8.9744   9.0604
     9.1393   9.1601   9.1711   9.2505   9.2597   9.2873   9.3538   9.3832
     9.3976   9.4981   9.5713   9.6358   9.6415   9.6714   9.7512   9.7593
     9.8266   9.9016   9.9574  10.0171  10.1019  10.1149  10.1378  10.1795
    10.2323  10.2551  10.2638  10.2978  10.3614  10.4169  10.4269  10.4502
    10.5485  10.5668  10.6670  10.6970  10.7145  10.8460  10.8651  10.8660
    10.8878  10.9813  11.0461  11.0780  11.0984  11.1090  11.1167  11.1212
    11.1664  11.1757  11.1918  11.2383  11.3586  11.4324  11.4996  11.5374
    11.6255  11.6636

     occupation numbers 
     1.0000   1.0000   1.0000   1.0000   1.0000   1.0000   1.0000   1.0000
     1.0000   1.0000   1.0000   1.0000   1.0000   1.0000   1.0000   1.0000
     1.0000   1.0000   1.0000   1.0000   1.0000   1.0000   1.0000   1.0000
     1.0000   1.0000   1.0000   1.0000   1.0000   1.0000   1.0000   1.0000
     1.0000   1.0000   1.0000   1.0000   1.0000   1.0000   1.0000   1.0000
     1.0000   1.0000   1.0000   1.0000   1.0000   1.0000   1.0000   1.0000
     1.0000   1.0000   1.0000   1.0000   1.0000   1.0000   1.0000   1.0000
     1.0000   1.0000   1.0000   1.0000   1.0000   1.0000   1.0000   1.0000
     1.0000   1.0000   1.0000   1.0000   1.0000   1.0000   1.0000   1.0000
     1.0000   1.0000   1.0000   1.0000   1.0000   1.0000   1.0000   1.0000
     1.0000   1.0000   1.0000   1.0000   1.0000   1.0000   1.0000   1.0000
     1.0000   1.0000   1.0000   1.0000   1.0000   1.0000   1.0000   1.0000
     1.0000   1.0000   1.0000   1.0000   1.0000   1.0000   1.0000   1.0000
     1.0000   1.0000   1.0000   1.0000   1.0000   1.0000   1.0000   1.0000
     1.0000   1.0000   1.0000   1.0000   1.0000   1.0000   1.0000   1.0000
     1.0000   1.0000   1.0000   1.0000   1.0000   1.0000   1.0000   1.0000
     1.0000   1.0000   1.0000   1.0000   1.0000   1.0000   1.0000   1.0000
     1.0000   1.0000   1.0000   1.0000   1.0000   1.0000   1.0000   1.0000
     1.0000   1.0000   1.0000   1.0000   1.0000   1.0000   1.0000   1.0000
     1.0000   1.0000   1.0000   1.0000   1.0000   1.0000   1.0000   1.0000
     1.0000   1.0000   1.0000   1.0000   1.0000   1.0000   1.0000   1.0000
     1.0000   1.0000   1.0000   1.0000   1.0000   1.0000   1.0000   1.0000
     1.0000   1.0000   1.0000   1.0000   1.0000   1.0000   1.0000   1.0000
     1.0000   1.0000   1.0000   1.0000   1.0000   1.0000   1.0000   1.0000
     1.0000   1.0000   1.0000   1.0000   1.0000   1.0000   1.0000   1.0000
     1.0000   1.0000   1.0000   1.0000   1.0000   1.0000   1.0000   1.0000
     1.0000   1.0000   1.0000   1.0000   1.0000   1.0000   1.0000   1.0000
     1.0000   1.0000   1.0000   1.0000   1.0000   1.0000   1.0000   1.0000
     1.0000   1.0000   1.0000   1.0000   1.0000   1.0000   1.0000   1.0000
     1.0000   1.0000   1.0000   1.0000   1.0000   1.0000   1.0000   1.0000
     1.0000   1.0000   1.0000   1.0000   1.0000   1.0000   1.0000   1.0000
     1.0000   1.0000   1.0000   1.0000   1.0000   1.0000   1.0000   1.0000
     1.0000   1.0000   1.0000   1.0000   1.0000   1.0000   1.0000   1.0000
     1.0000   1.0000   1.0000   1.0000   1.0000   1.0000   1.0000   1.0000
     1.0000   1.0000   1.0000   1.0000   1.0000   1.0000   1.0000   1.0000
     1.0000   1.0000   1.0000   1.0000   1.0000   1.0000   1.0000   1.0000
     1.0000   1.0000   1.0000   1.0000   1.0000   1.0000   1.0000   1.0000
     1.0000   1.0000   1.0000   1.0000   1.0000   1.0000   1.0000   1.0000
     1.0000   1.0000   1.0000   1.0000   1.0000   1.0000   1.0000   1.0000
     1.0000   1.0000   1.0000   1.0000   1.0000   1.0000   1.0000   1.0000
     1.0000   1.0000   1.0000   1.0000   1.0000   1.0000   1.0000   1.0000
     1.0000   1.0000   1.0000   1.0000   1.0000   1.0000   1.0000   1.0000
     1.0000   1.0000   1.0000   1.0000   1.0000   1.0000   1.0000   1.0000
     1.0000   1.0000   1.0000   1.0000   1.0000   1.0000   1.0000   1.0000
     1.0000   1.0000   1.0000   1.0000   1.0000   1.0000   1.0000   1.0000
     1.0000   1.0000   1.0000   1.0000   1.0000   1.0000   1.0000   1.0000
     1.0000   1.0000   1.0000   1.0000   1.0000   1.0000   1.0000   1.0000
     1.0000   1.0000   1.0000   1.0000   1.0000   1.0000   1.0000   1.0000
     1.0000   1.0000   1.0000   1.0000   1.0000   1.0000   1.0000   1.0000
     1.0000   1.0000   1.0000   1.0000   1.0000   1.0000   1.0000   1.0000
     1.0000   1.0000   1.0000   1.0000   1.0000   1.0000   1.0000   1.0000
     1.0000   1.0000   1.0000   1.0000   1.0000   1.0000   1.0000   1.0000
     1.0000   1.0000   1.0000   1.0000   1.0000   1.0000   1.0000   1.0000
     1.0000   1.0000   1.0000   1.0000   1.0000   1.0000   1.0000   1.0000
     1.0000   1.0000   1.0000   1.0000   1.0000   1.0000   1.0000   1.0000
     1.0000   1.0000   1.0000   1.0000   1.0000   1.0000   1.0000   1.0000
     1.0000   1.0000   1.0000   1.0000   1.0000   1.0000   1.0000   1.0000
     1.0000   1.0000   1.0000   1.0000   1.0000   1.0000   1.0000   1.0000
     1.0000   1.0000   1.0000   1.0000   1.0000   1.0000   1.0000   1.0000
     1.0000   1.0000   1.0000   1.0000   1.0000   1.0000   1.0000   1.0000
     1.0000   1.0000   1.0000   1.0000   1.0000   1.0000   1.0000   1.0000
     1.0000   1.0000   1.0000   1.0000   1.0000   1.0000   1.0000   1.0000
     1.0000   1.0000   1.0000   1.0000   1.0000   1.0000   1.0000   1.0000
     1.0000   1.0000   1.0000   1.0000   1.0000   1.0000   1.0000   1.0000
     1.0000   1.0000   1.0000   1.0000   1.0000   1.0000   1.0000   1.0000
     1.0000   1.0000   1.0000   1.0000   1.0000   1.0000   1.0000   1.0000
     1.0000   1.0000   1.0000   1.0000   1.0000   1.0000   1.0000   1.0000
     1.0000   1.0000   1.0000   1.0000   1.0000   1.0000   1.0000   1.0000
     1.0000   1.0000   1.0000   1.0000   1.0000   1.0000   1.0000   1.0000
     1.0000   1.0000   1.0000   1.0000   1.0000   1.0000   1.0000   1.0000
     1.0000   1.0000   1.0000   1.0000   1.0000   1.0000   1.0000   1.0000
     1.0000   1.0000   1.0000   1.0000   1.0000   1.0000   1.0000   1.0000
     1.0000   1.0000   1.0000   1.0000   1.0000   1.0000   1.0000   1.0000
     1.0000   1.0000   1.0000   1.0000   1.0000   1.0000   1.0000   1.0000
     1.0000   1.0000   1.0000   1.0000   1.0000   1.0000   1.0000   1.0000
     1.0000   1.0000   1.0000   1.0000   1.0000   1.0000   1.0000   1.0000
     1.0000   1.0000   1.0000   1.0000   1.0000   1.0000   1.0000   1.0000
     1.0000   1.0000   1.0000   1.0000   1.0000   1.0000   1.0000   1.0000
[...]
     atom   77 type  4   force =     0.00000000    0.00000000    0.00000000
     atom   78 type  4   force =     0.00000000    0.00000000    0.00000000
     atom   79 type  4   force =     0.00000000    0.00000000    0.00000000
     The Hubbard contrib.    to forces
     atom    1 type  1   force =     0.00000000    0.00000000    0.00000000
     atom    2 type  1   force =     0.00000000    0.00000000    0.00000000
     atom    3 type  1   force =     0.00000000    0.00000000    0.00000000
     atom    4 type  1   force =     0.00000000    0.00000000    0.00000000
     atom    5 type  1   force =     0.00000000    0.00000000    0.00000000
     atom    6 type  1   force =     0.00000000    0.00000000    0.00000000
     atom    7 type  1   force =     0.00000000    0.00000000    0.00000000
     atom    8 type  1   force =     0.00000000    0.00000000    0.00000000
     atom    9 type  1   force =     0.00000000    0.00000000    0.00000000
     atom   10 type  1   force =     0.00000000    0.00000000    0.00000000
     atom   11 type  1   force =     0.00000000    0.00000000    0.00000000
     atom   12 type  1   force =     0.00000000    0.00000000    0.00000000
     atom   13 type  1   force =     0.00000000    0.00000000    0.00000000
     atom   14 type  1   force =     0.00000000    0.00000000    0.00000000
     atom   15 type  1   force =     0.00000000    0.00000000    0.00000000
     atom   16 type  1   force =     0.00000000    0.00000000    0.00000000
     atom   17 type  1   force =     0.00000000    0.00000000    0.00000000
     atom   18 type  1   force =     0.00000000    0.00000000    0.00000000
     atom   19 type  1   force =     0.00000000    0.00000000    0.00000000
     atom   20 type  1   force =     0.00000000    0.00000000    0.00000000
     atom   21 type  1   force =     0.00000000    0.00000000    0.00000000
     atom   22 type  1   force =     0.00000000    0.00000000    0.00000000
     atom   23 type  1   force =     0.00000000    0.00000000    0.00000000
     atom   24 type  1   force =     0.00000000    0.00000000    0.00000000
     atom   25 type  1   force =     0.00000000    0.00000000    0.00000000
     atom   26 type  1   force =     0.00000000    0.00000000    0.00000000
     atom   27 type  1   force =     0.00000000    0.00000000    0.00000000
     atom   28 type  1   force =     0.00000000    0.00000000    0.00000000
     atom   29 type  1   force =     0.00000000    0.00000000    0.00000000
     atom   30 type  1   force =     0.00000000    0.00000000    0.00000000
     atom   31 type  1   force =     0.00000000    0.00000000    0.00000000
     atom   32 type  1   force =     0.00000000    0.00000000    0.00000000
     atom   33 type  1   force =     0.00000000    0.00000000    0.00000000
     atom   34 type  1   force =     0.00000000    0.00000000    0.00000000
     atom   35 type  1   force =     0.00000000    0.00000000    0.00000000
     atom   36 type  1   force =     0.00000000    0.00000000    0.00000000
     atom   37 type  1   force =     0.00000000    0.00000000    0.00000000
     atom   38 type  1   force =     0.00000000    0.00000000    0.00000000
     atom   39 type  1   force =     0.00000000    0.00000000    0.00000000
     atom   40 type  1   force =     0.00000000    0.00000000    0.00000000
     atom   41 type  1   force =     0.00000000    0.00000000    0.00000000
     atom   42 type  1   force =     0.00000000    0.00000000    0.00000000
     atom   43 type  1   force =     0.00000000    0.00000000    0.00000000
     atom   44 type  1   force =     0.00000000    0.00000000    0.00000000
     atom   45 type  1   force =     0.00000000    0.00000000    0.00000000
     atom   46 type  1   force =     0.00000000    0.00000000    0.00000000
     atom   47 type  1   force =     0.00000000    0.00000000    0.00000000
     atom   48 type  1   force =     0.00000000    0.00000000    0.00000000
     atom   49 type  1   force =     0.00000000    0.00000000    0.00000000
     atom   50 type  1   force =     0.00000000    0.00000000    0.00000000
     atom   51 type  1   force =     0.00000000    0.00000000    0.00000000
     atom   52 type  1   force =     0.00000000    0.00000000    0.00000000
     atom   53 type  1   force =     0.00000000    0.00000000    0.00000000
     atom   54 type  1   force =     0.00000000    0.00000000    0.00000000
     atom   55 type  1   force =     0.00000000    0.00000000    0.00000000
     atom   56 type  1   force =     0.00000000    0.00000000    0.00000000
     atom   57 type  1   force =     0.00000000    0.00000000    0.00000000
     atom   58 type  1   force =     0.00000000    0.00000000    0.00000000
     atom   59 type  1   force =     0.00000000    0.00000000    0.00000000
     atom   60 type  1   force =     0.00000000    0.00000000    0.00000000
     atom   61 type  1   force =     0.00000000    0.00000000    0.00000000
     atom   62 type  1   force =     0.00000000    0.00000000    0.00000000
     atom   63 type  1   force =     0.00000000    0.00000000    0.00000000
     atom   64 type  1   force =     0.00000000    0.00000000    0.00000000
     atom   65 type  2   force =     0.00000000    0.00000000    0.00000000
     atom   66 type  2   force =     0.00000000    0.00000000    0.00000000
     atom   67 type  2   force =     0.00000000    0.00000000    0.00000000
     atom   68 type  2   force =     0.00000000    0.00000000    0.00000000
     atom   69 type  2   force =     0.00000000    0.00000000    0.00000000
     atom   70 type  2   force =     0.00000000    0.00000000    0.00000000
     atom   71 type  2   force =     0.00000000    0.00000000    0.00000000
     atom   72 type  3   force =     0.00000000    0.00000000    0.00000000
     atom   73 type  3   force =     0.00000000    0.00000000    0.00000000
     atom   74 type  4   force =     0.00000000    0.00000000    0.00000000
     atom   75 type  4   force =     0.00000000    0.00000000    0.00000000
     atom   76 type  4   force =     0.00000000    0.00000000    0.00000000
     atom   77 type  4   force =     0.00000000    0.00000000    0.00000000
     atom   78 type  4   force =     0.00000000    0.00000000    0.00000000
     atom   79 type  4   force =     0.00000000    0.00000000    0.00000000
     The SCF correction term to forces
     atom    1 type  1   force =    -0.00018504   -0.00026554    0.00068703
     atom    2 type  1   force =     0.00019107   -0.00028470    0.00066292
     atom    3 type  1   force =    -0.00018795   -0.00049445   -0.00044551
     atom    4 type  1   force =     0.00018536   -0.00028666   -0.00040834
     atom    5 type  1   force =    -0.00041501   -0.00015346    0.00063154
     atom    6 type  1   force =     0.00040690   -0.00044016    0.00019596
     atom    7 type  1   force =    -0.00069946   -0.00034654   -0.00042969
     atom    8 type  1   force =     0.00068151   -0.00070894   -0.00019495
     atom    9 type  1   force =     0.00001827    0.00015380    0.00073132
     atom   10 type  1   force =    -0.00003460    0.00037597    0.00007141
     atom   11 type  1   force =    -0.00018671    0.00027819   -0.00045986
     atom   12 type  1   force =     0.00018423    0.00045847   -0.00020941
     atom   13 type  1   force =     0.00022553    0.00006191    0.00076836
     atom   14 type  1   force =    -0.00024443    0.00053828    0.00053832
     atom   15 type  1   force =     0.00032475    0.00012660   -0.00046688
     atom   16 type  1   force =    -0.00034566    0.00095900   -0.00041489
     atom   17 type  1   force =    -0.00000759   -0.00064750    0.00057667
     atom   18 type  1   force =     0.00000239    0.00010337    0.00076444
     atom   19 type  1   force =    -0.00000586   -0.00100225   -0.00038712
     atom   20 type  1   force =     0.00000759    0.00020481   -0.00045751
     atom   21 type  1   force =    -0.00042863   -0.00041661    0.00021408
     atom   22 type  1   force =     0.00043462   -0.00016477    0.00061983
     atom   23 type  1   force =    -0.00050562   -0.00081818   -0.00026775
     atom   24 type  1   force =     0.00052773   -0.00023443   -0.00036861
     atom   25 type  1   force =    -0.00064190    0.00025977    0.00039638
     atom   26 type  1   force =     0.00066938    0.00027981    0.00038966
     atom   27 type  1   force =    -0.00104743    0.00038023   -0.00037776
     atom   28 type  1   force =     0.00104505    0.00038801   -0.00028331
     atom   29 type  1   force =    -0.00021747    0.00004628    0.00077069
     atom   30 type  1   force =     0.00023441    0.00055606    0.00054921
     atom   31 type  1   force =    -0.00050968    0.00023145   -0.00050214
     atom   32 type  1   force =     0.00053600    0.00085631   -0.00039328
     atom   33 type  1   force =    -0.00000541   -0.00053510   -0.00013673
     atom   34 type  1   force =    -0.00001282    0.00031045   -0.00024244
     atom   35 type  1   force =     0.00001548   -0.00031884   -0.00053464
     atom   36 type  1   force =    -0.00002466    0.00030422   -0.00042609
     atom   37 type  1   force =    -0.00069498   -0.00067011   -0.00030667
     atom   38 type  1   force =     0.00069677   -0.00058907   -0.00022639
     atom   39 type  1   force =    -0.00037649   -0.00044130   -0.00022133
     atom   40 type  1   force =     0.00040431   -0.00030514   -0.00031834
     atom   41 type  1   force =    -0.00078240    0.00011932   -0.00030517
     atom   42 type  1   force =     0.00074590    0.00009702   -0.00039001
     atom   43 type  1   force =    -0.00052747    0.00001363   -0.00027382
     atom   44 type  1   force =     0.00052256    0.00000102    0.00013753
     atom   45 type  1   force =    -0.00005556    0.00020258   -0.00012499
     atom   46 type  1   force =     0.00006375    0.00103245   -0.00040759
     atom   47 type  1   force =    -0.00015042    0.00014077   -0.00059350
     atom   48 type  1   force =     0.00013925    0.00057071    0.00002025
     atom   49 type  1   force =    -0.00004077   -0.00048987   -0.00016982
     atom   50 type  1   force =     0.00005676    0.00026367   -0.00020612
     atom   51 type  1   force =    -0.00005063   -0.00017433   -0.00051115
     atom   52 type  1   force =     0.00006013    0.00015580   -0.00045576
     atom   53 type  1   force =     0.00001668   -0.00105369   -0.00031978
     atom   54 type  1   force =    -0.00001805   -0.00017166   -0.00021190
     atom   55 type  1   force =     0.00008664   -0.00062159   -0.00003248
     atom   56 type  1   force =    -0.00011198   -0.00009702   -0.00048739
     atom   57 type  1   force =    -0.00066621    0.00007439   -0.00049869
     atom   58 type  1   force =     0.00067944    0.00014106   -0.00020433
     atom   59 type  1   force =    -0.00028484   -0.00002851    0.00024956
     atom   60 type  1   force =     0.00030753    0.00004243   -0.00041460
     atom   61 type  1   force =    -0.00076883    0.00065179   -0.00033363
     atom   62 type  1   force =     0.00075861    0.00062228   -0.00019906
     atom   63 type  1   force =    -0.00044642    0.00042044   -0.00020996
     atom   64 type  1   force =     0.00046081    0.00031121   -0.00037486
     atom   65 type  2   force =    -0.00006448    0.00003745    0.00012299
     atom   66 type  2   force =     0.00005778   -0.00003290   -0.00010397
     atom   67 type  2   force =     0.00003596   -0.00013594   -0.00015506
     atom   68 type  2   force =     0.00013612    0.00003730   -0.00015493
     atom   69 type  2   force =     0.00000740   -0.00007911   -0.00007104
     atom   70 type  2   force =     0.00007278    0.00003351   -0.00007071
     atom   71 type  2   force =    -0.00003498    0.00002037    0.00006184
     atom   72 type  3   force =    -0.00007146    0.00004191    0.00014053
     atom   73 type  3   force =    -0.00007996    0.00004672    0.00016175
     atom   74 type  4   force =     0.00000263    0.00001332    0.00001219
     atom   75 type  4   force =    -0.00000997   -0.00000872    0.00001213
     atom   76 type  4   force =    -0.00000133   -0.00001839   -0.00001126
     atom   77 type  4   force =     0.00001529    0.00001030   -0.00001128
     atom   78 type  4   force =    -0.00001259   -0.00001779    0.00000536
     atom   79 type  4   force =     0.00000915    0.00001977    0.00000559

     Total force =     0.052058     Total SCF correction =     0.006061
     SCF correction compared to forces is large: reduce conv_thr to get better values


     Computing stress (Cartesian axis) and pressure


     negative rho (up, down):  3.899E-03 0.000E+00
          total   stress  (Ry/bohr**3)                   (kbar)     P=       -2.10
  -0.00001676  -0.00000187   0.00000306           -2.47       -0.28        0.45
  -0.00000187  -0.00001885  -0.00000136           -0.28       -2.77       -0.20
   0.00000306  -0.00000136  -0.00000715            0.45       -0.20       -1.05

     kinetic stress (kbar)  17149.49    -19.11     32.85
                              -19.11  17127.65    -19.11
                               32.85    -19.11  17208.88

     local   stress (kbar)**********   -335.65   1281.17
                             -335.65**********   -743.01
                             1281.17   -743.011456482.81

     nonloc. stress (kbar)  -1608.33      0.86     -3.61
                                0.86  -1607.31      2.10
                               -3.61      2.10  -1669.08

     hartree stress (kbar) 756659.37    115.03   -503.07
                              115.03 756791.72    291.43
                             -503.07    291.43-681198.34

     exc-cor stress (kbar)  -8422.15      0.85     -1.81
                                0.85  -8421.17      1.05
                               -1.81      1.05  -8431.79

     corecor stress (kbar)    -83.18     -0.25      0.56
                               -0.25    -83.47     -0.33
                                0.56     -0.33    -83.62

     ewald   stress (kbar) 676331.03    237.99   -805.64
                              237.99 676604.84    467.66
                             -805.64    467.66-782309.91

     hubbard stress (kbar)      0.00      0.00      0.00
                                0.00      0.00      0.00
                                0.00      0.00      0.00

     DFT-D   stress (kbar)      0.00      0.00      0.00
                                0.00      0.00      0.00
                                0.00      0.00      0.00

     XDM     stress (kbar)      0.00      0.00      0.00
                                0.00      0.00      0.00
                                0.00      0.00      0.00

     dft-nl  stress (kbar)      0.00      0.00      0.00
                                0.00      0.00      0.00
                                0.00      0.00      0.00

     TS-vdW  stress (kbar)      0.00      0.00      0.00
                                0.00      0.00      0.00
                                0.00      0.00      0.00

     MDB     stress (kbar)      0.00      0.00      0.00
                                0.00      0.00      0.00
                                0.00      0.00      0.00

     3D-RISM stress (kbar)      0.00      0.00      0.00
                                0.00      0.00      0.00
                                0.00      0.00      0.00


     Writing all to output data dir ./tmp/Zn002_4x4x2_primitive_14Avacumn_bridgesite_tilted_parallel_ABN.save/ :
     XML data file, charge density, pseudopotentials, collected wavefunctions

     init_run     :    157.25s CPU    158.87s WALL (       1 calls)
     electrons    :  13261.78s CPU  13394.42s WALL (       1 calls)
     forces       :    128.01s CPU    128.58s WALL (       1 calls)
     stress       :    363.32s CPU    364.57s WALL (       1 calls)

     Called by init_run:
     wfcinit      :    156.19s CPU    157.76s WALL (       1 calls)
     wfcinit:atom :      0.09s CPU      0.13s WALL (       5 calls)
     wfcinit:wfcr :    155.04s CPU    156.50s WALL (       5 calls)
     potinit      :      0.11s CPU      0.12s WALL (       1 calls)
     hinit0       :      0.06s CPU      0.07s WALL (       1 calls)

     Called by electrons:
     c_bands      :  12471.12s CPU  12591.41s WALL (      22 calls)
     sum_band     :    772.91s CPU    784.83s WALL (      22 calls)
     v_of_rho     :      0.89s CPU      0.94s WALL (      22 calls)
     v_h          :      0.05s CPU      0.06s WALL (      22 calls)
     v_xc         :      0.91s CPU      0.96s WALL (      24 calls)
     newd         :     15.94s CPU     16.30s WALL (      22 calls)
     PAW_pot      :      1.45s CPU      1.45s WALL (      22 calls)
     mix_rho      :      0.22s CPU      0.23s WALL (      22 calls)

     Called by c_bands:
     init_us_2    :      8.55s CPU      8.59s WALL (     235 calls)
     cegterg      :  12453.48s CPU  12573.63s WALL (     110 calls)

     Called by sum_band:
     sum_band:wei :      0.09s CPU      0.09s WALL (      22 calls)
     sum_band:loo :    757.98s CPU    769.54s WALL (      22 calls)
     sum_band:buf :      1.77s CPU      1.78s WALL (     110 calls)
     sum_band:ini :      4.07s CPU      4.08s WALL (     110 calls)
     sum_band:cal :    683.69s CPU    686.42s WALL (     110 calls)
     sum_band:bec :      4.24s CPU      4.25s WALL (     110 calls)
     addusdens    :     14.41s CPU     14.74s WALL (      22 calls)
                                        0.00s GPU  (      22 calls)
     addusd:skk   :      0.18s CPU      0.18s WALL (      88 calls)
                                        0.00s GPU  (      88 calls)

     Called by *egterg:
     cdiaghg      :    855.29s CPU    890.39s WALL (     866 calls)
     cegterg:over :   1860.92s CPU   1867.19s WALL (     761 calls)
     cegterg:upda :   1050.43s CPU   1055.03s WALL (     761 calls)
     cegterg:last :   3198.77s CPU   3212.37s WALL (     237 calls)
     cdiaghg:chol :     54.90s CPU     55.05s WALL (     866 calls)
     cdiaghg:inve :      9.21s CPU      9.24s WALL (     866 calls)
     cdiaghg:para :    258.13s CPU    262.06s WALL (    1732 calls)
     h_psi        :   3517.06s CPU   3570.46s WALL (     876 calls)
     s_psi        :   1552.26s CPU   1556.01s WALL (     876 calls)
     g_psi        :      1.20s CPU      1.21s WALL (     761 calls)

     Called by h_psi:
     h_psi:calbec :   1645.52s CPU   1652.28s WALL (     876 calls)
     vloc_psi     :    309.21s CPU    350.25s WALL (     876 calls)
     add_vuspsi   :   1559.15s CPU   1562.96s WALL (     876 calls)

     General routines
     calbec       :   2486.07s CPU   2496.19s WALL (    1011 calls)
     fft          :      0.66s CPU      0.75s WALL (     268 calls)
     ffts         :      0.04s CPU      0.05s WALL (      22 calls)
     fftw         :    346.05s CPU    392.74s WALL (  507948 calls)

     Parallel routines

     PAW routines
     PAW_pot      :      1.45s CPU      1.45s WALL (      22 calls)

     PWSCF        :      3h51m CPU      3h54m WALL


   This run was terminated on:   6:25:24  22Mar2025            

=------------------------------------------------------------------------------=
   JOB DONE.
=------------------------------------------------------------------------------=
Note: The following floating-point exceptions are signalling: IEEE_DENORMAL
Note: The following floating-point exceptions are signalling: IEEE_DENORMAL
Note: The following floating-point exceptions are signalling: IEEE_DENORMAL
Note: The following floating-point exceptions are signalling: IEEE_DENORMAL
Note: The following floating-point exceptions are signalling: IEEE_DENORMAL
Note: The following floating-point exceptions are signalling: IEEE_DENORMAL
Note: The following floating-point exceptions are signalling: IEEE_DENORMAL
Note: The following floating-point exceptions are signalling: IEEE_DENORMAL
Note: The following floating-point exceptions are signalling: IEEE_DENORMAL
Note: The following floating-point exceptions are signalling: IEEE_DENORMAL
