--------------------------------------------------------------------------
By default, for Open MPI 4.0 and later, infiniband ports on a device
are not used by default.  The intent is to use UCX for these devices.
You can override this policy by setting the btl_openib_allow_ib MCA parameter
to true.

  Local host:              psid05
  Local adapter:           mlx4_0
  Local port:              1

--------------------------------------------------------------------------
--------------------------------------------------------------------------
WARNING: There was an error initializing an OpenFabrics device.

  Local host:   psid05
  Local device: mlx4_0
--------------------------------------------------------------------------

     Program PWSCF v.7.3.1 starts on 22Mar2025 at  2:22: 9 

     This program is part of the open-source Quantum ESPRESSO suite
     for quantum simulation of materials; please cite
         "P. Giannozzi et al., J. Phys.:Condens. Matter 21 395502 (2009);
         "P. Giannozzi et al., J. Phys.:Condens. Matter 29 465901 (2017);
         "P. Giannozzi et al., J. Chem. Phys. 152 154105 (2020);
          URL http://www.quantum-espresso.org", 
     in publications or presentations arising from this work. More details at
     http://www.quantum-espresso.org/quote

     Parallel version (MPI), running on    32 processors

     MPI processes distributed on     1 nodes
     97327 MiB available memory on the printing compute node when the environment starts

     Waiting for input...
     Reading input from standard input
Warning: card &CELL ignored
Warning: card   CELL_DOFREE = 'ALL' ignored
Warning: card / ignored

     Current dimensions of program PWSCF are:
     Max number of different atomic species (ntypx) = 10
     Max number of k-points (npk) =  40000
     Max angular momentum in pseudopotentials (lmaxx) =  4
     file C.pbe-n-kjpaw_psl.1.0.0.UPF: wavefunction(s)  2S 2P renormalized

     R & G space division:  proc/nbgrp/npool/nimage =      32
     Subspace diagonalization in iterative solution of the eigenvalue problem:
     one sub-group per band group will be used
     custom distributed-memory algorithm (size of sub-group:  5*  5 procs)


     Parallelization info
     --------------------
     sticks:   dense  smooth     PW     G-vecs:    dense   smooth      PW
     Min         168     168     44                22650    22650    3088
     Max         169     169     45                22663    22663    3101
     Sum        5389    5389   1417               724931   724931   99009

     Using Slab Decomposition



     bravais-lattice index     =            0
     lattice parameter (alat)  =      19.7617  a.u.
     unit-cell volume          =   15176.5939 (a.u.)^3
     number of atoms/cell      =           79
     number of atomic types    =            4
     number of electrons       =      1324.00
     number of Kohn-Sham states=          794
     kinetic-energy cutoff     =      50.0000  Ry
     charge density cutoff     =     200.0000  Ry
     scf convergence threshold =      7.3E-07
     mixing beta               =       0.7000
     number of iterations used =            8  plain     mixing
     Exchange-correlation= PBE
                           (   1   4   3   4   0   0   0)

     celldm(1)=  19.761696  celldm(2)=   0.000000  celldm(3)=   0.000000
     celldm(4)=   0.000000  celldm(5)=   0.000000  celldm(6)=   0.000000

     crystal axes: (cart. coord. in units of alat)
               a(1) = (   1.000000   0.000000   0.000000 )  
               a(2) = (  -0.500000   0.866025   0.000000 )  
               a(3) = (   0.000000   0.000000   2.270759 )  

     reciprocal axes: (cart. coord. in units 2 pi/alat)
               b(1) = (  1.000000  0.577350 -0.000000 )  
               b(2) = (  0.000000  1.154701  0.000000 )  
               b(3) = (  0.000000 -0.000000  0.440381 )  


     PseudoPot. # 1 for Zn read from file:
     /home/ys/qepseudo/SSSP_1.3.0_PBE_efficiency/Zn_pbe_v1.uspp.F.UPF
     MD5 check sum: df62231357ef9e81f77b2b3087fa5675
     Pseudo is Ultrasoft, Zval = 20.0
     Generated by new atomic code, or converted to UPF format
     Using radial grid of  943 points,  6 beta functions with: 
                l(1) =   0
                l(2) =   0
                l(3) =   1
                l(4) =   1
                l(5) =   2
                l(6) =   2
     Q(r) pseudized with  8 coefficients,  rinner =    1.100   1.100   1.100
                                                       1.100   1.100

     PseudoPot. # 2 for C  read from file:
     /home/ys/qepseudo/SSSP_1.3.0_PBE_efficiency/C.pbe-n-kjpaw_psl.1.0.0.UPF
     MD5 check sum: 5d2aebdfa2cae82b50a7e79e9516da0f
     Pseudo is Projector augmented-wave + core cor, Zval =  4.0
     Generated using "atomic" code by A. Dal Corso  v.5.1
     Shape of augmentation charge: PSQ
     Using radial grid of 1073 points,  4 beta functions with: 
                l(1) =   0
                l(2) =   0
                l(3) =   1
                l(4) =   1
     Q(r) pseudized with 0 coefficients 


     PseudoPot. # 3 for N  read from file:
     /home/ys/qepseudo/SSSP_1.3.0_PBE_efficiency/N.pbe-n-radius_5.UPF
     MD5 check sum: 16739722b17309cd8fe442a2ace49922
     Pseudo is Ultrasoft + core correction, Zval =  5.0
     Generated using "atomic" code by A. Dal Corso  v.5.1
     Using radial grid of 1085 points,  4 beta functions with: 
                l(1) =   0
                l(2) =   0
                l(3) =   1
                l(4) =   1
     Q(r) pseudized with 0 coefficients 


     PseudoPot. # 4 for H  read from file:
     /home/ys/qepseudo/SSSP_1.3.0_PBE_efficiency/H.pbe-rrkjus_psl.1.0.0.UPF
     MD5 check sum: f52b6d4d1c606e5624b1dc7b2218f220
     Pseudo is Ultrasoft, Zval =  1.0
     Generated using "atomic" code by A. Dal Corso  v.5.1
     Using radial grid of  929 points,  2 beta functions with: 
                l(1) =   0
                l(2) =   0
     Q(r) pseudized with 0 coefficients 


     atomic species   valence    mass     pseudopotential
     Zn               20.00    65.38000     Zn( 1.00)
     C                 4.00    12.01070     C ( 1.00)
     N                 5.00    14.00670     N ( 1.00)
     H                 1.00     1.00800     H ( 1.00)

     No symmetry found


                                    s                        frac. trans.

      isym =  1     identity                                     

 cryst.   s( 1) = (     1          0          0      )
                  (     0          1          0      )
                  (     0          0          1      )

 cart.    s( 1) = (  1.0000000  0.0000000  0.0000000 )
                  (  0.0000000  1.0000000  0.0000000 )
                  (  0.0000000  0.0000000  1.0000000 )


   Cartesian axes

     site n.     atom                  positions (alat units)
         1        Zn     tau(   1) = (  -0.0000000   0.1443376   0.1164999  )
         2        Zn     tau(   2) = (   0.5000000   0.1443376   0.1164999  )
         3        Zn     tau(   3) = (   0.0001063   0.1443772   0.5902127  )
         4        Zn     tau(   4) = (   0.4998958   0.1443643   0.5917156  )
         5        Zn     tau(   5) = (  -0.1250000   0.3608439   0.1164999  )
         6        Zn     tau(   6) = (   0.3750000   0.3608439   0.1164999  )
         7        Zn     tau(   7) = (  -0.1249761   0.3609302   0.5908726  )
         8        Zn     tau(   8) = (   0.3749642   0.3608477   0.5913644  )
         9        Zn     tau(   9) = (  -0.2500000   0.5773503   0.1164999  )
        10        Zn     tau(  10) = (   0.2500000   0.5773503   0.1164999  )
        11        Zn     tau(  11) = (  -0.2499911   0.5773738   0.5915504  )
        12        Zn     tau(  12) = (   0.2499824   0.5772583   0.5907382  )
        13        Zn     tau(  13) = (  -0.3750000   0.7938566   0.1164999  )
        14        Zn     tau(  14) = (   0.1250000   0.7938566   0.1164999  )
        15        Zn     tau(  15) = (  -0.3749161   0.7938269   0.5909604  )
        16        Zn     tau(  16) = (   0.1249053   0.7937898   0.5911170  )
        17        Zn     tau(  17) = (   0.2500000   0.1443376   0.1164999  )
        18        Zn     tau(  18) = (   0.7500000   0.1443376   0.1164999  )
        19        Zn     tau(  19) = (   0.2499566   0.1443139   0.5910485  )
        20        Zn     tau(  20) = (   0.7500401   0.1444360   0.5909256  )
        21        Zn     tau(  21) = (   0.1250000   0.3608439   0.1164999  )
        22        Zn     tau(  22) = (   0.6250000   0.3608439   0.1164999  )
        23        Zn     tau(  23) = (   0.1249684   0.3608327   0.5904686  )
        24        Zn     tau(  24) = (   0.6250220   0.3609386   0.5917101  )
        25        Zn     tau(  25) = (  -0.0000000   0.5773503   0.1164999  )
        26        Zn     tau(  26) = (   0.5000000   0.5773503   0.1164999  )
        27        Zn     tau(  27) = (  -0.0000983   0.5773031   0.5910657  )
        28        Zn     tau(  28) = (   0.5000885   0.5773473   0.5912976  )
        29        Zn     tau(  29) = (  -0.1250000   0.7938566   0.1164999  )
        30        Zn     tau(  30) = (   0.3750000   0.7938566   0.1164999  )
        31        Zn     tau(  31) = (  -0.1251014   0.7937984   0.5915674  )
        32        Zn     tau(  32) = (   0.3751324   0.7938157   0.5904624  )
        33        Zn     tau(  33) = (   0.1250000   0.0721688   0.3494996  )
        34        Zn     tau(  34) = (   0.6250000   0.0721688   0.3494996  )
        35        Zn     tau(  35) = (   0.1250976   0.0723078   0.8327302  )
        36        Zn     tau(  36) = (   0.6253336   0.0720262   0.8325286  )
        37        Zn     tau(  37) = (   0.0000000   0.2886751   0.3494996  )
        38        Zn     tau(  38) = (   0.5000000   0.2886751   0.3494996  )
        39        Zn     tau(  39) = (   0.0002605   0.2887230   0.8324759  )
        40        Zn     tau(  40) = (   0.5000185   0.2888500   0.8222816  )
        41        Zn     tau(  41) = (  -0.1250000   0.5051815   0.3494996  )
        42        Zn     tau(  42) = (   0.3750000   0.5051815   0.3494996  )
        43        Zn     tau(  43) = (  -0.1246995   0.5052162   0.8329296  )
        44        Zn     tau(  44) = (   0.3749749   0.5053363   0.8331073  )
        45        Zn     tau(  45) = (  -0.2500000   0.7216878   0.3494996  )
        46        Zn     tau(  46) = (   0.2500000   0.7216878   0.3494996  )
        47        Zn     tau(  47) = (  -0.2498680   0.7217556   0.8328129  )
        48        Zn     tau(  48) = (   0.2502219   0.7216908   0.8325092  )
        49        Zn     tau(  49) = (   0.3750000   0.0721688   0.3494996  )
        50        Zn     tau(  50) = (   0.8750000   0.0721688   0.3494996  )
        51        Zn     tau(  51) = (   0.3749501   0.0719756   0.8310087  )
        52        Zn     tau(  52) = (   0.8752068   0.0722307   0.8324498  )
        53        Zn     tau(  53) = (   0.2500000   0.2886751   0.3494996  )
        54        Zn     tau(  54) = (   0.7500000   0.2886751   0.3494996  )
        55        Zn     tau(  55) = (   0.2500012   0.2888721   0.8330127  )
        56        Zn     tau(  56) = (   0.7504211   0.2886925   0.8325905  )
        57        Zn     tau(  57) = (   0.1250000   0.5051815   0.3494996  )
        58        Zn     tau(  58) = (   0.6250000   0.5051815   0.3494996  )
        59        Zn     tau(  59) = (   0.1252168   0.5052210   0.8326684  )
        60        Zn     tau(  60) = (   0.6252512   0.5055055   0.8316787  )
        61        Zn     tau(  61) = (   0.0000000   0.7216878   0.3494996  )
        62        Zn     tau(  62) = (   0.5000000   0.7216878   0.3494996  )
        63        Zn     tau(  63) = (   0.0002259   0.7216234   0.8330687  )
        64        Zn     tau(  64) = (   0.5000887   0.7218381   0.8327297  )
        65        C      tau(  65) = (   0.5904981   0.2283912   1.6731445  )
        66        C      tau(  66) = (   0.5698895   0.2404519   1.5391412  )
        67        C      tau(  67) = (   0.5014263   0.1458033   1.4714414  )
        68        C      tau(  68) = (   0.6172452   0.3472291   1.4714026  )
        69        C      tau(  69) = (   0.5956323   0.3596281   1.3413489  )
        70        C      tau(  70) = (   0.4800317   0.1579701   1.3413588  )
        71        C      tau(  71) = (   0.5259692   0.2655781   1.2736714  )
        72        N      tau(  72) = (   0.6074609   0.2181130   1.7836931  )
        73        N      tau(  73) = (   0.4980687   0.2814406   1.1463215  )
        74        H      tau(  74) = (   0.5495944   0.3461654   1.0946919  )
        75        H      tau(  75) = (   0.4681946   0.2042512   1.0947269  )
        76        H      tau(  76) = (   0.4649053   0.0624605   1.5229664  )
        77        H      tau(  77) = (   0.6708181   0.4209701   1.5227006  )
        78        H      tau(  78) = (   0.6319213   0.4435592   1.2902875  )
        79        H      tau(  79) = (   0.4263117   0.0839705   1.2903085  )

   Crystallographic axes

     site n.     atom                  positions (cryst. coord.)
         1        Zn     tau(   1) = (  0.0833333  0.1666667  0.0513044  )
         2        Zn     tau(   2) = (  0.5833333  0.1666667  0.0513044  )
         3        Zn     tau(   3) = (  0.0834625  0.1667124  0.2599187  )
         4        Zn     tau(   4) = (  0.5832446  0.1666976  0.2605806  )
         5        Zn     tau(   5) = (  0.0833333  0.4166667  0.0513044  )
         6        Zn     tau(   6) = (  0.5833333  0.4166667  0.0513044  )
         7        Zn     tau(   7) = (  0.0834070  0.4167663  0.2602093  )
         8        Zn     tau(   8) = (  0.5832997  0.4166711  0.2604259  )
         9        Zn     tau(   9) = (  0.0833333  0.6666667  0.0513044  )
        10        Zn     tau(  10) = (  0.5833333  0.6666667  0.0513044  )
        11        Zn     tau(  11) = (  0.0833558  0.6666938  0.2605078  )
        12        Zn     tau(  12) = (  0.5832626  0.6665605  0.2601501  )
        13        Zn     tau(  13) = (  0.0833333  0.9166667  0.0513044  )
        14        Zn     tau(  14) = (  0.5833333  0.9166667  0.0513044  )
        15        Zn     tau(  15) = (  0.0834001  0.9166324  0.2602480  )
        16        Zn     tau(  16) = (  0.5832000  0.9165895  0.2603170  )
        17        Zn     tau(  17) = (  0.3333333  0.1666667  0.0513044  )
        18        Zn     tau(  18) = (  0.8333333  0.1666667  0.0513044  )
        19        Zn     tau(  19) = (  0.3332763  0.1666393  0.2602868  )
        20        Zn     tau(  20) = (  0.8334303  0.1667804  0.2602327  )
        21        Zn     tau(  21) = (  0.3333333  0.4166667  0.0513044  )
        22        Zn     tau(  22) = (  0.8333333  0.4166667  0.0513044  )
        23        Zn     tau(  23) = (  0.3332952  0.4166537  0.2600314  )
        24        Zn     tau(  24) = (  0.8334099  0.4167759  0.2605781  )
        25        Zn     tau(  25) = (  0.3333333  0.6666667  0.0513044  )
        26        Zn     tau(  26) = (  0.8333333  0.6666667  0.0513044  )
        27        Zn     tau(  27) = (  0.3332078  0.6666122  0.2602944  )
        28        Zn     tau(  28) = (  0.8334201  0.6666632  0.2603965  )
        29        Zn     tau(  29) = (  0.3333333  0.9166667  0.0513044  )
        30        Zn     tau(  30) = (  0.8333333  0.9166667  0.0513044  )
        31        Zn     tau(  31) = (  0.3331983  0.9165994  0.2605153  )
        32        Zn     tau(  32) = (  0.8334421  0.9166194  0.2600287  )
        33        Zn     tau(  33) = (  0.1666667  0.0833333  0.1539131  )
        34        Zn     tau(  34) = (  0.6666667  0.0833333  0.1539131  )
        35        Zn     tau(  35) = (  0.1668446  0.0834939  0.3667189  )
        36        Zn     tau(  36) = (  0.6669180  0.0831686  0.3666301  )
        37        Zn     tau(  37) = (  0.1666667  0.3333333  0.1539131  )
        38        Zn     tau(  38) = (  0.6666667  0.3333333  0.1539131  )
        39        Zn     tau(  39) = (  0.1669548  0.3333886  0.3666069  )
        40        Zn     tau(  40) = (  0.6667861  0.3335352  0.3621175  )
        41        Zn     tau(  41) = (  0.1666667  0.5833333  0.1539131  )
        42        Zn     tau(  42) = (  0.6666667  0.5833333  0.1539131  )
        43        Zn     tau(  43) = (  0.1669872  0.5833734  0.3668067  )
        44        Zn     tau(  44) = (  0.6667310  0.5835121  0.3668850  )
        45        Zn     tau(  45) = (  0.1666667  0.8333333  0.1539131  )
        46        Zn     tau(  46) = (  0.6666667  0.8333333  0.1539131  )
        47        Zn     tau(  47) = (  0.1668378  0.8334115  0.3667553  )
        48        Zn     tau(  48) = (  0.6668903  0.8333368  0.3666216  )
        49        Zn     tau(  49) = (  0.4166667  0.0833333  0.1539131  )
        50        Zn     tau(  50) = (  0.9166667  0.0833333  0.1539131  )
        51        Zn     tau(  51) = (  0.4165053  0.0831103  0.3659608  )
        52        Zn     tau(  52) = (  0.9169092  0.0834049  0.3665954  )
        53        Zn     tau(  53) = (  0.4166667  0.3333333  0.1539131  )
        54        Zn     tau(  54) = (  0.9166667  0.3333333  0.1539131  )
        55        Zn     tau(  55) = (  0.4167816  0.3335608  0.3668433  )
        56        Zn     tau(  56) = (  0.9170978  0.3333533  0.3666574  )
        57        Zn     tau(  57) = (  0.4166667  0.5833333  0.1539131  )
        58        Zn     tau(  58) = (  0.9166667  0.5833333  0.1539131  )
        59        Zn     tau(  59) = (  0.4169063  0.5833790  0.3666917  )
        60        Zn     tau(  60) = (  0.9171049  0.5837075  0.3662558  )
        61        Zn     tau(  61) = (  0.4166667  0.8333333  0.1539131  )
        62        Zn     tau(  62) = (  0.9166667  0.8333333  0.1539131  )
        63        Zn     tau(  63) = (  0.4168554  0.8332590  0.3668680  )
        64        Zn     tau(  64) = (  0.9168421  0.8335068  0.3667187  )
        65        C      tau(  65) = (  0.7223598  0.2637235  0.7368218  )
        66        C      tau(  66) = (  0.7087144  0.2776499  0.6778092  )
        67        C      tau(  67) = (  0.5856058  0.1683591  0.6479955  )
        68        C      tau(  68) = (  0.8177181  0.4009456  0.6479784  )
        69        C      tau(  69) = (  0.8032637  0.4152627  0.5907051  )
        70        C      tau(  70) = (  0.5712358  0.1824081  0.5907095  )
        71        C      tau(  71) = (  0.6793007  0.3066632  0.5609012  )
        72        N      tau(  72) = (  0.7333884  0.2518551  0.7855053  )
        73        N      tau(  73) = (  0.6605585  0.3249796  0.5048187  )
        74        H      tau(  74) = (  0.7494531  0.3997174  0.4820820  )
        75        H      tau(  75) = (  0.5861191  0.2358490  0.4820974  )
        76        H      tau(  76) = (  0.5009669  0.0721231  0.6706861  )
        77        H      tau(  77) = (  0.9138653  0.4860944  0.6705691  )
        78        H      tau(  78) = (  0.8880103  0.5121780  0.5682187  )
        79        H      tau(  79) = (  0.4747921  0.0969608  0.5682279  )

     number of k points=     5  Marzari-Vanderbilt smearing, width (Ry)=  0.0200
                       cart. coord. in units 2pi/alat
        k(    1) = (   0.0000000   0.0000000   0.0000000), wk =   0.2222222
        k(    2) = (   0.0000000   0.3849002   0.0000000), wk =   0.4444444
        k(    3) = (   0.3333333   0.1924501   0.0000000), wk =   0.4444444
        k(    4) = (   0.3333333   0.5773503   0.0000000), wk =   0.4444444
        k(    5) = (   0.3333333  -0.1924501   0.0000000), wk =   0.4444444

                       cryst. coord.
        k(    1) = (   0.0000000   0.0000000   0.0000000), wk =   0.2222222
        k(    2) = (   0.0000000   0.3333333   0.0000000), wk =   0.4444444
        k(    3) = (   0.3333333   0.0000000   0.0000000), wk =   0.4444444
        k(    4) = (   0.3333333   0.3333333   0.0000000), wk =   0.4444444
        k(    5) = (   0.3333333  -0.3333333   0.0000000), wk =   0.4444444

     Dense  grid:   724931 G-vectors     FFT dimensions: (  90,  90, 216)

     Dynamical RAM for                 wfc:      34.30 MB

     Dynamical RAM for     wfc (w. buffer):     205.79 MB

     Dynamical RAM for           str. fact:       1.38 MB

     Dynamical RAM for           local pot:       0.00 MB

     Dynamical RAM for          nlocal pot:      53.39 MB

     Dynamical RAM for                qrad:       4.54 MB

     Dynamical RAM for          rho,v,vnew:       2.33 MB

     Dynamical RAM for               rhoin:       0.78 MB

     Dynamical RAM for            rho*nmix:       5.53 MB

     Dynamical RAM for           G-vectors:       1.47 MB

     Dynamical RAM for          h,s,v(r/c):       4.60 MB

     Dynamical RAM for          <psi|beta>:      14.97 MB

     Dynamical RAM for                 psi:      68.60 MB

     Dynamical RAM for                hpsi:      68.60 MB

     Dynamical RAM for                spsi:      68.60 MB

     Dynamical RAM for      wfcinit/wfcrot:      93.00 MB

     Dynamical RAM for           addusdens:      86.43 MB

     Dynamical RAM for          addusforce:     130.41 MB

     Dynamical RAM for         addusstress:      69.49 MB

     Estimated static dynamical RAM per process >     273.59 MB

     Estimated max dynamical RAM per process >     504.49 MB

     Estimated total dynamical RAM >      15.77 GB

     Check: negative core charge=   -0.000007

     Initial potential from superposition of free atoms

     starting charge    1323.9906, renormalised to    1324.0000

     negative rho (up, down):  3.221E-03 0.000E+00
     Starting wfcs are  874 randomized atomic wfcs
[psid05:213829] 31 more processes have sent help message help-mpi-btl-openib.txt / ib port not selected
[psid05:213829] Set MCA parameter "orte_base_help_aggregate" to 0 to see all help / error messages
[psid05:213829] 31 more processes have sent help message help-mpi-btl-openib.txt / error in device init
     Checking if some PAW data can be deallocated... 
       PAW data deallocated on   28 nodes for type:  2

     total cpu time spent up to now is      162.3 secs

     Self-consistent Calculation

     iteration #  1     ecut=    50.00 Ry     beta= 0.70
     Davidson diagonalization with overlap

---- Real-time Memory Report at c_bands before calling an iterative solver
           375 MiB given to the printing process from OS
             0 MiB allocation reported by mallinfo(arena+hblkhd)
         87110 MiB available memory on the node where the printing process lives
------------------
     ethr =  1.00E-02,  avg # of iterations =  7.4

     Threshold (ethr) on eigenvalues was too large:
     Diagonalizing with lowered threshold

     Davidson diagonalization with overlap

---- Real-time Memory Report at c_bands before calling an iterative solver
           541 MiB given to the printing process from OS
             0 MiB allocation reported by mallinfo(arena+hblkhd)
         87082 MiB available memory on the node where the printing process lives
------------------
     ethr =  8.74E-04,  avg # of iterations =  2.0

     negative rho (up, down):  3.874E-03 0.000E+00

     total cpu time spent up to now is     1321.7 secs

     total energy              =  -29707.67493133 Ry
     estimated scf accuracy    <      11.64150675 Ry

     iteration #  2     ecut=    50.00 Ry     beta= 0.70
     Davidson diagonalization with overlap

---- Real-time Memory Report at c_bands before calling an iterative solver
           542 MiB given to the printing process from OS
             0 MiB allocation reported by mallinfo(arena+hblkhd)
         87073 MiB available memory on the node where the printing process lives
------------------
     ethr =  8.79E-04,  avg # of iterations = 12.4

     negative rho (up, down):  3.925E-03 0.000E+00

     total cpu time spent up to now is     2217.4 secs

     total energy              =  -29671.03894719 Ry
     estimated scf accuracy    <     809.86015559 Ry

     iteration #  3     ecut=    50.00 Ry     beta= 0.70
     Davidson diagonalization with overlap

---- Real-time Memory Report at c_bands before calling an iterative solver
           548 MiB given to the printing process from OS
             0 MiB allocation reported by mallinfo(arena+hblkhd)
         86893 MiB available memory on the node where the printing process lives
------------------
     ethr =  8.79E-04,  avg # of iterations = 10.0

     negative rho (up, down):  3.274E-03 0.000E+00

     total cpu time spent up to now is     3620.8 secs

     total energy              =  -29707.07948810 Ry
     estimated scf accuracy    <     108.05552298 Ry

     iteration #  4     ecut=    50.00 Ry     beta= 0.70
     Davidson diagonalization with overlap

---- Real-time Memory Report at c_bands before calling an iterative solver
           549 MiB given to the printing process from OS
             0 MiB allocation reported by mallinfo(arena+hblkhd)
         86859 MiB available memory on the node where the printing process lives
------------------
     ethr =  8.79E-04,  avg # of iterations =  8.8

     negative rho (up, down):  2.388E-03 0.000E+00

     total cpu time spent up to now is     4259.5 secs

     total energy              =  -29710.34227080 Ry
     estimated scf accuracy    <     104.24213336 Ry

     iteration #  5     ecut=    50.00 Ry     beta= 0.70
     Davidson diagonalization with overlap

---- Real-time Memory Report at c_bands before calling an iterative solver
           550 MiB given to the printing process from OS
             0 MiB allocation reported by mallinfo(arena+hblkhd)
         86828 MiB available memory on the node where the printing process lives
------------------
     ethr =  8.79E-04,  avg # of iterations =  7.4

     negative rho (up, down):  2.367E-03 0.000E+00

     total cpu time spent up to now is     4848.8 secs

     total energy              =  -29715.22907403 Ry
     estimated scf accuracy    <       4.25892557 Ry

     iteration #  6     ecut=    50.00 Ry     beta= 0.70
     Davidson diagonalization with overlap

---- Real-time Memory Report at c_bands before calling an iterative solver
           551 MiB given to the printing process from OS
             0 MiB allocation reported by mallinfo(arena+hblkhd)
         86796 MiB available memory on the node where the printing process lives
------------------
     ethr =  3.22E-04,  avg # of iterations =  5.2

     negative rho (up, down):  2.903E-03 0.000E+00

     total cpu time spent up to now is     5394.7 secs

     total energy              =  -29715.66917652 Ry
     estimated scf accuracy    <       0.26493707 Ry

     iteration #  7     ecut=    50.00 Ry     beta= 0.70
     Davidson diagonalization with overlap

---- Real-time Memory Report at c_bands before calling an iterative solver
           552 MiB given to the printing process from OS
             0 MiB allocation reported by mallinfo(arena+hblkhd)
         86764 MiB available memory on the node where the printing process lives
------------------
     c_bands:  1 eigenvalues not converged
     ethr =  2.00E-05,  avg # of iterations = 14.0

     negative rho (up, down):  3.454E-03 0.000E+00

     total cpu time spent up to now is     6013.2 secs

     total energy              =  -29715.68500484 Ry
     estimated scf accuracy    <       0.06693354 Ry

     iteration #  8     ecut=    50.00 Ry     beta= 0.70
     Davidson diagonalization with overlap

---- Real-time Memory Report at c_bands before calling an iterative solver
           552 MiB given to the printing process from OS
             0 MiB allocation reported by mallinfo(arena+hblkhd)
         86737 MiB available memory on the node where the printing process lives
------------------
     ethr =  5.06E-06,  avg # of iterations =  9.6

     negative rho (up, down):  3.816E-03 0.000E+00

     total cpu time spent up to now is     6626.5 secs

     total energy              =  -29715.68609367 Ry
     estimated scf accuracy    <       0.06256221 Ry

     iteration #  9     ecut=    50.00 Ry     beta= 0.70
     Davidson diagonalization with overlap

---- Real-time Memory Report at c_bands before calling an iterative solver
           553 MiB given to the printing process from OS
             0 MiB allocation reported by mallinfo(arena+hblkhd)
         86705 MiB available memory on the node where the printing process lives
------------------
     ethr =  4.73E-06,  avg # of iterations =  3.0

     negative rho (up, down):  3.901E-03 0.000E+00

     total cpu time spent up to now is     7184.4 secs

     total energy              =  -29715.69150174 Ry
     estimated scf accuracy    <       0.03763974 Ry

     iteration # 10     ecut=    50.00 Ry     beta= 0.70
     Davidson diagonalization with overlap

---- Real-time Memory Report at c_bands before calling an iterative solver
           554 MiB given to the printing process from OS
             0 MiB allocation reported by mallinfo(arena+hblkhd)
         86676 MiB available memory on the node where the printing process lives
------------------
     ethr =  2.84E-06,  avg # of iterations =  3.0

     negative rho (up, down):  3.946E-03 0.000E+00

     total cpu time spent up to now is     7723.0 secs

     total energy              =  -29715.69367304 Ry
     estimated scf accuracy    <       0.01451683 Ry

     iteration # 11     ecut=    50.00 Ry     beta= 0.70
     Davidson diagonalization with overlap

---- Real-time Memory Report at c_bands before calling an iterative solver
           555 MiB given to the printing process from OS
             0 MiB allocation reported by mallinfo(arena+hblkhd)
         86648 MiB available memory on the node where the printing process lives
------------------
     c_bands:  1 eigenvalues not converged
     ethr =  1.10E-06,  avg # of iterations = 11.6

     negative rho (up, down):  4.442E-03 0.000E+00

     total cpu time spent up to now is     8267.2 secs

     total energy              =  -29715.68654605 Ry
     estimated scf accuracy    <       0.01204843 Ry

     iteration # 12     ecut=    50.00 Ry     beta= 0.70
     Davidson diagonalization with overlap

---- Real-time Memory Report at c_bands before calling an iterative solver
           555 MiB given to the printing process from OS
             0 MiB allocation reported by mallinfo(arena+hblkhd)
         86645 MiB available memory on the node where the printing process lives
------------------
     ethr =  9.10E-07,  avg # of iterations = 16.2

     negative rho (up, down):  4.217E-03 0.000E+00

     total cpu time spent up to now is     8923.4 secs

     total energy              =  -29715.68712254 Ry
     estimated scf accuracy    <       0.00956013 Ry

     iteration # 13     ecut=    50.00 Ry     beta= 0.70
     Davidson diagonalization with overlap

---- Real-time Memory Report at c_bands before calling an iterative solver
           555 MiB given to the printing process from OS
             0 MiB allocation reported by mallinfo(arena+hblkhd)
         86639 MiB available memory on the node where the printing process lives
------------------
     ethr =  7.22E-07,  avg # of iterations =  3.0

     negative rho (up, down):  4.138E-03 0.000E+00

     total cpu time spent up to now is     9463.2 secs

     total energy              =  -29715.68488094 Ry
     estimated scf accuracy    <       0.00678281 Ry

     iteration # 14     ecut=    50.00 Ry     beta= 0.70
     Davidson diagonalization with overlap

---- Real-time Memory Report at c_bands before calling an iterative solver
           555 MiB given to the printing process from OS
             0 MiB allocation reported by mallinfo(arena+hblkhd)
         86640 MiB available memory on the node where the printing process lives
------------------
     ethr =  5.12E-07,  avg # of iterations = 17.8

     negative rho (up, down):  4.112E-03 0.000E+00

     total cpu time spent up to now is    10118.1 secs

     total energy              =  -29715.67955162 Ry
     estimated scf accuracy    <       0.15244684 Ry

     iteration # 15     ecut=    50.00 Ry     beta= 0.70
     Davidson diagonalization with overlap

---- Real-time Memory Report at c_bands before calling an iterative solver
           555 MiB given to the printing process from OS
             0 MiB allocation reported by mallinfo(arena+hblkhd)
         86635 MiB available memory on the node where the printing process lives
------------------
     ethr =  5.12E-07,  avg # of iterations =  9.0

     negative rho (up, down):  4.101E-03 0.000E+00

     total cpu time spent up to now is    10702.3 secs

     total energy              =  -29715.68778342 Ry
     estimated scf accuracy    <       0.00046693 Ry

     iteration # 16     ecut=    50.00 Ry     beta= 0.70
     Davidson diagonalization with overlap

---- Real-time Memory Report at c_bands before calling an iterative solver
           555 MiB given to the printing process from OS
             0 MiB allocation reported by mallinfo(arena+hblkhd)
         86634 MiB available memory on the node where the printing process lives
------------------
     ethr =  3.53E-08,  avg # of iterations =  3.0

     negative rho (up, down):  4.081E-03 0.000E+00

     total cpu time spent up to now is    11305.0 secs

     total energy              =  -29715.68785446 Ry
     estimated scf accuracy    <       0.00032730 Ry

     iteration # 17     ecut=    50.00 Ry     beta= 0.70
     Davidson diagonalization with overlap

---- Real-time Memory Report at c_bands before calling an iterative solver
           555 MiB given to the printing process from OS
             0 MiB allocation reported by mallinfo(arena+hblkhd)
         86634 MiB available memory on the node where the printing process lives
------------------
     ethr =  2.47E-08,  avg # of iterations =  2.0

     negative rho (up, down):  4.059E-03 0.000E+00

     total cpu time spent up to now is    11822.2 secs

     total energy              =  -29715.68789704 Ry
     estimated scf accuracy    <       0.00005967 Ry

     iteration # 18     ecut=    50.00 Ry     beta= 0.70
     Davidson diagonalization with overlap

---- Real-time Memory Report at c_bands before calling an iterative solver
           555 MiB given to the printing process from OS
             0 MiB allocation reported by mallinfo(arena+hblkhd)
         86637 MiB available memory on the node where the printing process lives
------------------
     ethr =  4.51E-09,  avg # of iterations =  2.2

     negative rho (up, down):  4.049E-03 0.000E+00

     total cpu time spent up to now is    12344.6 secs

     total energy              =  -29715.68790385 Ry
     estimated scf accuracy    <       0.00001096 Ry

     iteration # 19     ecut=    50.00 Ry     beta= 0.70
     Davidson diagonalization with overlap

---- Real-time Memory Report at c_bands before calling an iterative solver
           555 MiB given to the printing process from OS
             0 MiB allocation reported by mallinfo(arena+hblkhd)
         86633 MiB available memory on the node where the printing process lives
------------------
     ethr =  8.28E-10,  avg # of iterations =  2.2

     negative rho (up, down):  4.045E-03 0.000E+00

     total cpu time spent up to now is    12875.7 secs

     total energy              =  -29715.68790543 Ry
     estimated scf accuracy    <       0.00000112 Ry

     iteration # 20     ecut=    50.00 Ry     beta= 0.70
     Davidson diagonalization with overlap

---- Real-time Memory Report at c_bands before calling an iterative solver
           555 MiB given to the printing process from OS
             0 MiB allocation reported by mallinfo(arena+hblkhd)
         86636 MiB available memory on the node where the printing process lives
------------------
     ethr =  8.43E-11,  avg # of iterations =  3.8

     negative rho (up, down):  4.044E-03 0.000E+00

     total cpu time spent up to now is    13450.4 secs

     total energy              =  -29715.68790544 Ry
     estimated scf accuracy    <       0.00000173 Ry

     iteration # 21     ecut=    50.00 Ry     beta= 0.70
     Davidson diagonalization with overlap

---- Real-time Memory Report at c_bands before calling an iterative solver
           555 MiB given to the printing process from OS
             0 MiB allocation reported by mallinfo(arena+hblkhd)
         86634 MiB available memory on the node where the printing process lives
------------------
     ethr =  8.43E-11,  avg # of iterations =  2.0

     negative rho (up, down):  4.041E-03 0.000E+00

     total cpu time spent up to now is    13978.9 secs

     End of self-consistent calculation

          k = 0.0000 0.0000 0.0000 ( 90569 PWs)   bands (ev):

  -122.8405-122.8393-122.8388-122.8385-122.8384-122.8383-122.8381-122.8374
  -122.8370-122.8368-122.8367-122.8366-122.8365-122.8364-122.8363-122.8361
  -122.8151-122.8142-122.8088-122.7985-122.7974-122.7967-122.7961-122.7944
  -122.7932-122.7927-122.7923-122.7918-122.7914-122.7904-122.7903-122.7897
  -122.6719-122.6371-122.6358-122.6353-122.6350-122.6346-122.6343-122.6340
  -122.6334-122.6331-122.6328-122.6325-122.6321-122.6319-122.6317-122.6316
  -122.6307-122.6300-122.6298-122.6187-122.6178-122.6161-122.6134-122.6130
  -122.6125-122.6121-122.6108-122.6100-122.6098-122.6092-122.6089-122.6083
   -77.0046 -77.0045 -77.0042 -76.9982 -76.9982 -76.9979 -76.9978 -76.9976
   -76.9976 -76.9920 -76.9905 -76.9902 -76.9899 -76.9897 -76.9896 -76.9894
   -76.9885 -76.9881 -76.9879 -76.9878 -76.9876 -76.9875 -76.9874 -76.9874
   -76.9871 -76.9869 -76.9869 -76.9867 -76.9867 -76.9866 -76.9864 -76.9849
   -76.9849 -76.9848 -76.9847 -76.9846 -76.9845 -76.9781 -76.9780 -76.9780
   -76.9738 -76.9737 -76.9734 -76.9734 -76.9734 -76.9733 -76.9731 -76.9704
   -76.9692 -76.9689 -76.9689 -76.9661 -76.9652 -76.9617 -76.9602 -76.9599
   -76.9579 -76.9572 -76.9564 -76.9559 -76.9510 -76.9506 -76.9495 -76.9490
   -76.9484 -76.9477 -76.9473 -76.9470 -76.9459 -76.9454 -76.9445 -76.9442
   -76.9440 -76.9437 -76.9433 -76.9430 -76.9428 -76.9423 -76.9419 -76.9414
   -76.9414 -76.9413 -76.9407 -76.9404 -76.9401 -76.9380 -76.9354 -76.9343
   -76.9336 -76.9324 -76.9313 -76.9293 -76.9291 -76.9289 -76.9257 -76.9245
   -76.8321 -76.8186 -76.8174 -76.7978 -76.7977 -76.7975 -76.7959 -76.7952
   -76.7946 -76.7941 -76.7937 -76.7929 -76.7926 -76.7924 -76.7920 -76.7917
   -76.7916 -76.7914 -76.7914 -76.7910 -76.7909 -76.7908 -76.7906 -76.7905
   -76.7903 -76.7903 -76.7902 -76.7893 -76.7886 -76.7884 -76.7844 -76.7824
   -76.7816 -76.7804 -76.7804 -76.7800 -76.7797 -76.7794 -76.7794 -76.7793
   -76.7791 -76.7785 -76.7784 -76.7781 -76.7781 -76.7777 -76.7772 -76.7771
   -76.7762 -76.7756 -76.7735 -76.7731 -76.7726 -76.7721 -76.7713 -76.7712
   -76.7711 -76.7710 -76.7708 -76.7708 -76.7699 -76.7698 -76.7692 -76.7688
   -76.7681 -76.7681 -76.7670 -76.7669 -76.7669 -76.7668 -76.7663 -76.7662
   -76.7659 -76.7657 -76.7646 -76.7617 -76.7616 -76.7607 -76.7600 -76.7597
   -76.7588 -76.7583 -76.7575 -76.7574 -76.7562 -76.7561 -76.7510 -76.7501
   -76.7484 -76.7479 -76.7478 -76.7453 -76.7449 -76.7446 -76.7420 -76.7401
   -15.5153 -14.1018 -13.2773 -10.9198 -10.8089  -7.9069  -7.6227  -6.4718
    -5.7434  -5.6815  -5.1566  -5.1502  -4.9539  -4.8789  -4.8712  -4.8700
    -4.8692  -4.8682  -4.8682  -4.8621  -4.6768  -4.6767  -4.6766  -4.6248
    -4.6236  -4.6231  -4.5266  -4.5164  -4.5133  -4.5123  -4.5107  -4.5102
    -4.4871  -4.4867  -4.4859  -4.4160  -4.4149  -4.4120  -4.3516  -4.3495
    -4.3492  -4.3489  -4.3485  -4.3482  -4.3127  -4.3127  -4.3125  -4.2841
    -4.2776  -4.2763  -4.2744  -4.2732  -4.2712  -4.2572  -4.2545  -4.2543
    -4.2532  -4.2528  -4.2523  -4.2451  -4.2448  -4.2448  -4.2129  -4.2127
    -4.2117  -4.2112  -4.2106  -4.2105  -4.1744  -4.1741  -4.1719  -4.1703
    -4.1696  -4.1691  -4.0974  -4.0904  -4.0801  -4.0780  -4.0763  -4.0753
    -4.0747  -4.0719  -4.0714  -4.0712  -4.0708  -4.0703  -4.0702  -4.0324
    -4.0294  -4.0245  -4.0231  -4.0228  -4.0221  -4.0219  -4.0214  -4.0201
    -4.0180  -4.0158  -4.0153  -4.0148  -4.0139  -4.0128  -3.9845  -3.9831
    -3.9773  -3.9755  -3.9750  -3.9745  -3.9398  -3.9388  -3.9377  -3.9339
    -3.9325  -3.9313  -3.8945  -3.8933  -3.8925  -3.8905  -3.8896  -3.8890
    -3.8885  -3.8883  -3.8882  -3.8838  -3.8830  -3.8827  -3.8810  -3.8806
    -3.8797  -3.8796  -3.8792  -3.8629  -3.8408  -3.8406  -3.8223  -3.8215
    -3.8194  -3.8183  -3.8177  -3.8168  -3.8059  -3.8027  -3.8006  -3.8002
    -3.7994  -3.7993  -3.7683  -3.7649  -3.7645  -3.7644  -3.7631  -3.7629
    -3.7408  -3.7383  -3.7378  -3.7373  -3.7371  -3.7365  -3.6761  -3.6760
    -3.6629  -3.6623  -3.6611  -3.6605  -3.6593  -3.6592  -3.6555  -3.6552
    -3.6216  -3.6214  -3.6199  -3.6172  -3.6154  -3.6144  -3.6106  -3.6102
    -3.6086  -3.5899  -3.5897  -3.5863  -3.5853  -3.5834  -3.5828  -3.5685
    -3.5649  -3.5641  -3.5616  -3.5610  -3.5588  -3.5542  -3.5542  -3.5535
    -3.5534  -3.5534  -3.5532  -3.5404  -3.5394  -3.5382  -3.5372  -3.5369
    -3.5345  -3.5328  -3.5322  -3.5315  -3.5304  -3.5300  -3.5299  -3.5296
    -3.5295  -3.5293  -3.5274  -3.5255  -3.5252  -3.5227  -3.5222  -3.5192
    -3.4992  -3.4991  -3.4990  -3.4986  -3.4985  -3.4983  -3.4587  -3.4584
    -3.4559  -3.4515  -3.4494  -3.4491  -3.4480  -3.4457  -3.4454  -3.4452
    -3.4448  -3.4443  -3.4419  -3.4409  -3.4396  -3.4019  -3.4008  -3.3968
    -3.3965  -3.3948  -3.3930  -3.3923  -3.3908  -3.3830  -3.3827  -3.3826
    -3.3820  -3.3814  -3.3810  -3.3740  -3.3737  -3.3728  -3.3707  -3.3701
    -3.3691  -3.3672  -3.3665  -3.3659  -3.3654  -3.3650  -3.3647  -3.3023
    -3.3022  -3.2934  -3.2931  -3.2927  -3.2640  -3.2635  -3.2634  -3.2631
    -3.2627  -3.2624  -3.2572  -3.2567  -3.2548  -3.2525  -3.2522  -3.2497
    -3.2450  -3.2445  -3.2433  -3.2412  -3.2386  -3.2373  -3.2205  -3.2203
    -3.2199  -3.2112  -3.2102  -3.2084  -3.2079  -3.2077  -3.2076  -3.1923
    -3.1921  -3.1913  -3.1899  -3.1895  -3.1891  -3.1769  -3.1767  -3.1761
    -3.1732  -3.1729  -3.1724  -3.1603  -3.1586  -3.1573  -3.1437  -3.1437
    -3.1321  -3.1309  -3.1010  -3.0808  -3.0803  -3.0801  -3.0800  -3.0794
    -3.0786  -3.0683  -3.0673  -3.0665  -3.0663  -3.0652  -3.0624  -3.0481
    -3.0481  -3.0479  -3.0123  -3.0074  -3.0065  -3.0061  -2.9670  -2.8499
    -2.8427  -2.8423  -2.8402  -2.8401  -2.8400  -2.8386  -2.8347  -2.8346
    -2.8270  -2.8250  -2.8215  -2.6166  -2.1140  -1.8106  -1.4503  -1.4498
    -1.4489  -1.4487  -1.4478  -1.4308  -0.9805  -0.9084  -0.7400  -0.1234
     0.0153   0.0197   0.0220   0.0235   0.0249   0.0254   0.3045   0.4284
     0.4368   0.4385   0.4404   0.4411   0.4475   0.5417   0.8485   0.8524
     0.8578   0.8612   0.8627   0.8635   1.1826   1.2450   1.3073   1.3081
     1.3084   1.8658   1.8710   1.8729   2.2177   2.2191   2.2247   2.2699
     2.2711   2.2722   2.2728   2.2747   2.2770   2.4549   2.4588   2.4613
     2.6216   3.4706   3.4772   3.4863   3.4911   3.4918   3.5039   3.9596
     3.9609   3.9614   3.9634   3.9694   3.9753   4.1554   4.5586   4.5606
     4.5645   4.8409   4.8429   4.8435   5.6635   5.6650   5.6671   5.9648
     5.9696   6.0139   6.0297   6.0367   6.0553   6.2305   6.4098   6.5405
     6.5742   6.5747   6.6097   7.2642   7.3245   7.3301   7.3421   7.3464
     7.3552   7.3626   7.5557   7.5570   7.5583   7.5620   7.5632   7.5635
     7.5870   7.7351   7.7355   7.7423   7.7423   7.7432   7.7444   7.9251
     8.0556   8.1811   8.2764   8.3410   8.3758   8.4439   8.4444   8.4456
     8.4484   8.4518   8.4599   8.4605   8.5049   8.5077   8.5374   8.5409
     8.5442   8.5482   8.5497   8.5513   8.5643   8.7321   8.8646   8.9685
     9.0049   9.0782   9.1418   9.2064   9.2704   9.2772   9.3214   9.4577
     9.4637   9.4834   9.5032   9.5471   9.5575   9.5601   9.5664   9.6345
     9.6552   9.7981   9.9433   9.9835   9.9880   9.9891   9.9909  10.0102
    10.0294  10.0355  10.0391  10.0421  10.0428  10.0580  10.1415  10.1503
    10.1686  10.4829  10.5924  10.6035  10.7061  10.7164  10.7840  10.8938
    10.9548  10.9615  11.0541  11.0632  11.1211  11.1533  11.2293  11.2668
    11.3104  11.3613  11.3832  11.4110  11.4126  11.4248  11.4302  11.4365
    11.5470  11.5972

     occupation numbers 
     1.0000   1.0000   1.0000   1.0000   1.0000   1.0000   1.0000   1.0000
     1.0000   1.0000   1.0000   1.0000   1.0000   1.0000   1.0000   1.0000
     1.0000   1.0000   1.0000   1.0000   1.0000   1.0000   1.0000   1.0000
     1.0000   1.0000   1.0000   1.0000   1.0000   1.0000   1.0000   1.0000
     1.0000   1.0000   1.0000   1.0000   1.0000   1.0000   1.0000   1.0000
     1.0000   1.0000   1.0000   1.0000   1.0000   1.0000   1.0000   1.0000
     1.0000   1.0000   1.0000   1.0000   1.0000   1.0000   1.0000   1.0000
     1.0000   1.0000   1.0000   1.0000   1.0000   1.0000   1.0000   1.0000
     1.0000   1.0000   1.0000   1.0000   1.0000   1.0000   1.0000   1.0000
     1.0000   1.0000   1.0000   1.0000   1.0000   1.0000   1.0000   1.0000
     1.0000   1.0000   1.0000   1.0000   1.0000   1.0000   1.0000   1.0000
     1.0000   1.0000   1.0000   1.0000   1.0000   1.0000   1.0000   1.0000
     1.0000   1.0000   1.0000   1.0000   1.0000   1.0000   1.0000   1.0000
     1.0000   1.0000   1.0000   1.0000   1.0000   1.0000   1.0000   1.0000
     1.0000   1.0000   1.0000   1.0000   1.0000   1.0000   1.0000   1.0000
     1.0000   1.0000   1.0000   1.0000   1.0000   1.0000   1.0000   1.0000
     1.0000   1.0000   1.0000   1.0000   1.0000   1.0000   1.0000   1.0000
     1.0000   1.0000   1.0000   1.0000   1.0000   1.0000   1.0000   1.0000
     1.0000   1.0000   1.0000   1.0000   1.0000   1.0000   1.0000   1.0000
     1.0000   1.0000   1.0000   1.0000   1.0000   1.0000   1.0000   1.0000
     1.0000   1.0000   1.0000   1.0000   1.0000   1.0000   1.0000   1.0000
     1.0000   1.0000   1.0000   1.0000   1.0000   1.0000   1.0000   1.0000
     1.0000   1.0000   1.0000   1.0000   1.0000   1.0000   1.0000   1.0000
     1.0000   1.0000   1.0000   1.0000   1.0000   1.0000   1.0000   1.0000
     1.0000   1.0000   1.0000   1.0000   1.0000   1.0000   1.0000   1.0000
     1.0000   1.0000   1.0000   1.0000   1.0000   1.0000   1.0000   1.0000
     1.0000   1.0000   1.0000   1.0000   1.0000   1.0000   1.0000   1.0000
     1.0000   1.0000   1.0000   1.0000   1.0000   1.0000   1.0000   1.0000
     1.0000   1.0000   1.0000   1.0000   1.0000   1.0000   1.0000   1.0000
     1.0000   1.0000   1.0000   1.0000   1.0000   1.0000   1.0000   1.0000
     1.0000   1.0000   1.0000   1.0000   1.0000   1.0000   1.0000   1.0000
     1.0000   1.0000   1.0000   1.0000   1.0000   1.0000   1.0000   1.0000
     1.0000   1.0000   1.0000   1.0000   1.0000   1.0000   1.0000   1.0000
     1.0000   1.0000   1.0000   1.0000   1.0000   1.0000   1.0000   1.0000
     1.0000   1.0000   1.0000   1.0000   1.0000   1.0000   1.0000   1.0000
     1.0000   1.0000   1.0000   1.0000   1.0000   1.0000   1.0000   1.0000
     1.0000   1.0000   1.0000   1.0000   1.0000   1.0000   1.0000   1.0000
     1.0000   1.0000   1.0000   1.0000   1.0000   1.0000   1.0000   1.0000
     1.0000   1.0000   1.0000   1.0000   1.0000   1.0000   1.0000   1.0000
     1.0000   1.0000   1.0000   1.0000   1.0000   1.0000   1.0000   1.0000
     1.0000   1.0000   1.0000   1.0000   1.0000   1.0000   1.0000   1.0000
     1.0000   1.0000   1.0000   1.0000   1.0000   1.0000   1.0000   1.0000
     1.0000   1.0000   1.0000   1.0000   1.0000   1.0000   1.0000   1.0000
     1.0000   1.0000   1.0000   1.0000   1.0000   1.0000   1.0000   1.0000
     1.0000   1.0000   1.0000   1.0000   1.0000   1.0000   1.0000   1.0000
     1.0000   1.0000   1.0000   1.0000   1.0000   1.0000   1.0000   1.0000
     1.0000   1.0000   1.0000   1.0000   1.0000   1.0000   1.0000   1.0000
     1.0000   1.0000   1.0000   1.0000   1.0000   1.0000   1.0000   1.0000
     1.0000   1.0000   1.0000   1.0000   1.0000   1.0000   1.0000   1.0000
     1.0000   1.0000   1.0000   1.0000   1.0000   1.0000   1.0000   1.0000
     1.0000   1.0000   1.0000   1.0000   1.0000   1.0000   1.0000   1.0000
     1.0000   1.0000   1.0000   1.0000   1.0000   1.0000   1.0000   1.0000
     1.0000   1.0000   1.0000   1.0000   1.0000   1.0000   1.0000   1.0000
     1.0000   1.0000   1.0000   1.0000   1.0000   1.0000   1.0000   1.0000
     1.0000   1.0000   1.0000   1.0000   1.0000   1.0000   1.0000   1.0000
     1.0000   1.0000   1.0000   1.0000   1.0000   1.0000   1.0000   1.0000
     1.0000   1.0000   1.0000   1.0000   1.0000   1.0000   1.0000   1.0000
     1.0000   1.0000   1.0000   1.0000   1.0000   1.0000   1.0000   1.0000
     1.0000   1.0000   1.0000   1.0000   1.0000   1.0000   1.0000   1.0000
     1.0000   1.0000   1.0000   1.0000   1.0000   1.0000   1.0000   1.0000
     1.0000   1.0000   1.0000   1.0000   1.0000   1.0000   1.0000   1.0000
     1.0000   1.0000   1.0000   1.0000   1.0000   1.0000   1.0000   1.0000
     1.0000   1.0000   1.0000   1.0000   1.0000   1.0000   1.0000   1.0000
     1.0000   1.0000   1.0000   1.0000   1.0000   1.0000   1.0000   1.0000
     1.0000   1.0000   1.0000   1.0000   1.0000   1.0000   1.0000   1.0000
     1.0000   1.0000   1.0000   1.0000   1.0000   1.0000   1.0000   1.0000
     1.0000   1.0000   1.0000   1.0000   1.0000   1.0000   1.0000   1.0000
     1.0000   1.0000   1.0000   1.0000   1.0000   1.0000   1.0000   1.0000
     1.0000   1.0000   1.0000   1.0000   1.0000   1.0000   1.0000   1.0000
     1.0000   1.0000   1.0000   1.0000   1.0000   1.0000   1.0000   1.0000
     1.0000   1.0000   1.0000   1.0000   1.0000   1.0000   1.0000   1.0000
     1.0000   1.0000   1.0000   1.0000   1.0000   1.0000   1.0000   1.0000
     1.0000   1.0000   1.0000   1.0000   1.0000   1.0000   1.0000   1.0000
     1.0000   1.0000   1.0000   1.0000   1.0000   1.0000   1.0000   1.0000
     1.0000   1.0000   1.0000   1.0000   1.0000   1.0000   1.0000   1.0000
     1.0000   1.0000   1.0000   1.0000   1.0000   1.0000   1.0000   1.0000
     1.0000   1.0000   1.0000   1.0000   1.0000   1.0000   1.0000   1.0000
     1.0000   1.0000   1.0000   1.0000   1.0000   1.0000   1.0000   1.0000
     1.0000   1.0000   1.0000   1.0000   1.0000   1.0000   1.0000   1.0000
     1.0000   1.0000   1.0000   1.0000   1.0000   1.0000   1.0000   1.0000
     1.0000   1.0000   1.0000   1.0000   1.0000   1.0000   1.0000   1.0000
     1.0000   1.0000   1.0000   1.0000   1.0000   1.0000   1.0000   1.0000
     1.0000   1.0370   1.0390   1.0419   1.0435   1.0437   1.0478   0.5847
     0.5812   0.5799   0.5742   0.5577   0.5416   0.1491   0.0004   0.0004
     0.0004   0.0000   0.0000   0.0000   0.0000   0.0000   0.0000   0.0000
     0.0000   0.0000   0.0000   0.0000   0.0000   0.0000   0.0000   0.0000
     0.0000   0.0000   0.0000   0.0000   0.0000   0.0000   0.0000   0.0000
     0.0000   0.0000   0.0000   0.0000   0.0000   0.0000   0.0000   0.0000
     0.0000   0.0000   0.0000   0.0000   0.0000   0.0000   0.0000   0.0000
     0.0000   0.0000   0.0000   0.0000   0.0000   0.0000   0.0000   0.0000
     0.0000   0.0000   0.0000   0.0000   0.0000   0.0000   0.0000   0.0000
     0.0000   0.0000   0.0000   0.0000   0.0000   0.0000   0.0000   0.0000
     0.0000   0.0000   0.0000   0.0000   0.0000   0.0000   0.0000   0.0000
     0.0000   0.0000   0.0000   0.0000   0.0000   0.0000   0.0000   0.0000
     0.0000   0.0000   0.0000   0.0000   0.0000   0.0000   0.0000   0.0000
     0.0000   0.0000   0.0000   0.0000   0.0000   0.0000   0.0000   0.0000
     0.0000   0.0000   0.0000   0.0000   0.0000   0.0000   0.0000   0.0000
     0.0000   0.0000   0.0000   0.0000   0.0000   0.0000   0.0000   0.0000
     0.0000   0.0000   0.0000   0.0000   0.0000   0.0000   0.0000   0.0000
     0.0000   0.0000

          k = 0.0000 0.3849 0.0000 ( 90604 PWs)   bands (ev):

  -122.8403-122.8395-122.8391-122.8388-122.8382-122.8379-122.8377-122.8375
  -122.8372-122.8369-122.8368-122.8367-122.8364-122.8363-122.8363-122.8360
  -122.8151-122.8142-122.8088-122.7985-122.7974-122.7967-122.7961-122.7944
  -122.7932-122.7928-122.7923-122.7917-122.7914-122.7904-122.7903-122.7897
  -122.6719-122.6370-122.6359-122.6353-122.6350-122.6346-122.6342-122.6340
  -122.6333-122.6331-122.6327-122.6324-122.6322-122.6320-122.6317-122.6315
  -122.6308-122.6300-122.6298-122.6187-122.6178-122.6161-122.6134-122.6130
  -122.6125-122.6121-122.6107-122.6101-122.6097-122.6093-122.6088-122.6084
   -77.0033 -77.0031 -77.0021 -77.0002 -76.9999 -76.9984 -76.9983 -76.9958
   -76.9956 -76.9954 -76.9918 -76.9915 -76.9915 -76.9909 -76.9904 -76.9901
   -76.9894 -76.9891 -76.9888 -76.9886 -76.9885 -76.9884 -76.9883 -76.9881
   -76.9880 -76.9877 -76.9875 -76.9874 -76.9873 -76.9870 -76.9831 -76.9830
   -76.9826 -76.9826 -76.9799 -76.9799 -76.9793 -76.9792 -76.9778 -76.9774
   -76.9759 -76.9758 -76.9756 -76.9731 -76.9730 -76.9730 -76.9712 -76.9712
   -76.9701 -76.9695 -76.9688 -76.9661 -76.9652 -76.9628 -76.9604 -76.9598
   -76.9578 -76.9570 -76.9562 -76.9544 -76.9529 -76.9516 -76.9499 -76.9495
   -76.9491 -76.9484 -76.9477 -76.9473 -76.9470 -76.9458 -76.9454 -76.9442
   -76.9441 -76.9439 -76.9432 -76.9428 -76.9427 -76.9424 -76.9415 -76.9414
   -76.9412 -76.9407 -76.9396 -76.9380 -76.9376 -76.9359 -76.9351 -76.9343
   -76.9338 -76.9332 -76.9310 -76.9302 -76.9294 -76.9283 -76.9267 -76.9254
   -76.8321 -76.8186 -76.8174 -76.7967 -76.7965 -76.7959 -76.7954 -76.7952
   -76.7946 -76.7941 -76.7937 -76.7930 -76.7929 -76.7929 -76.7926 -76.7924
   -76.7919 -76.7917 -76.7917 -76.7913 -76.7913 -76.7910 -76.7907 -76.7904
   -76.7901 -76.7894 -76.7887 -76.7886 -76.7886 -76.7884 -76.7883 -76.7846
   -76.7845 -76.7841 -76.7833 -76.7816 -76.7815 -76.7814 -76.7794 -76.7784
   -76.7778 -76.7766 -76.7762 -76.7762 -76.7759 -76.7757 -76.7744 -76.7735
   -76.7733 -76.7731 -76.7729 -76.7726 -76.7723 -76.7722 -76.7717 -76.7713
   -76.7710 -76.7709 -76.7707 -76.7701 -76.7700 -76.7697 -76.7693 -76.7691
   -76.7688 -76.7687 -76.7687 -76.7685 -76.7682 -76.7681 -76.7669 -76.7662
   -76.7658 -76.7658 -76.7644 -76.7642 -76.7638 -76.7621 -76.7621 -76.7597
   -76.7587 -76.7584 -76.7567 -76.7549 -76.7535 -76.7518 -76.7509 -76.7498
   -76.7494 -76.7489 -76.7468 -76.7464 -76.7450 -76.7438 -76.7425 -76.7416
   -15.5153 -14.1018 -13.2773 -10.9198 -10.8089  -7.9068  -7.6227  -6.2597
    -5.7432  -5.6527  -5.4841  -5.1578  -5.1524  -5.1052  -5.1049  -4.9480
    -4.8139  -4.7521  -4.6486  -4.6081  -4.6032  -4.6030  -4.5938  -4.5623
    -4.5549  -4.5506  -4.5492  -4.5472  -4.5460  -4.5225  -4.5129  -4.4650
    -4.4541  -4.4295  -4.4291  -4.4134  -4.4112  -4.4003  -4.4001  -4.3848
    -4.3750  -4.3550  -4.3542  -4.3421  -4.3409  -4.3361  -4.3352  -4.3149
    -4.3110  -4.3109  -4.3011  -4.3008  -4.2866  -4.2863  -4.2825  -4.2807
    -4.2806  -4.2651  -4.2648  -4.2518  -4.2469  -4.2369  -4.2354  -4.2307
    -4.2306  -4.2169  -4.2148  -4.2140  -4.2117  -4.2104  -4.1963  -4.1950
    -4.1945  -4.1636  -4.1628  -4.1608  -4.1579  -4.1438  -4.1411  -4.1386
    -4.1366  -4.1326  -4.1306  -4.1299  -4.0891  -4.0854  -4.0810  -4.0791
    -4.0749  -4.0602  -4.0555  -4.0542  -4.0538  -4.0422  -4.0420  -4.0337
    -4.0166  -4.0147  -4.0122  -4.0070  -4.0063  -4.0052  -3.9997  -3.9983
    -3.9966  -3.9792  -3.9774  -3.9713  -3.9703  -3.9672  -3.9652  -3.9621
    -3.9615  -3.9601  -3.9584  -3.9495  -3.9487  -3.9396  -3.9379  -3.9360
    -3.9165  -3.8982  -3.8914  -3.8872  -3.8810  -3.8712  -3.8690  -3.8653
    -3.8637  -3.8632  -3.8573  -3.8557  -3.8540  -3.8511  -3.8501  -3.8369
    -3.8281  -3.8272  -3.8221  -3.8216  -3.8027  -3.8016  -3.7898  -3.7848
    -3.7804  -3.7781  -3.7755  -3.7715  -3.7698  -3.7548  -3.7526  -3.7481
    -3.7456  -3.7350  -3.7321  -3.7296  -3.7104  -3.7090  -3.7064  -3.7050
    -3.7039  -3.6943  -3.6929  -3.6842  -3.6824  -3.6807  -3.6791  -3.6776
    -3.6515  -3.6503  -3.6496  -3.6489  -3.6448  -3.6272  -3.6267  -3.6257
    -3.6251  -3.6076  -3.6052  -3.5940  -3.5935  -3.5747  -3.5736  -3.5720
    -3.5720  -3.5710  -3.5669  -3.5660  -3.5641  -3.5622  -3.5602  -3.5535
    -3.5526  -3.5424  -3.5406  -3.5354  -3.5340  -3.5320  -3.5313  -3.5217
    -3.5213  -3.5135  -3.5121  -3.5095  -3.5090  -3.5074  -3.5021  -3.5012
    -3.4931  -3.4884  -3.4876  -3.4776  -3.4740  -3.4709  -3.4698  -3.4682
    -3.4618  -3.4609  -3.4572  -3.4544  -3.4536  -3.4510  -3.4500  -3.4471
    -3.4459  -3.4314  -3.4294  -3.4284  -3.4271  -3.4262  -3.4253  -3.4220
    -3.4205  -3.4196  -3.4103  -3.3940  -3.3930  -3.3925  -3.3897  -3.3879
    -3.3727  -3.3710  -3.3622  -3.3611  -3.3425  -3.3358  -3.3338  -3.3317
    -3.3312  -3.3303  -3.3283  -3.3272  -3.3240  -3.3224  -3.3212  -3.3205
    -3.3131  -3.3128  -3.3094  -3.3068  -3.3064  -3.3038  -3.3033  -3.3003
    -3.2981  -3.2932  -3.2925  -3.2911  -3.2902  -3.2884  -3.2806  -3.2746
    -3.2741  -3.2666  -3.2658  -3.2500  -3.2491  -3.2482  -3.2412  -3.2372
    -3.2369  -3.2367  -3.2359  -3.2149  -3.2119  -3.2077  -3.2061  -3.2026
    -3.2003  -3.1987  -3.1970  -3.1961  -3.1954  -3.1947  -3.1943  -3.1931
    -3.1917  -3.1865  -3.1828  -3.1812  -3.1806  -3.1768  -3.1748  -3.1742
    -3.1670  -3.1656  -3.1654  -3.1559  -3.1552  -3.1545  -3.1497  -3.1463
    -3.1460  -3.1378  -3.1205  -3.1204  -3.1059  -3.0975  -3.0899  -3.0878
    -3.0859  -3.0851  -3.0656  -3.0624  -3.0618  -3.0613  -3.0605  -3.0575
    -3.0475  -3.0456  -3.0418  -3.0118  -2.9915  -2.9893  -2.9346  -2.9346
    -2.9199  -2.9181  -2.8995  -2.8837  -2.7924  -2.7907  -2.7293  -2.6172
    -2.4547  -2.2584  -2.1344  -2.1279  -2.1090  -1.8240  -1.7743  -1.7500
    -1.6372  -1.6337  -1.6268  -0.9136  -0.8618  -0.8524  -0.8290  -0.7442
    -0.6840  -0.6777  -0.6206  -0.3720  -0.1323  -0.1232   0.1104   0.1129
     0.1714   0.1717   0.2124   0.3047   0.5197   0.5707   0.5774   0.6628
     0.6637   1.0041   1.0043   1.1618   1.1640   1.2449   1.4540   1.4581
     1.4719   1.6135   1.6870   2.1086   2.1135   2.2664   2.3370   2.3410
     2.3924   2.3975   2.5948   2.6434   2.6635   2.9460   2.9562   3.0122
     3.0233   3.0778   3.0812   3.1302   3.9408   3.9466   4.2450   4.2479
     4.3621   4.3977   4.4051   4.5462   4.5518   4.7829   4.7847   4.9942
     5.0446   5.1440   5.1869   5.1876   5.6041   5.6170   5.6254   5.6282
     5.7028   5.7110   5.7785   5.7823   5.7853   5.8924   5.8941   6.1781
     6.2474   6.2526   6.3399   6.3403   6.3995   6.6533   6.7602   6.8241
     6.8420   7.0451   7.0471   7.2068   7.2101   7.3019   7.3241   7.3355
     7.3601   7.3990   7.5120   7.5373   7.5488   7.7714   7.9013   7.9137
     7.9498   7.9658   7.9775   7.9821   7.9922   8.0279   8.1130   8.1202
     8.1425   8.1469   8.1630   8.4157   8.5129   8.5234   8.5267   8.5461
     8.6800   8.7450   8.7586   8.7749   8.8288   8.9169   9.0250   9.0849
     9.1589   9.1791   9.2446   9.2583   9.2690   9.2880   9.3755   9.3918
     9.4017   9.4323   9.5789   9.6447   9.6544   9.6967   9.7667   9.7735
     9.8723   9.9010   9.9739  10.0671  10.1176  10.1284  10.1651  10.1796
    10.2416  10.2661  10.2738  10.2964  10.3611  10.4213  10.4405  10.4829
    10.5241  10.5595  10.6522  10.6872  10.7229  10.8282  10.8713  10.8768
    10.8972  10.9874  11.0359  11.0973  11.1066  11.1167  11.1291  11.1369
    11.1555  11.1807  11.2073  11.2866  11.3615  11.4064  11.4883  11.5696
    11.6509  11.7079

     occupation numbers 
     1.0000   1.0000   1.0000   1.0000   1.0000   1.0000   1.0000   1.0000
     1.0000   1.0000   1.0000   1.0000   1.0000   1.0000   1.0000   1.0000
     1.0000   1.0000   1.0000   1.0000   1.0000   1.0000   1.0000   1.0000
     1.0000   1.0000   1.0000   1.0000   1.0000   1.0000   1.0000   1.0000
     1.0000   1.0000   1.0000   1.0000   1.0000   1.0000   1.0000   1.0000
     1.0000   1.0000   1.0000   1.0000   1.0000   1.0000   1.0000   1.0000
     1.0000   1.0000   1.0000   1.0000   1.0000   1.0000   1.0000   1.0000
     1.0000   1.0000   1.0000   1.0000   1.0000   1.0000   1.0000   1.0000
     1.0000   1.0000   1.0000   1.0000   1.0000   1.0000   1.0000   1.0000
     1.0000   1.0000   1.0000   1.0000   1.0000   1.0000   1.0000   1.0000
     1.0000   1.0000   1.0000   1.0000   1.0000   1.0000   1.0000   1.0000
     1.0000   1.0000   1.0000   1.0000   1.0000   1.0000   1.0000   1.0000
     1.0000   1.0000   1.0000   1.0000   1.0000   1.0000   1.0000   1.0000
     1.0000   1.0000   1.0000   1.0000   1.0000   1.0000   1.0000   1.0000
     1.0000   1.0000   1.0000   1.0000   1.0000   1.0000   1.0000   1.0000
     1.0000   1.0000   1.0000   1.0000   1.0000   1.0000   1.0000   1.0000
     1.0000   1.0000   1.0000   1.0000   1.0000   1.0000   1.0000   1.0000
     1.0000   1.0000   1.0000   1.0000   1.0000   1.0000   1.0000   1.0000
     1.0000   1.0000   1.0000   1.0000   1.0000   1.0000   1.0000   1.0000
     1.0000   1.0000   1.0000   1.0000   1.0000   1.0000   1.0000   1.0000
     1.0000   1.0000   1.0000   1.0000   1.0000   1.0000   1.0000   1.0000
     1.0000   1.0000   1.0000   1.0000   1.0000   1.0000   1.0000   1.0000
     1.0000   1.0000   1.0000   1.0000   1.0000   1.0000   1.0000   1.0000
     1.0000   1.0000   1.0000   1.0000   1.0000   1.0000   1.0000   1.0000
     1.0000   1.0000   1.0000   1.0000   1.0000   1.0000   1.0000   1.0000
     1.0000   1.0000   1.0000   1.0000   1.0000   1.0000   1.0000   1.0000
     1.0000   1.0000   1.0000   1.0000   1.0000   1.0000   1.0000   1.0000
     1.0000   1.0000   1.0000   1.0000   1.0000   1.0000   1.0000   1.0000
     1.0000   1.0000   1.0000   1.0000   1.0000   1.0000   1.0000   1.0000
     1.0000   1.0000   1.0000   1.0000   1.0000   1.0000   1.0000   1.0000
     1.0000   1.0000   1.0000   1.0000   1.0000   1.0000   1.0000   1.0000
     1.0000   1.0000   1.0000   1.0000   1.0000   1.0000   1.0000   1.0000
     1.0000   1.0000   1.0000   1.0000   1.0000   1.0000   1.0000   1.0000
     1.0000   1.0000   1.0000   1.0000   1.0000   1.0000   1.0000   1.0000
     1.0000   1.0000   1.0000   1.0000   1.0000   1.0000   1.0000   1.0000
     1.0000   1.0000   1.0000   1.0000   1.0000   1.0000   1.0000   1.0000
     1.0000   1.0000   1.0000   1.0000   1.0000   1.0000   1.0000   1.0000
     1.0000   1.0000   1.0000   1.0000   1.0000   1.0000   1.0000   1.0000
     1.0000   1.0000   1.0000   1.0000   1.0000   1.0000   1.0000   1.0000
     1.0000   1.0000   1.0000   1.0000   1.0000   1.0000   1.0000   1.0000
     1.0000   1.0000   1.0000   1.0000   1.0000   1.0000   1.0000   1.0000
     1.0000   1.0000   1.0000   1.0000   1.0000   1.0000   1.0000   1.0000
     1.0000   1.0000   1.0000   1.0000   1.0000   1.0000   1.0000   1.0000
     1.0000   1.0000   1.0000   1.0000   1.0000   1.0000   1.0000   1.0000
     1.0000   1.0000   1.0000   1.0000   1.0000   1.0000   1.0000   1.0000
     1.0000   1.0000   1.0000   1.0000   1.0000   1.0000   1.0000   1.0000
     1.0000   1.0000   1.0000   1.0000   1.0000   1.0000   1.0000   1.0000
     1.0000   1.0000   1.0000   1.0000   1.0000   1.0000   1.0000   1.0000
     1.0000   1.0000   1.0000   1.0000   1.0000   1.0000   1.0000   1.0000
     1.0000   1.0000   1.0000   1.0000   1.0000   1.0000   1.0000   1.0000
     1.0000   1.0000   1.0000   1.0000   1.0000   1.0000   1.0000   1.0000
     1.0000   1.0000   1.0000   1.0000   1.0000   1.0000   1.0000   1.0000
     1.0000   1.0000   1.0000   1.0000   1.0000   1.0000   1.0000   1.0000
     1.0000   1.0000   1.0000   1.0000   1.0000   1.0000   1.0000   1.0000
     1.0000   1.0000   1.0000   1.0000   1.0000   1.0000   1.0000   1.0000
     1.0000   1.0000   1.0000   1.0000   1.0000   1.0000   1.0000   1.0000
     1.0000   1.0000   1.0000   1.0000   1.0000   1.0000   1.0000   1.0000
     1.0000   1.0000   1.0000   1.0000   1.0000   1.0000   1.0000   1.0000
     1.0000   1.0000   1.0000   1.0000   1.0000   1.0000   1.0000   1.0000
     1.0000   1.0000   1.0000   1.0000   1.0000   1.0000   1.0000   1.0000
     1.0000   1.0000   1.0000   1.0000   1.0000   1.0000   1.0000   1.0000
     1.0000   1.0000   1.0000   1.0000   1.0000   1.0000   1.0000   1.0000
     1.0000   1.0000   1.0000   1.0000   1.0000   1.0000   1.0000   1.0000
     1.0000   1.0000   1.0000   1.0000   1.0000   1.0000   1.0000   1.0000
     1.0000   1.0000   1.0000   1.0000   1.0000   1.0000   1.0000   1.0000
     1.0000   1.0000   1.0000   1.0000   1.0000   1.0000   1.0000   1.0000
     1.0000   1.0000   1.0000   1.0000   1.0000   1.0000   1.0000   1.0000
     1.0000   1.0000   1.0000   1.0000   1.0000   1.0000   1.0000   1.0000
     1.0000   1.0000   1.0000   1.0000   1.0000   1.0000   1.0000   1.0000
     1.0000   1.0000   1.0000   1.0000   1.0000   1.0000   1.0000   1.0000
     1.0000   1.0000   1.0000   1.0000   1.0000   1.0000   1.0000   1.0000
     1.0000   1.0000   1.0000   1.0000   1.0000   1.0000   1.0000   1.0000
     1.0000   1.0000   1.0000   1.0000   1.0000   1.0000   1.0000   1.0000
     1.0000   1.0000   1.0000   1.0000   1.0000   1.0000   1.0000   1.0000
     1.0000   1.0000   1.0000   1.0000   1.0000   1.0000   1.0000   1.0000
     1.0000   1.0000   1.0000   1.0000   1.0000   1.0000   1.0000   1.0000
     1.0000   1.0000   1.0000   1.0000   1.0000   1.0000   1.0000   1.0000
     1.0000   1.0000   1.0000   1.0000   1.0000   1.0000   1.0000   1.0000
     1.0000   1.0000   1.0000   1.0000   1.0000   1.0000   1.0000   1.0000
     1.0000   1.0000   1.0000   1.0000   1.0000   1.0000   1.0000   1.0000
     1.0000   1.0000   1.0000   1.0000   1.0000   1.0000   1.0000   1.0000
     1.0000   1.0000   1.0000   1.0000   1.0000   1.0000   1.0000   1.0000
     1.0000   1.0001   1.0001   1.0004   0.6368   0.6208   0.0584   0.0565
     0.0126   0.0074   0.0066   0.0006   0.0005   0.0000   0.0000   0.0000
     0.0000   0.0000   0.0000   0.0000   0.0000   0.0000   0.0000   0.0000
     0.0000   0.0000   0.0000   0.0000   0.0000   0.0000   0.0000   0.0000
     0.0000   0.0000   0.0000   0.0000   0.0000   0.0000   0.0000   0.0000
     0.0000   0.0000   0.0000   0.0000   0.0000   0.0000   0.0000   0.0000
     0.0000   0.0000   0.0000   0.0000   0.0000   0.0000   0.0000   0.0000
     0.0000   0.0000   0.0000   0.0000   0.0000   0.0000   0.0000   0.0000
     0.0000   0.0000   0.0000   0.0000   0.0000   0.0000   0.0000   0.0000
     0.0000   0.0000   0.0000   0.0000   0.0000   0.0000   0.0000   0.0000
     0.0000   0.0000   0.0000   0.0000   0.0000   0.0000   0.0000   0.0000
     0.0000   0.0000   0.0000   0.0000   0.0000   0.0000   0.0000   0.0000
     0.0000   0.0000   0.0000   0.0000   0.0000   0.0000   0.0000   0.0000
     0.0000   0.0000   0.0000   0.0000   0.0000   0.0000   0.0000   0.0000
     0.0000   0.0000   0.0000   0.0000   0.0000   0.0000   0.0000   0.0000
     0.0000   0.0000   0.0000   0.0000   0.0000   0.0000   0.0000   0.0000
     0.0000   0.0000   0.0000   0.0000   0.0000   0.0000   0.0000   0.0000
     0.0000   0.0000

          k = 0.3333 0.1925 0.0000 ( 90604 PWs)   bands (ev):

  -122.8403-122.8395-122.8391-122.8388-122.8381-122.8380-122.8377-122.8374
  -122.8372-122.8369-122.8368-122.8367-122.8365-122.8364-122.8362-122.8360
  -122.8151-122.8142-122.8088-122.7985-122.7974-122.7967-122.7961-122.7944
  -122.7933-122.7928-122.7923-122.7917-122.7914-122.7905-122.7903-122.7897
  -122.6719-122.6370-122.6359-122.6354-122.6349-122.6346-122.6342-122.6340
  -122.6333-122.6331-122.6327-122.6324-122.6322-122.6320-122.6317-122.6315
  -122.6308-122.6300-122.6298-122.6187-122.6178-122.6161-122.6134-122.6130
  -122.6125-122.6121-122.6107-122.6101-122.6097-122.6093-122.6088-122.6084
   -77.0033 -77.0031 -77.0021 -77.0002 -76.9999 -76.9984 -76.9983 -76.9958
   -76.9956 -76.9954 -76.9918 -76.9915 -76.9915 -76.9910 -76.9904 -76.9901
   -76.9893 -76.9892 -76.9889 -76.9886 -76.9885 -76.9884 -76.9884 -76.9880
   -76.9879 -76.9878 -76.9875 -76.9875 -76.9872 -76.9870 -76.9831 -76.9830
   -76.9826 -76.9826 -76.9799 -76.9799 -76.9793 -76.9792 -76.9778 -76.9774
   -76.9759 -76.9757 -76.9756 -76.9731 -76.9730 -76.9729 -76.9712 -76.9712
   -76.9700 -76.9695 -76.9688 -76.9661 -76.9652 -76.9629 -76.9606 -76.9598
   -76.9579 -76.9572 -76.9564 -76.9539 -76.9526 -76.9513 -76.9497 -76.9495
   -76.9486 -76.9484 -76.9477 -76.9473 -76.9470 -76.9462 -76.9454 -76.9447
   -76.9443 -76.9438 -76.9432 -76.9430 -76.9427 -76.9424 -76.9416 -76.9414
   -76.9412 -76.9407 -76.9396 -76.9380 -76.9378 -76.9361 -76.9350 -76.9342
   -76.9335 -76.9331 -76.9309 -76.9301 -76.9296 -76.9279 -76.9265 -76.9259
   -76.8321 -76.8186 -76.8174 -76.7966 -76.7966 -76.7959 -76.7955 -76.7952
   -76.7946 -76.7942 -76.7936 -76.7930 -76.7929 -76.7929 -76.7927 -76.7924
   -76.7919 -76.7917 -76.7917 -76.7913 -76.7913 -76.7910 -76.7907 -76.7904
   -76.7901 -76.7894 -76.7887 -76.7886 -76.7886 -76.7884 -76.7883 -76.7846
   -76.7845 -76.7839 -76.7835 -76.7817 -76.7815 -76.7814 -76.7794 -76.7784
   -76.7778 -76.7766 -76.7762 -76.7762 -76.7760 -76.7756 -76.7744 -76.7735
   -76.7733 -76.7730 -76.7729 -76.7726 -76.7723 -76.7722 -76.7717 -76.7713
   -76.7710 -76.7709 -76.7707 -76.7701 -76.7700 -76.7697 -76.7693 -76.7691
   -76.7688 -76.7688 -76.7687 -76.7683 -76.7682 -76.7681 -76.7669 -76.7662
   -76.7659 -76.7658 -76.7643 -76.7642 -76.7638 -76.7622 -76.7621 -76.7595
   -76.7588 -76.7584 -76.7567 -76.7548 -76.7535 -76.7518 -76.7509 -76.7499
   -76.7493 -76.7489 -76.7468 -76.7465 -76.7450 -76.7439 -76.7425 -76.7415
   -15.5153 -14.1018 -13.2773 -10.9198 -10.8089  -7.9068  -7.6227  -6.2596
    -5.7432  -5.6527  -5.4841  -5.1578  -5.1523  -5.1052  -5.1049  -4.9479
    -4.8139  -4.7521  -4.6486  -4.6080  -4.6032  -4.6030  -4.5938  -4.5621
    -4.5550  -4.5509  -4.5494  -4.5467  -4.5460  -4.5226  -4.5129  -4.4649
    -4.4541  -4.4295  -4.4291  -4.4135  -4.4112  -4.4002  -4.4001  -4.3848
    -4.3750  -4.3550  -4.3543  -4.3421  -4.3409  -4.3361  -4.3352  -4.3148
    -4.3110  -4.3109  -4.3013  -4.3008  -4.2866  -4.2863  -4.2823  -4.2808
    -4.2805  -4.2651  -4.2647  -4.2518  -4.2469  -4.2369  -4.2354  -4.2308
    -4.2306  -4.2168  -4.2147  -4.2140  -4.2118  -4.2104  -4.1964  -4.1950
    -4.1945  -4.1637  -4.1629  -4.1607  -4.1579  -4.1438  -4.1412  -4.1385
    -4.1366  -4.1326  -4.1305  -4.1299  -4.0891  -4.0855  -4.0810  -4.0792
    -4.0749  -4.0600  -4.0556  -4.0544  -4.0538  -4.0422  -4.0420  -4.0337
    -4.0167  -4.0147  -4.0122  -4.0070  -4.0064  -4.0052  -3.9998  -3.9982
    -3.9967  -3.9791  -3.9774  -3.9713  -3.9702  -3.9671  -3.9650  -3.9622
    -3.9615  -3.9602  -3.9584  -3.9495  -3.9487  -3.9396  -3.9379  -3.9360
    -3.9165  -3.8983  -3.8914  -3.8872  -3.8810  -3.8711  -3.8688  -3.8650
    -3.8636  -3.8632  -3.8572  -3.8558  -3.8544  -3.8512  -3.8501  -3.8368
    -3.8278  -3.8271  -3.8221  -3.8216  -3.8027  -3.8016  -3.7898  -3.7851
    -3.7805  -3.7782  -3.7755  -3.7716  -3.7698  -3.7547  -3.7526  -3.7481
    -3.7456  -3.7351  -3.7321  -3.7296  -3.7104  -3.7091  -3.7064  -3.7050
    -3.7038  -3.6943  -3.6929  -3.6842  -3.6824  -3.6808  -3.6791  -3.6776
    -3.6516  -3.6504  -3.6496  -3.6490  -3.6450  -3.6270  -3.6267  -3.6256
    -3.6250  -3.6075  -3.6052  -3.5939  -3.5934  -3.5747  -3.5736  -3.5722
    -3.5719  -3.5710  -3.5669  -3.5660  -3.5638  -3.5621  -3.5601  -3.5536
    -3.5526  -3.5426  -3.5407  -3.5354  -3.5340  -3.5320  -3.5313  -3.5217
    -3.5213  -3.5134  -3.5121  -3.5095  -3.5090  -3.5074  -3.5021  -3.5010
    -3.4932  -3.4885  -3.4876  -3.4775  -3.4739  -3.4709  -3.4699  -3.4684
    -3.4618  -3.4609  -3.4572  -3.4544  -3.4535  -3.4510  -3.4500  -3.4471
    -3.4456  -3.4314  -3.4294  -3.4285  -3.4270  -3.4263  -3.4254  -3.4220
    -3.4206  -3.4196  -3.4103  -3.3941  -3.3931  -3.3925  -3.3896  -3.3879
    -3.3727  -3.3711  -3.3622  -3.3611  -3.3426  -3.3358  -3.3338  -3.3318
    -3.3312  -3.3300  -3.3283  -3.3271  -3.3241  -3.3224  -3.3212  -3.3206
    -3.3131  -3.3129  -3.3094  -3.3068  -3.3063  -3.3038  -3.3034  -3.3003
    -3.2982  -3.2931  -3.2925  -3.2911  -3.2902  -3.2886  -3.2806  -3.2746
    -3.2741  -3.2666  -3.2659  -3.2500  -3.2492  -3.2482  -3.2412  -3.2371
    -3.2368  -3.2366  -3.2359  -3.2149  -3.2119  -3.2077  -3.2061  -3.2026
    -3.2003  -3.1986  -3.1969  -3.1963  -3.1954  -3.1947  -3.1943  -3.1932
    -3.1915  -3.1864  -3.1827  -3.1812  -3.1805  -3.1768  -3.1747  -3.1741
    -3.1670  -3.1656  -3.1655  -3.1560  -3.1553  -3.1545  -3.1497  -3.1464
    -3.1460  -3.1379  -3.1205  -3.1204  -3.1059  -3.0976  -3.0900  -3.0878
    -3.0858  -3.0851  -3.0656  -3.0624  -3.0619  -3.0613  -3.0605  -3.0574
    -3.0475  -3.0455  -3.0418  -3.0118  -2.9916  -2.9894  -2.9346  -2.9346
    -2.9199  -2.9181  -2.8995  -2.8837  -2.7924  -2.7908  -2.7293  -2.6172
    -2.4548  -2.2584  -2.1344  -2.1279  -2.1090  -1.8239  -1.7744  -1.7501
    -1.6372  -1.6337  -1.6268  -0.9136  -0.8618  -0.8524  -0.8290  -0.7442
    -0.6840  -0.6777  -0.6206  -0.3720  -0.1324  -0.1232   0.1104   0.1129
     0.1715   0.1717   0.2123   0.3047   0.5197   0.5707   0.5774   0.6628
     0.6637   1.0041   1.0043   1.1617   1.1641   1.2449   1.4540   1.4581
     1.4719   1.6133   1.6870   2.1086   2.1135   2.2664   2.3370   2.3410
     2.3924   2.3975   2.5949   2.6437   2.6635   2.9458   2.9562   3.0123
     3.0231   3.0780   3.0815   3.1300   3.9408   3.9467   4.2449   4.2478
     4.3621   4.3974   4.4052   4.5460   4.5516   4.7827   4.7839   4.9943
     5.0449   5.1446   5.1868   5.1874   5.6040   5.6167   5.6254   5.6284
     5.7029   5.7110   5.7790   5.7824   5.7861   5.8923   5.8938   6.1778
     6.2477   6.2527   6.3397   6.3402   6.3997   6.6543   6.7597   6.8242
     6.8419   7.0453   7.0471   7.2067   7.2102   7.3014   7.3240   7.3356
     7.3606   7.4000   7.5113   7.5371   7.5483   7.7714   7.9030   7.9120
     7.9494   7.9651   7.9777   7.9818   7.9924   8.0284   8.1129   8.1203
     8.1418   8.1465   8.1622   8.4159   8.5142   8.5235   8.5272   8.5478
     8.6800   8.7458   8.7597   8.7743   8.8298   8.9171   9.0259   9.0820
     9.1588   9.1774   9.2443   9.2597   9.2696   9.2886   9.3737   9.3917
     9.4007   9.4318   9.5788   9.6445   9.6549   9.6945   9.7666   9.7734
     9.8718   9.9014   9.9730  10.0692  10.1187  10.1289  10.1635  10.1792
    10.2412  10.2649  10.2749  10.2967  10.3606  10.4218  10.4450  10.4832
    10.5270  10.5578  10.6512  10.6863  10.7231  10.8251  10.8716  10.8770
    10.8985  10.9908  11.0340  11.0930  11.1048  11.1162  11.1284  11.1366
    11.1536  11.1834  11.2077  11.2878  11.3598  11.4084  11.4876  11.5718
    11.6474  11.7118

     occupation numbers 
     1.0000   1.0000   1.0000   1.0000   1.0000   1.0000   1.0000   1.0000
     1.0000   1.0000   1.0000   1.0000   1.0000   1.0000   1.0000   1.0000
     1.0000   1.0000   1.0000   1.0000   1.0000   1.0000   1.0000   1.0000
     1.0000   1.0000   1.0000   1.0000   1.0000   1.0000   1.0000   1.0000
     1.0000   1.0000   1.0000   1.0000   1.0000   1.0000   1.0000   1.0000
     1.0000   1.0000   1.0000   1.0000   1.0000   1.0000   1.0000   1.0000
     1.0000   1.0000   1.0000   1.0000   1.0000   1.0000   1.0000   1.0000
     1.0000   1.0000   1.0000   1.0000   1.0000   1.0000   1.0000   1.0000
     1.0000   1.0000   1.0000   1.0000   1.0000   1.0000   1.0000   1.0000
     1.0000   1.0000   1.0000   1.0000   1.0000   1.0000   1.0000   1.0000
     1.0000   1.0000   1.0000   1.0000   1.0000   1.0000   1.0000   1.0000
     1.0000   1.0000   1.0000   1.0000   1.0000   1.0000   1.0000   1.0000
     1.0000   1.0000   1.0000   1.0000   1.0000   1.0000   1.0000   1.0000
     1.0000   1.0000   1.0000   1.0000   1.0000   1.0000   1.0000   1.0000
     1.0000   1.0000   1.0000   1.0000   1.0000   1.0000   1.0000   1.0000
     1.0000   1.0000   1.0000   1.0000   1.0000   1.0000   1.0000   1.0000
     1.0000   1.0000   1.0000   1.0000   1.0000   1.0000   1.0000   1.0000
     1.0000   1.0000   1.0000   1.0000   1.0000   1.0000   1.0000   1.0000
     1.0000   1.0000   1.0000   1.0000   1.0000   1.0000   1.0000   1.0000
     1.0000   1.0000   1.0000   1.0000   1.0000   1.0000   1.0000   1.0000
     1.0000   1.0000   1.0000   1.0000   1.0000   1.0000   1.0000   1.0000
     1.0000   1.0000   1.0000   1.0000   1.0000   1.0000   1.0000   1.0000
     1.0000   1.0000   1.0000   1.0000   1.0000   1.0000   1.0000   1.0000
     1.0000   1.0000   1.0000   1.0000   1.0000   1.0000   1.0000   1.0000
     1.0000   1.0000   1.0000   1.0000   1.0000   1.0000   1.0000   1.0000
     1.0000   1.0000   1.0000   1.0000   1.0000   1.0000   1.0000   1.0000
     1.0000   1.0000   1.0000   1.0000   1.0000   1.0000   1.0000   1.0000
     1.0000   1.0000   1.0000   1.0000   1.0000   1.0000   1.0000   1.0000
     1.0000   1.0000   1.0000   1.0000   1.0000   1.0000   1.0000   1.0000
     1.0000   1.0000   1.0000   1.0000   1.0000   1.0000   1.0000   1.0000
     1.0000   1.0000   1.0000   1.0000   1.0000   1.0000   1.0000   1.0000
     1.0000   1.0000   1.0000   1.0000   1.0000   1.0000   1.0000   1.0000
     1.0000   1.0000   1.0000   1.0000   1.0000   1.0000   1.0000   1.0000
     1.0000   1.0000   1.0000   1.0000   1.0000   1.0000   1.0000   1.0000
     1.0000   1.0000   1.0000   1.0000   1.0000   1.0000   1.0000   1.0000
     1.0000   1.0000   1.0000   1.0000   1.0000   1.0000   1.0000   1.0000
     1.0000   1.0000   1.0000   1.0000   1.0000   1.0000   1.0000   1.0000
     1.0000   1.0000   1.0000   1.0000   1.0000   1.0000   1.0000   1.0000
     1.0000   1.0000   1.0000   1.0000   1.0000   1.0000   1.0000   1.0000
     1.0000   1.0000   1.0000   1.0000   1.0000   1.0000   1.0000   1.0000
     1.0000   1.0000   1.0000   1.0000   1.0000   1.0000   1.0000   1.0000
     1.0000   1.0000   1.0000   1.0000   1.0000   1.0000   1.0000   1.0000
     1.0000   1.0000   1.0000   1.0000   1.0000   1.0000   1.0000   1.0000
     1.0000   1.0000   1.0000   1.0000   1.0000   1.0000   1.0000   1.0000
     1.0000   1.0000   1.0000   1.0000   1.0000   1.0000   1.0000   1.0000
     1.0000   1.0000   1.0000   1.0000   1.0000   1.0000   1.0000   1.0000
     1.0000   1.0000   1.0000   1.0000   1.0000   1.0000   1.0000   1.0000
     1.0000   1.0000   1.0000   1.0000   1.0000   1.0000   1.0000   1.0000
     1.0000   1.0000   1.0000   1.0000   1.0000   1.0000   1.0000   1.0000
     1.0000   1.0000   1.0000   1.0000   1.0000   1.0000   1.0000   1.0000
     1.0000   1.0000   1.0000   1.0000   1.0000   1.0000   1.0000   1.0000
     1.0000   1.0000   1.0000   1.0000   1.0000   1.0000   1.0000   1.0000
     1.0000   1.0000   1.0000   1.0000   1.0000   1.0000   1.0000   1.0000
     1.0000   1.0000   1.0000   1.0000   1.0000   1.0000   1.0000   1.0000
     1.0000   1.0000   1.0000   1.0000   1.0000   1.0000   1.0000   1.0000
     1.0000   1.0000   1.0000   1.0000   1.0000   1.0000   1.0000   1.0000
     1.0000   1.0000   1.0000   1.0000   1.0000   1.0000   1.0000   1.0000
     1.0000   1.0000   1.0000   1.0000   1.0000   1.0000   1.0000   1.0000
     1.0000   1.0000   1.0000   1.0000   1.0000   1.0000   1.0000   1.0000
     1.0000   1.0000   1.0000   1.0000   1.0000   1.0000   1.0000   1.0000
     1.0000   1.0000   1.0000   1.0000   1.0000   1.0000   1.0000   1.0000
     1.0000   1.0000   1.0000   1.0000   1.0000   1.0000   1.0000   1.0000
     1.0000   1.0000   1.0000   1.0000   1.0000   1.0000   1.0000   1.0000
     1.0000   1.0000   1.0000   1.0000   1.0000   1.0000   1.0000   1.0000
     1.0000   1.0000   1.0000   1.0000   1.0000   1.0000   1.0000   1.0000
     1.0000   1.0000   1.0000   1.0000   1.0000   1.0000   1.0000   1.0000
     1.0000   1.0000   1.0000   1.0000   1.0000   1.0000   1.0000   1.0000
     1.0000   1.0000   1.0000   1.0000   1.0000   1.0000   1.0000   1.0000
     1.0000   1.0000   1.0000   1.0000   1.0000   1.0000   1.0000   1.0000
     1.0000   1.0000   1.0000   1.0000   1.0000   1.0000   1.0000   1.0000
     1.0000   1.0000   1.0000   1.0000   1.0000   1.0000   1.0000   1.0000
     1.0000   1.0000   1.0000   1.0000   1.0000   1.0000   1.0000   1.0000
     1.0000   1.0000   1.0000   1.0000   1.0000   1.0000   1.0000   1.0000
     1.0000   1.0000   1.0000   1.0000   1.0000   1.0000   1.0000   1.0000
     1.0000   1.0000   1.0000   1.0000   1.0000   1.0000   1.0000   1.0000
     1.0000   1.0000   1.0000   1.0000   1.0000   1.0000   1.0000   1.0000
     1.0000   1.0000   1.0000   1.0000   1.0000   1.0000   1.0000   1.0000
     1.0000   1.0000   1.0000   1.0000   1.0000   1.0000   1.0000   1.0000
[...]
     atom   77 type  4   force =     0.00000000    0.00000000    0.00000000
     atom   78 type  4   force =     0.00000000    0.00000000    0.00000000
     atom   79 type  4   force =     0.00000000    0.00000000    0.00000000
     The Hubbard contrib.    to forces
     atom    1 type  1   force =     0.00000000    0.00000000    0.00000000
     atom    2 type  1   force =     0.00000000    0.00000000    0.00000000
     atom    3 type  1   force =     0.00000000    0.00000000    0.00000000
     atom    4 type  1   force =     0.00000000    0.00000000    0.00000000
     atom    5 type  1   force =     0.00000000    0.00000000    0.00000000
     atom    6 type  1   force =     0.00000000    0.00000000    0.00000000
     atom    7 type  1   force =     0.00000000    0.00000000    0.00000000
     atom    8 type  1   force =     0.00000000    0.00000000    0.00000000
     atom    9 type  1   force =     0.00000000    0.00000000    0.00000000
     atom   10 type  1   force =     0.00000000    0.00000000    0.00000000
     atom   11 type  1   force =     0.00000000    0.00000000    0.00000000
     atom   12 type  1   force =     0.00000000    0.00000000    0.00000000
     atom   13 type  1   force =     0.00000000    0.00000000    0.00000000
     atom   14 type  1   force =     0.00000000    0.00000000    0.00000000
     atom   15 type  1   force =     0.00000000    0.00000000    0.00000000
     atom   16 type  1   force =     0.00000000    0.00000000    0.00000000
     atom   17 type  1   force =     0.00000000    0.00000000    0.00000000
     atom   18 type  1   force =     0.00000000    0.00000000    0.00000000
     atom   19 type  1   force =     0.00000000    0.00000000    0.00000000
     atom   20 type  1   force =     0.00000000    0.00000000    0.00000000
     atom   21 type  1   force =     0.00000000    0.00000000    0.00000000
     atom   22 type  1   force =     0.00000000    0.00000000    0.00000000
     atom   23 type  1   force =     0.00000000    0.00000000    0.00000000
     atom   24 type  1   force =     0.00000000    0.00000000    0.00000000
     atom   25 type  1   force =     0.00000000    0.00000000    0.00000000
     atom   26 type  1   force =     0.00000000    0.00000000    0.00000000
     atom   27 type  1   force =     0.00000000    0.00000000    0.00000000
     atom   28 type  1   force =     0.00000000    0.00000000    0.00000000
     atom   29 type  1   force =     0.00000000    0.00000000    0.00000000
     atom   30 type  1   force =     0.00000000    0.00000000    0.00000000
     atom   31 type  1   force =     0.00000000    0.00000000    0.00000000
     atom   32 type  1   force =     0.00000000    0.00000000    0.00000000
     atom   33 type  1   force =     0.00000000    0.00000000    0.00000000
     atom   34 type  1   force =     0.00000000    0.00000000    0.00000000
     atom   35 type  1   force =     0.00000000    0.00000000    0.00000000
     atom   36 type  1   force =     0.00000000    0.00000000    0.00000000
     atom   37 type  1   force =     0.00000000    0.00000000    0.00000000
     atom   38 type  1   force =     0.00000000    0.00000000    0.00000000
     atom   39 type  1   force =     0.00000000    0.00000000    0.00000000
     atom   40 type  1   force =     0.00000000    0.00000000    0.00000000
     atom   41 type  1   force =     0.00000000    0.00000000    0.00000000
     atom   42 type  1   force =     0.00000000    0.00000000    0.00000000
     atom   43 type  1   force =     0.00000000    0.00000000    0.00000000
     atom   44 type  1   force =     0.00000000    0.00000000    0.00000000
     atom   45 type  1   force =     0.00000000    0.00000000    0.00000000
     atom   46 type  1   force =     0.00000000    0.00000000    0.00000000
     atom   47 type  1   force =     0.00000000    0.00000000    0.00000000
     atom   48 type  1   force =     0.00000000    0.00000000    0.00000000
     atom   49 type  1   force =     0.00000000    0.00000000    0.00000000
     atom   50 type  1   force =     0.00000000    0.00000000    0.00000000
     atom   51 type  1   force =     0.00000000    0.00000000    0.00000000
     atom   52 type  1   force =     0.00000000    0.00000000    0.00000000
     atom   53 type  1   force =     0.00000000    0.00000000    0.00000000
     atom   54 type  1   force =     0.00000000    0.00000000    0.00000000
     atom   55 type  1   force =     0.00000000    0.00000000    0.00000000
     atom   56 type  1   force =     0.00000000    0.00000000    0.00000000
     atom   57 type  1   force =     0.00000000    0.00000000    0.00000000
     atom   58 type  1   force =     0.00000000    0.00000000    0.00000000
     atom   59 type  1   force =     0.00000000    0.00000000    0.00000000
     atom   60 type  1   force =     0.00000000    0.00000000    0.00000000
     atom   61 type  1   force =     0.00000000    0.00000000    0.00000000
     atom   62 type  1   force =     0.00000000    0.00000000    0.00000000
     atom   63 type  1   force =     0.00000000    0.00000000    0.00000000
     atom   64 type  1   force =     0.00000000    0.00000000    0.00000000
     atom   65 type  2   force =     0.00000000    0.00000000    0.00000000
     atom   66 type  2   force =     0.00000000    0.00000000    0.00000000
     atom   67 type  2   force =     0.00000000    0.00000000    0.00000000
     atom   68 type  2   force =     0.00000000    0.00000000    0.00000000
     atom   69 type  2   force =     0.00000000    0.00000000    0.00000000
     atom   70 type  2   force =     0.00000000    0.00000000    0.00000000
     atom   71 type  2   force =     0.00000000    0.00000000    0.00000000
     atom   72 type  3   force =     0.00000000    0.00000000    0.00000000
     atom   73 type  3   force =     0.00000000    0.00000000    0.00000000
     atom   74 type  4   force =     0.00000000    0.00000000    0.00000000
     atom   75 type  4   force =     0.00000000    0.00000000    0.00000000
     atom   76 type  4   force =     0.00000000    0.00000000    0.00000000
     atom   77 type  4   force =     0.00000000    0.00000000    0.00000000
     atom   78 type  4   force =     0.00000000    0.00000000    0.00000000
     atom   79 type  4   force =     0.00000000    0.00000000    0.00000000
     The SCF correction term to forces
     atom    1 type  1   force =     0.00013534   -0.00008851    0.00059046
     atom    2 type  1   force =    -0.00013218   -0.00047846   -0.00001848
     atom    3 type  1   force =     0.00024269   -0.00020631   -0.00032664
     atom    4 type  1   force =    -0.00023469   -0.00077172   -0.00014585
     atom    5 type  1   force =     0.00057575    0.00023487    0.00046366
     atom    6 type  1   force =    -0.00057506    0.00036373    0.00007526
     atom    7 type  1   force =     0.00088284    0.00042729   -0.00031517
     atom    8 type  1   force =    -0.00086443    0.00055298   -0.00013881
     atom    9 type  1   force =     0.00032234    0.00037288    0.00051589
     atom   10 type  1   force =    -0.00032790    0.00021278    0.00055270
     atom   11 type  1   force =     0.00051451    0.00064879   -0.00034556
     atom   12 type  1   force =    -0.00051692    0.00035266   -0.00031095
     atom   13 type  1   force =    -0.00009604    0.00002040    0.00063778
     atom   14 type  1   force =     0.00011442   -0.00063375    0.00044870
     atom   15 type  1   force =    -0.00011689    0.00001029   -0.00036415
     atom   16 type  1   force =     0.00012312   -0.00100725   -0.00031131
     atom   17 type  1   force =    -0.00060455   -0.00024589    0.00033954
     atom   18 type  1   force =     0.00059906   -0.00032775    0.00022401
     atom   19 type  1   force =    -0.00096244   -0.00047998   -0.00025284
     atom   20 type  1   force =     0.00093941   -0.00051725   -0.00023248
     atom   21 type  1   force =    -0.00036326    0.00020267    0.00054265
     atom   22 type  1   force =     0.00036479    0.00039572    0.00000370
     atom   23 type  1   force =    -0.00058405    0.00031505   -0.00030591
     atom   24 type  1   force =     0.00057558    0.00065742   -0.00015439
     atom   25 type  1   force =     0.00007761   -0.00006256    0.00068489
     atom   26 type  1   force =    -0.00007269    0.00064100    0.00037372
     atom   27 type  1   force =     0.00004262   -0.00004913   -0.00039297
     atom   28 type  1   force =    -0.00004248    0.00106632   -0.00026870
     atom   29 type  1   force =    -0.00017751   -0.00050998    0.00049238
     atom   30 type  1   force =     0.00016088   -0.00009897    0.00060095
     atom   31 type  1   force =    -0.00032769   -0.00083893   -0.00033533
     atom   32 type  1   force =     0.00032103   -0.00015056   -0.00033290
     atom   33 type  1   force =    -0.00037398   -0.00029566   -0.00013771
     atom   34 type  1   force =     0.00040138   -0.00095777   -0.00033332
     atom   35 type  1   force =    -0.00023779   -0.00017176   -0.00050688
     atom   36 type  1   force =     0.00027491   -0.00061401   -0.00003646
     atom   37 type  1   force =     0.00020494    0.00015588   -0.00017802
     atom   38 type  1   force =    -0.00019266    0.00016849   -0.00044449
     atom   39 type  1   force =     0.00016140    0.00007284   -0.00046606
     atom   40 type  1   force =    -0.00016008    0.00013405    0.00018550
     atom   41 type  1   force =     0.00056903    0.00041176   -0.00011898
     atom   42 type  1   force =    -0.00059545    0.00088694   -0.00028561
     atom   43 type  1   force =     0.00035017    0.00023878   -0.00052794
     atom   44 type  1   force =    -0.00038734    0.00054750   -0.00025634
     atom   45 type  1   force =    -0.00001996   -0.00005082   -0.00008976
     atom   46 type  1   force =     0.00001929   -0.00028521   -0.00017384
     atom   47 type  1   force =    -0.00004892   -0.00000814   -0.00055644
     atom   48 type  1   force =     0.00004665   -0.00019429   -0.00046912
     atom   49 type  1   force =    -0.00067238   -0.00090014   -0.00027958
     atom   50 type  1   force =     0.00064580   -0.00038001   -0.00020255
     atom   51 type  1   force =    -0.00045759   -0.00054895   -0.00017289
     atom   52 type  1   force =     0.00041727   -0.00024307   -0.00036898
     atom   53 type  1   force =    -0.00105795    0.00013494   -0.00029452
     atom   54 type  1   force =     0.00102655    0.00018983   -0.00032812
     atom   55 type  1   force =    -0.00066739    0.00010072   -0.00023941
     atom   56 type  1   force =     0.00066439    0.00010706   -0.00005237
     atom   57 type  1   force =    -0.00042094    0.00025035   -0.00013893
     atom   58 type  1   force =     0.00044352    0.00104033   -0.00026650
     atom   59 type  1   force =    -0.00020556    0.00012211   -0.00057342
     atom   60 type  1   force =     0.00024307    0.00066647   -0.00020645
     atom   61 type  1   force =    -0.00006497   -0.00075999   -0.00012503
     atom   62 type  1   force =     0.00006379    0.00040883   -0.00012822
     atom   63 type  1   force =    -0.00002804   -0.00045897   -0.00051340
     atom   64 type  1   force =     0.00002866    0.00025362   -0.00052232
     atom   65 type  2   force =     0.00000950   -0.00000522    0.00006713
     atom   66 type  2   force =    -0.00001234    0.00000747   -0.00007897
     atom   67 type  2   force =    -0.00006559   -0.00005867   -0.00015207
     atom   68 type  2   force =     0.00001776    0.00008630   -0.00015206
     atom   69 type  2   force =    -0.00003897   -0.00004784   -0.00006371
     atom   70 type  2   force =     0.00002162    0.00005801   -0.00006381
     atom   71 type  2   force =     0.00002359   -0.00001317    0.00009870
     atom   72 type  3   force =     0.00001001   -0.00000582    0.00006763
     atom   73 type  3   force =     0.00004324   -0.00002422    0.00021497
     atom   74 type  4   force =     0.00001444    0.00001393    0.00001784
     atom   75 type  4   force =    -0.00000465   -0.00001944    0.00001785
     atom   76 type  4   force =    -0.00000845   -0.00001037   -0.00001087
     atom   77 type  4   force =     0.00000463    0.00001242   -0.00001092
     atom   78 type  4   force =    -0.00000844   -0.00001760    0.00000816
     atom   79 type  4   force =     0.00001085    0.00001616    0.00000815

     Total force =     0.053668     Total SCF correction =     0.006015
     SCF correction compared to forces is large: reduce conv_thr to get better values


     Computing stress (Cartesian axis) and pressure


     negative rho (up, down):  4.041E-03 0.000E+00
          total   stress  (Ry/bohr**3)                   (kbar)     P=       -1.79
  -0.00001513  -0.00000245  -0.00000062           -2.23       -0.36       -0.09
  -0.00000245  -0.00001799   0.00000020           -0.36       -2.65        0.03
  -0.00000062   0.00000020  -0.00000347           -0.09        0.03       -0.51

     kinetic stress (kbar)  17165.45    -27.87    -11.63
                              -27.87  17132.81      6.74
                              -11.63      6.74  17188.84

     local   stress (kbar)**********   -746.44   -523.34
                             -746.44**********    304.16
                             -523.34    304.161458301.65

     nonloc. stress (kbar)  -1610.05      1.92      1.46
                                1.92  -1607.82     -0.85
                                1.46     -0.85  -1666.47

     hartree stress (kbar) 757767.34    281.27    207.54
                              281.27 758094.76   -120.61
                              207.54   -120.61-682202.78

     exc-cor stress (kbar)  -8423.13      1.36      0.70
                                1.36  -8421.55     -0.41
                                0.70     -0.41  -8430.64

     corecor stress (kbar)    -82.90     -0.40     -0.23
                               -0.40    -83.37      0.13
                               -0.23      0.13    -84.00

     ewald   stress (kbar) 677279.24    489.81    325.41
                              489.81 677850.24   -189.14
                              325.41   -189.14-783107.11

     hubbard stress (kbar)      0.00      0.00      0.00
                                0.00      0.00      0.00
                                0.00      0.00      0.00

     DFT-D   stress (kbar)      0.00      0.00      0.00
                                0.00      0.00      0.00
                                0.00      0.00      0.00

     XDM     stress (kbar)      0.00      0.00      0.00
                                0.00      0.00      0.00
                                0.00      0.00      0.00

     dft-nl  stress (kbar)      0.00      0.00      0.00
                                0.00      0.00      0.00
                                0.00      0.00      0.00

     TS-vdW  stress (kbar)      0.00      0.00      0.00
                                0.00      0.00      0.00
                                0.00      0.00      0.00

     MDB     stress (kbar)      0.00      0.00      0.00
                                0.00      0.00      0.00
                                0.00      0.00      0.00

     3D-RISM stress (kbar)      0.00      0.00      0.00
                                0.00      0.00      0.00
                                0.00      0.00      0.00


     Writing all to output data dir ./tmp/Zn002_4x4x2_primitive_14Avacumn_topsite_upright_ABN.save/ :
     XML data file, charge density, pseudopotentials, collected wavefunctions

     init_run     :    160.17s CPU    161.73s WALL (       1 calls)
     electrons    :  13683.10s CPU  13816.70s WALL (       1 calls)
     forces       :    133.45s CPU    134.03s WALL (       1 calls)
     stress       :    364.93s CPU    366.17s WALL (       1 calls)

     Called by init_run:
     wfcinit      :    159.10s CPU    160.61s WALL (       1 calls)
     wfcinit:atom :      0.09s CPU      0.14s WALL (       5 calls)
     wfcinit:wfcr :    157.95s CPU    159.35s WALL (       5 calls)
     potinit      :      0.11s CPU      0.12s WALL (       1 calls)
     hinit0       :      0.06s CPU      0.07s WALL (       1 calls)

     Called by electrons:
     c_bands      :  12869.46s CPU  12990.71s WALL (      22 calls)
     sum_band     :    795.66s CPU    807.60s WALL (      22 calls)
     v_of_rho     :      0.88s CPU      0.94s WALL (      22 calls)
     v_h          :      0.05s CPU      0.06s WALL (      22 calls)
     v_xc         :      0.91s CPU      0.96s WALL (      24 calls)
     newd         :     16.19s CPU     16.52s WALL (      22 calls)
     PAW_pot      :      1.43s CPU      1.44s WALL (      22 calls)
     mix_rho      :      0.23s CPU      0.24s WALL (      22 calls)

     Called by c_bands:
     init_us_2    :      8.60s CPU      8.64s WALL (     235 calls)
     cegterg      :  12851.41s CPU  12972.51s WALL (     110 calls)

     Called by sum_band:
     sum_band:wei :      0.09s CPU      0.09s WALL (      22 calls)
     sum_band:loo :    780.58s CPU    792.13s WALL (      22 calls)
     sum_band:buf :      1.79s CPU      1.80s WALL (     110 calls)
     sum_band:ini :      4.06s CPU      4.07s WALL (     110 calls)
     sum_band:cal :    705.64s CPU    708.46s WALL (     110 calls)
     sum_band:bec :      4.25s CPU      4.26s WALL (     110 calls)
     addusdens    :     14.32s CPU     14.66s WALL (      22 calls)
                                        0.00s GPU  (      22 calls)
     addusd:skk   :      0.17s CPU      0.18s WALL (      88 calls)
                                        0.00s GPU  (      88 calls)

     Called by *egterg:
     cdiaghg      :    863.30s CPU    899.01s WALL (     883 calls)
     cegterg:over :   2008.92s CPU   2015.58s WALL (     778 calls)
     cegterg:upda :   1104.58s CPU   1109.33s WALL (     778 calls)
     cegterg:last :   3310.80s CPU   3324.89s WALL (     237 calls)
     cdiaghg:chol :     56.05s CPU     56.20s WALL (     883 calls)
     cdiaghg:inve :      8.99s CPU      9.02s WALL (     883 calls)
     cdiaghg:para :    265.57s CPU    269.62s WALL (    1766 calls)
     h_psi        :   3555.17s CPU   3607.72s WALL (     893 calls)
     s_psi        :   1536.74s CPU   1540.43s WALL (     893 calls)
     g_psi        :      1.19s CPU      1.19s WALL (     778 calls)

     Called by h_psi:
     h_psi:calbec :   1700.38s CPU   1707.25s WALL (     893 calls)
     vloc_psi     :    310.88s CPU    350.98s WALL (     893 calls)
     add_vuspsi   :   1540.67s CPU   1544.45s WALL (     893 calls)

     General routines
     calbec       :   2570.03s CPU   2580.35s WALL (    1028 calls)
     fft          :      0.92s CPU      1.03s WALL (     268 calls)
     ffts         :      0.03s CPU      0.04s WALL (      22 calls)
     fftw         :    347.53s CPU    393.20s WALL (  508646 calls)

     Parallel routines

     PAW routines
     PAW_pot      :      1.43s CPU      1.44s WALL (      22 calls)

     PWSCF        :      3h59m CPU      4h 1m WALL


   This run was terminated on:   6:23:38  22Mar2025            

=------------------------------------------------------------------------------=
   JOB DONE.
=------------------------------------------------------------------------------=
Note: The following floating-point exceptions are signalling: IEEE_DENORMAL
Note: The following floating-point exceptions are signalling: IEEE_DENORMAL
Note: The following floating-point exceptions are signalling: IEEE_DENORMAL
Note: The following floating-point exceptions are signalling: IEEE_DENORMAL
Note: The following floating-point exceptions are signalling: IEEE_DENORMAL
Note: The following floating-point exceptions are signalling: IEEE_DENORMAL
Note: The following floating-point exceptions are signalling: IEEE_DENORMAL
Note: The following floating-point exceptions are signalling: IEEE_DENORMAL
Note: The following floating-point exceptions are signalling: IEEE_DENORMAL
Note: The following floating-point exceptions are signalling: IEEE_DENORMAL
