--------------------------------------------------------------------------
By default, for Open MPI 4.0 and later, infiniband ports on a device
are not used by default.  The intent is to use UCX for these devices.
You can override this policy by setting the btl_openib_allow_ib MCA parameter
to true.

  Local host:              psid00
  Local adapter:           mlx5_0
  Local port:              1

--------------------------------------------------------------------------
--------------------------------------------------------------------------
WARNING: There was an error initializing an OpenFabrics device.

  Local host:   psid00
  Local device: mlx5_0
--------------------------------------------------------------------------

     Program PWSCF v.7.3.1 starts on 30Jan1998 at 10:34:16 

     This program is part of the open-source Quantum ESPRESSO suite
     for quantum simulation of materials; please cite
         "P. Giannozzi et al., J. Phys.:Condens. Matter 21 395502 (2009);
         "P. Giannozzi et al., J. Phys.:Condens. Matter 29 465901 (2017);
         "P. Giannozzi et al., J. Chem. Phys. 152 154105 (2020);
          URL http://www.quantum-espresso.org", 
     in publications or presentations arising from this work. More details at
     http://www.quantum-espresso.org/quote

     Parallel version (MPI), running on    34 processors

     MPI processes distributed on     1 nodes
     73761 MiB available memory on the printing compute node when the environment starts

     Waiting for input...
     Reading input from standard input
Warning: card &CELL ignored
Warning: card   CELL_DOFREE = 'ALL' ignored
Warning: card / ignored

     Current dimensions of program PWSCF are:
     Max number of different atomic species (ntypx) = 10
     Max number of k-points (npk) =  40000
     Max angular momentum in pseudopotentials (lmaxx) =  4
     file C.pbe-n-kjpaw_psl.1.0.0.UPF: wavefunction(s)  2S 2P renormalized

     R & G space division:  proc/nbgrp/npool/nimage =      34
     Subspace diagonalization in iterative solution of the eigenvalue problem:
     one sub-group per band group will be used
     custom distributed-memory algorithm (size of sub-group:  5*  5 procs)


     Parallelization info
     --------------------
     sticks:   dense  smooth     PW     G-vecs:    dense   smooth      PW
     Min         158     158     41                21318    21318    2903
     Max         159     159     42                21327    21327    2916
     Sum        5389    5389   1417               724931   724931   99009

     Using Slab Decomposition



     bravais-lattice index     =            0
     lattice parameter (alat)  =      19.7617  a.u.
     unit-cell volume          =   15176.5939 (a.u.)^3
     number of atoms/cell      =           79
     number of atomic types    =            4
     number of electrons       =      1324.00
     number of Kohn-Sham states=          794
     kinetic-energy cutoff     =      50.0000  Ry
     charge density cutoff     =     200.0000  Ry
     scf convergence threshold =      7.3E-07
     mixing beta               =       0.7000
     number of iterations used =            8  plain     mixing
     Exchange-correlation= PBE
                           (   1   4   3   4   0   0   0)

     celldm(1)=  19.761696  celldm(2)=   0.000000  celldm(3)=   0.000000
     celldm(4)=   0.000000  celldm(5)=   0.000000  celldm(6)=   0.000000

     crystal axes: (cart. coord. in units of alat)
               a(1) = (   1.000000   0.000000   0.000000 )  
               a(2) = (  -0.500000   0.866025   0.000000 )  
               a(3) = (   0.000000   0.000000   2.270759 )  

     reciprocal axes: (cart. coord. in units 2 pi/alat)
               b(1) = (  1.000000  0.577350 -0.000000 )  
               b(2) = (  0.000000  1.154701  0.000000 )  
               b(3) = (  0.000000 -0.000000  0.440381 )  


     PseudoPot. # 1 for Zn read from file:
     /home/ys/qepseudo/SSSP_1.3.0_PBE_efficiency/Zn_pbe_v1.uspp.F.UPF
     MD5 check sum: df62231357ef9e81f77b2b3087fa5675
     Pseudo is Ultrasoft, Zval = 20.0
     Generated by new atomic code, or converted to UPF format
     Using radial grid of  943 points,  6 beta functions with: 
                l(1) =   0
                l(2) =   0
                l(3) =   1
                l(4) =   1
                l(5) =   2
                l(6) =   2
     Q(r) pseudized with  8 coefficients,  rinner =    1.100   1.100   1.100
                                                       1.100   1.100

     PseudoPot. # 2 for C  read from file:
     /home/ys/qepseudo/SSSP_1.3.0_PBE_efficiency/C.pbe-n-kjpaw_psl.1.0.0.UPF
     MD5 check sum: 5d2aebdfa2cae82b50a7e79e9516da0f
     Pseudo is Projector augmented-wave + core cor, Zval =  4.0
     Generated using "atomic" code by A. Dal Corso  v.5.1
     Shape of augmentation charge: PSQ
     Using radial grid of 1073 points,  4 beta functions with: 
                l(1) =   0
                l(2) =   0
                l(3) =   1
                l(4) =   1
     Q(r) pseudized with 0 coefficients 


     PseudoPot. # 3 for N  read from file:
     /home/ys/qepseudo/SSSP_1.3.0_PBE_efficiency/N.pbe-n-radius_5.UPF
     MD5 check sum: 16739722b17309cd8fe442a2ace49922
     Pseudo is Ultrasoft + core correction, Zval =  5.0
     Generated using "atomic" code by A. Dal Corso  v.5.1
     Using radial grid of 1085 points,  4 beta functions with: 
                l(1) =   0
                l(2) =   0
                l(3) =   1
                l(4) =   1
     Q(r) pseudized with 0 coefficients 


     PseudoPot. # 4 for H  read from file:
     /home/ys/qepseudo/SSSP_1.3.0_PBE_efficiency/H.pbe-rrkjus_psl.1.0.0.UPF
     MD5 check sum: f52b6d4d1c606e5624b1dc7b2218f220
     Pseudo is Ultrasoft, Zval =  1.0
     Generated using "atomic" code by A. Dal Corso  v.5.1
     Using radial grid of  929 points,  2 beta functions with: 
                l(1) =   0
                l(2) =   0
     Q(r) pseudized with 0 coefficients 


     atomic species   valence    mass     pseudopotential
     Zn               20.00    65.38000     Zn( 1.00)
     C                 4.00    12.01070     C ( 1.00)
     N                 5.00    14.00670     N ( 1.00)
     H                 1.00     1.00800     H ( 1.00)

     No symmetry found


                                    s                        frac. trans.

      isym =  1     identity                                     

 cryst.   s( 1) = (     1          0          0      )
                  (     0          1          0      )
                  (     0          0          1      )

 cart.    s( 1) = (  1.0000000  0.0000000  0.0000000 )
                  (  0.0000000  1.0000000  0.0000000 )
                  (  0.0000000  0.0000000  1.0000000 )


   Cartesian axes

     site n.     atom                  positions (alat units)
         1        Zn     tau(   1) = (  -0.0000000   0.1443376   0.1164999  )
         2        Zn     tau(   2) = (   0.5000000   0.1443376   0.1164999  )
         3        Zn     tau(   3) = (   0.0001063   0.1443772   0.5902127  )
         4        Zn     tau(   4) = (   0.4998958   0.1443643   0.5917156  )
         5        Zn     tau(   5) = (  -0.1250000   0.3608439   0.1164999  )
         6        Zn     tau(   6) = (   0.3750000   0.3608439   0.1164999  )
         7        Zn     tau(   7) = (  -0.1249761   0.3609302   0.5908726  )
         8        Zn     tau(   8) = (   0.3749642   0.3608477   0.5913644  )
         9        Zn     tau(   9) = (  -0.2500000   0.5773503   0.1164999  )
        10        Zn     tau(  10) = (   0.2500000   0.5773503   0.1164999  )
        11        Zn     tau(  11) = (  -0.2499911   0.5773738   0.5915504  )
        12        Zn     tau(  12) = (   0.2499824   0.5772583   0.5907382  )
        13        Zn     tau(  13) = (  -0.3750000   0.7938566   0.1164999  )
        14        Zn     tau(  14) = (   0.1250000   0.7938566   0.1164999  )
        15        Zn     tau(  15) = (  -0.3749161   0.7938269   0.5909604  )
        16        Zn     tau(  16) = (   0.1249053   0.7937898   0.5911170  )
        17        Zn     tau(  17) = (   0.2500000   0.1443376   0.1164999  )
        18        Zn     tau(  18) = (   0.7500000   0.1443376   0.1164999  )
        19        Zn     tau(  19) = (   0.2499566   0.1443139   0.5910485  )
        20        Zn     tau(  20) = (   0.7500401   0.1444360   0.5909256  )
        21        Zn     tau(  21) = (   0.1250000   0.3608439   0.1164999  )
        22        Zn     tau(  22) = (   0.6250000   0.3608439   0.1164999  )
        23        Zn     tau(  23) = (   0.1249684   0.3608327   0.5904686  )
        24        Zn     tau(  24) = (   0.6250220   0.3609386   0.5917101  )
        25        Zn     tau(  25) = (  -0.0000000   0.5773503   0.1164999  )
        26        Zn     tau(  26) = (   0.5000000   0.5773503   0.1164999  )
        27        Zn     tau(  27) = (  -0.0000983   0.5773031   0.5910657  )
        28        Zn     tau(  28) = (   0.5000885   0.5773473   0.5912976  )
        29        Zn     tau(  29) = (  -0.1250000   0.7938566   0.1164999  )
        30        Zn     tau(  30) = (   0.3750000   0.7938566   0.1164999  )
        31        Zn     tau(  31) = (  -0.1251014   0.7937984   0.5915674  )
        32        Zn     tau(  32) = (   0.3751324   0.7938157   0.5904624  )
        33        Zn     tau(  33) = (   0.1250000   0.0721688   0.3494996  )
        34        Zn     tau(  34) = (   0.6250000   0.0721688   0.3494996  )
        35        Zn     tau(  35) = (   0.1248091   0.0718530   0.8330921  )
        36        Zn     tau(  36) = (   0.6250782   0.0719029   0.8329720  )
        37        Zn     tau(  37) = (   0.0000000   0.2886751   0.3494996  )
        38        Zn     tau(  38) = (   0.5000000   0.2886751   0.3494996  )
        39        Zn     tau(  39) = (  -0.0001233   0.2885465   0.8326802  )
        40        Zn     tau(  40) = (   0.5001664   0.2886112   0.8304998  )
        41        Zn     tau(  41) = (  -0.1250000   0.5051815   0.3494996  )
        42        Zn     tau(  42) = (   0.3750000   0.5051815   0.3494996  )
        43        Zn     tau(  43) = (  -0.1251737   0.5050546   0.8330493  )
        44        Zn     tau(  44) = (   0.3750127   0.5053062   0.8324313  )
        45        Zn     tau(  45) = (  -0.2500000   0.7216878   0.3494996  )
        46        Zn     tau(  46) = (   0.2500000   0.7216878   0.3494996  )
        47        Zn     tau(  47) = (  -0.2500934   0.7215858   0.8334125  )
        48        Zn     tau(  48) = (   0.2500569   0.7216264   0.8329478  )
        49        Zn     tau(  49) = (   0.3750000   0.0721688   0.3494996  )
        50        Zn     tau(  50) = (   0.8750000   0.0721688   0.3494996  )
        51        Zn     tau(  51) = (   0.3749592   0.0719990   0.8333365  )
        52        Zn     tau(  52) = (   0.8750264   0.0720212   0.8326466  )
        53        Zn     tau(  53) = (   0.2500000   0.2886751   0.3494996  )
        54        Zn     tau(  54) = (   0.7500000   0.2886751   0.3494996  )
        55        Zn     tau(  55) = (   0.2496261   0.2881738   0.8269236  )
        56        Zn     tau(  56) = (   0.7501031   0.2884453   0.8327565  )
        57        Zn     tau(  57) = (   0.1250000   0.5051815   0.3494996  )
        58        Zn     tau(  58) = (   0.6250000   0.5051815   0.3494996  )
        59        Zn     tau(  59) = (   0.1247966   0.5052991   0.8292882  )
        60        Zn     tau(  60) = (   0.6249849   0.5051435   0.8337009  )
        61        Zn     tau(  61) = (   0.0000000   0.7216878   0.3494996  )
        62        Zn     tau(  62) = (   0.5000000   0.7216878   0.3494996  )
        63        Zn     tau(  63) = (  -0.0001499   0.7216090   0.8329555  )
        64        Zn     tau(  64) = (   0.4999605   0.7216198   0.8333822  )
        65        C      tau(  65) = (   0.5001245   0.6512489   1.5818856  )
        66        C      tau(  66) = (   0.4503748   0.5880873   1.4717825  )
        67        C      tau(  67) = (   0.5225991   0.4943651   1.4071785  )
        68        C      tau(  68) = (   0.3264123   0.6162507   1.4267241  )
        69        C      tau(  69) = (   0.2764625   0.5530442   1.3215455  )
        70        C      tau(  70) = (   0.4730439   0.4317765   1.3012616  )
        71        C      tau(  71) = (   0.3480239   0.4581219   1.2574389  )
        72        N      tau(  72) = (   0.5407786   0.7032875   1.6727142  )
        73        N      tau(  73) = (   0.2953490   0.3888539   1.1587312  )
        74        H      tau(  74) = (   0.2166512   0.4247776   1.1137495  )
        75        H      tau(  75) = (   0.3555477   0.3399550   1.0995347  )
        76        H      tau(  76) = (   0.6188986   0.4715322   1.4409974  )
        77        H      tau(  77) = (   0.2691854   0.6885226   1.4761519  )
        78        H      tau(  78) = (   0.1794203   0.5753496   1.2890370  )
        79        H      tau(  79) = (   0.5304886   0.3589262   1.2526284  )

   Crystallographic axes

     site n.     atom                  positions (cryst. coord.)
         1        Zn     tau(   1) = (  0.0833333  0.1666667  0.0513044  )
         2        Zn     tau(   2) = (  0.5833333  0.1666667  0.0513044  )
         3        Zn     tau(   3) = (  0.0834625  0.1667124  0.2599187  )
         4        Zn     tau(   4) = (  0.5832446  0.1666976  0.2605806  )
         5        Zn     tau(   5) = (  0.0833333  0.4166667  0.0513044  )
         6        Zn     tau(   6) = (  0.5833333  0.4166667  0.0513044  )
         7        Zn     tau(   7) = (  0.0834070  0.4167663  0.2602093  )
         8        Zn     tau(   8) = (  0.5832997  0.4166711  0.2604259  )
         9        Zn     tau(   9) = (  0.0833333  0.6666667  0.0513044  )
        10        Zn     tau(  10) = (  0.5833333  0.6666667  0.0513044  )
        11        Zn     tau(  11) = (  0.0833558  0.6666938  0.2605078  )
        12        Zn     tau(  12) = (  0.5832626  0.6665605  0.2601501  )
        13        Zn     tau(  13) = (  0.0833333  0.9166667  0.0513044  )
        14        Zn     tau(  14) = (  0.5833333  0.9166667  0.0513044  )
        15        Zn     tau(  15) = (  0.0834001  0.9166324  0.2602480  )
        16        Zn     tau(  16) = (  0.5832000  0.9165895  0.2603170  )
        17        Zn     tau(  17) = (  0.3333333  0.1666667  0.0513044  )
        18        Zn     tau(  18) = (  0.8333333  0.1666667  0.0513044  )
        19        Zn     tau(  19) = (  0.3332763  0.1666393  0.2602868  )
        20        Zn     tau(  20) = (  0.8334303  0.1667804  0.2602327  )
        21        Zn     tau(  21) = (  0.3333333  0.4166667  0.0513044  )
        22        Zn     tau(  22) = (  0.8333333  0.4166667  0.0513044  )
        23        Zn     tau(  23) = (  0.3332952  0.4166537  0.2600314  )
        24        Zn     tau(  24) = (  0.8334099  0.4167759  0.2605781  )
        25        Zn     tau(  25) = (  0.3333333  0.6666667  0.0513044  )
        26        Zn     tau(  26) = (  0.8333333  0.6666667  0.0513044  )
        27        Zn     tau(  27) = (  0.3332078  0.6666122  0.2602944  )
        28        Zn     tau(  28) = (  0.8334201  0.6666632  0.2603965  )
        29        Zn     tau(  29) = (  0.3333333  0.9166667  0.0513044  )
        30        Zn     tau(  30) = (  0.8333333  0.9166667  0.0513044  )
        31        Zn     tau(  31) = (  0.3331983  0.9165994  0.2605153  )
        32        Zn     tau(  32) = (  0.8334421  0.9166194  0.2600287  )
        33        Zn     tau(  33) = (  0.1666667  0.0833333  0.1539131  )
        34        Zn     tau(  34) = (  0.6666667  0.0833333  0.1539131  )
        35        Zn     tau(  35) = (  0.1662935  0.0829687  0.3668783  )
        36        Zn     tau(  36) = (  0.6665913  0.0830263  0.3668254  )
        37        Zn     tau(  37) = (  0.1666667  0.3333333  0.1539131  )
        38        Zn     tau(  38) = (  0.6666667  0.3333333  0.1539131  )
        39        Zn     tau(  39) = (  0.1664691  0.3331848  0.3666969  )
        40        Zn     tau(  40) = (  0.6667962  0.3332596  0.3657367  )
        41        Zn     tau(  41) = (  0.1666667  0.5833333  0.1539131  )
        42        Zn     tau(  42) = (  0.6666667  0.5833333  0.1539131  )
        43        Zn     tau(  43) = (  0.1664197  0.5831868  0.3668595  )
        44        Zn     tau(  44) = (  0.6667513  0.5834773  0.3665873  )
        45        Zn     tau(  45) = (  0.1666667  0.8333333  0.1539131  )
        46        Zn     tau(  46) = (  0.6666667  0.8333333  0.1539131  )
        47        Zn     tau(  47) = (  0.1665144  0.8332155  0.3670194  )
        48        Zn     tau(  48) = (  0.6666881  0.8332624  0.3668148  )
        49        Zn     tau(  49) = (  0.4166667  0.0833333  0.1539131  )
        50        Zn     tau(  50) = (  0.9166667  0.0833333  0.1539131  )
        51        Zn     tau(  51) = (  0.4165278  0.0831373  0.3669859  )
        52        Zn     tau(  52) = (  0.9166078  0.0831629  0.3666821  )
        53        Zn     tau(  53) = (  0.4166667  0.3333333  0.1539131  )
        54        Zn     tau(  54) = (  0.9166667  0.3333333  0.1539131  )
        55        Zn     tau(  55) = (  0.4160033  0.3327544  0.3641618  )
        56        Zn     tau(  56) = (  0.9166371  0.3330680  0.3667305  )
        57        Zn     tau(  57) = (  0.4166667  0.5833333  0.1539131  )
        58        Zn     tau(  58) = (  0.9166667  0.5833333  0.1539131  )
        59        Zn     tau(  59) = (  0.4165312  0.5834692  0.3652031  )
        60        Zn     tau(  60) = (  0.9166297  0.5832895  0.3671464  )
        61        Zn     tau(  61) = (  0.4166667  0.8333333  0.1539131  )
        62        Zn     tau(  62) = (  0.9166667  0.8333333  0.1539131  )
        63        Zn     tau(  63) = (  0.4164712  0.8332423  0.3668181  )
        64        Zn     tau(  64) = (  0.9165879  0.8332548  0.3670060  )
        65        C      tau(  65) = (  0.8761232  0.7519975  0.6966330  )
        66        C      tau(  66) = (  0.7899072  0.6790648  0.6481457  )
        67        C      tau(  67) = (  0.8080210  0.5708437  0.6196953  )
        68        C      tau(  68) = (  0.6822049  0.7115851  0.6283028  )
        69        C      tau(  69) = (  0.5957627  0.6386005  0.5819841  )
        70        C      tau(  70) = (  0.7223302  0.4985726  0.5730515  )
        71        C      tau(  71) = (  0.6125207  0.5289936  0.5537527  )
        72        N      tau(  72) = (  0.9468219  0.8120865  0.7366323  )
        73        N      tau(  73) = (  0.5198539  0.4490098  0.5102837  )
        74        H      tau(  74) = (  0.4618967  0.4904909  0.4904746  )
        75        H      tau(  75) = (  0.5518208  0.3925463  0.4842147  )
        76        H      tau(  76) = (  0.8911379  0.5444785  0.6345885  )
        77        H      tau(  77) = (  0.6667042  0.7950375  0.6500699  )
        78        H      tau(  78) = (  0.5115986  0.6643565  0.5676680  )
        79        H      tau(  79) = (  0.7377148  0.4144523  0.5516343  )

     number of k points=     5  Marzari-Vanderbilt smearing, width (Ry)=  0.0200
                       cart. coord. in units 2pi/alat
        k(    1) = (   0.0000000   0.0000000   0.0000000), wk =   0.2222222
        k(    2) = (   0.0000000   0.3849002   0.0000000), wk =   0.4444444
        k(    3) = (   0.3333333   0.1924501   0.0000000), wk =   0.4444444
        k(    4) = (   0.3333333   0.5773503   0.0000000), wk =   0.4444444
        k(    5) = (   0.3333333  -0.1924501   0.0000000), wk =   0.4444444

                       cryst. coord.
        k(    1) = (   0.0000000   0.0000000   0.0000000), wk =   0.2222222
        k(    2) = (   0.0000000   0.3333333   0.0000000), wk =   0.4444444
        k(    3) = (   0.3333333   0.0000000   0.0000000), wk =   0.4444444
        k(    4) = (   0.3333333   0.3333333   0.0000000), wk =   0.4444444
        k(    5) = (   0.3333333  -0.3333333   0.0000000), wk =   0.4444444

     Dense  grid:   724931 G-vectors     FFT dimensions: (  90,  90, 216)

     Dynamical RAM for                 wfc:      32.29 MB

     Dynamical RAM for     wfc (w. buffer):     193.73 MB

     Dynamical RAM for           str. fact:       1.30 MB

     Dynamical RAM for           local pot:       0.00 MB

     Dynamical RAM for          nlocal pot:      50.26 MB

     Dynamical RAM for                qrad:       4.54 MB

     Dynamical RAM for          rho,v,vnew:       2.27 MB

     Dynamical RAM for               rhoin:       0.76 MB

     Dynamical RAM for            rho*nmix:       5.21 MB

     Dynamical RAM for           G-vectors:       1.38 MB

     Dynamical RAM for          h,s,v(r/c):       4.60 MB

     Dynamical RAM for          <psi|beta>:      14.97 MB

     Dynamical RAM for                 psi:      64.58 MB

     Dynamical RAM for                hpsi:      64.58 MB

     Dynamical RAM for                spsi:      64.58 MB

     Dynamical RAM for      wfcinit/wfcrot:      88.57 MB

     Dynamical RAM for           addusdens:      81.33 MB

     Dynamical RAM for          addusforce:     122.74 MB

     Dynamical RAM for         addusstress:      65.39 MB

     Estimated static dynamical RAM per process >     258.04 MB

     Estimated max dynamical RAM per process >     476.54 MB

     Estimated total dynamical RAM >      15.82 GB

     Check: negative core charge=   -0.000007

     Initial potential from superposition of free atoms

     starting charge    1323.9906, renormalised to    1324.0000

     negative rho (up, down):  3.237E-03 0.000E+00
     Starting wfcs are  874 randomized atomic wfcs
[psid00:276763] 33 more processes have sent help message help-mpi-btl-openib.txt / ib port not selected
[psid00:276763] Set MCA parameter "orte_base_help_aggregate" to 0 to see all help / error messages
[psid00:276763] 33 more processes have sent help message help-mpi-btl-openib.txt / error in device init
     Checking if some PAW data can be deallocated... 
       PAW data deallocated on   30 nodes for type:  2

     total cpu time spent up to now is      157.4 secs

     Self-consistent Calculation

     iteration #  1     ecut=    50.00 Ry     beta= 0.70
     Davidson diagonalization with overlap

---- Real-time Memory Report at c_bands before calling an iterative solver
           360 MiB given to the printing process from OS
             0 MiB allocation reported by mallinfo(arena+hblkhd)
         64440 MiB available memory on the node where the printing process lives
------------------
     ethr =  1.00E-02,  avg # of iterations =  7.6

     Threshold (ethr) on eigenvalues was too large:
     Diagonalizing with lowered threshold

     Davidson diagonalization with overlap

---- Real-time Memory Report at c_bands before calling an iterative solver
           514 MiB given to the printing process from OS
             0 MiB allocation reported by mallinfo(arena+hblkhd)
         63459 MiB available memory on the node where the printing process lives
------------------
     ethr =  8.72E-04,  avg # of iterations =  2.0

     negative rho (up, down):  3.957E-03 0.000E+00

     total cpu time spent up to now is     2426.5 secs

     total energy              =  -29707.69336909 Ry
     estimated scf accuracy    <      11.62199910 Ry

     iteration #  2     ecut=    50.00 Ry     beta= 0.70
     Davidson diagonalization with overlap

---- Real-time Memory Report at c_bands before calling an iterative solver
           514 MiB given to the printing process from OS
             0 MiB allocation reported by mallinfo(arena+hblkhd)
         63436 MiB available memory on the node where the printing process lives
------------------
     ethr =  8.78E-04,  avg # of iterations = 12.2

     negative rho (up, down):  4.006E-03 0.000E+00

     total cpu time spent up to now is     4291.8 secs

     total energy              =  -29670.29491911 Ry
     estimated scf accuracy    <     843.42197246 Ry

     iteration #  3     ecut=    50.00 Ry     beta= 0.70
     Davidson diagonalization with overlap

---- Real-time Memory Report at c_bands before calling an iterative solver
           521 MiB given to the printing process from OS
             0 MiB allocation reported by mallinfo(arena+hblkhd)
         63184 MiB available memory on the node where the printing process lives
------------------
     ethr =  8.78E-04,  avg # of iterations = 10.2

     negative rho (up, down):  3.650E-03 0.000E+00

     total cpu time spent up to now is     7281.7 secs

     total energy              =  -29705.68166463 Ry
     estimated scf accuracy    <     145.04850063 Ry

     iteration #  4     ecut=    50.00 Ry     beta= 0.70
     Davidson diagonalization with overlap

---- Real-time Memory Report at c_bands before calling an iterative solver
           522 MiB given to the printing process from OS
             0 MiB allocation reported by mallinfo(arena+hblkhd)
         63125 MiB available memory on the node where the printing process lives
------------------
     ethr =  8.78E-04,  avg # of iterations =  9.2

     negative rho (up, down):  2.362E-03 0.000E+00

     total cpu time spent up to now is     8564.1 secs

     total energy              =  -29710.81620100 Ry
     estimated scf accuracy    <      87.45537481 Ry

     iteration #  5     ecut=    50.00 Ry     beta= 0.70
     Davidson diagonalization with overlap

---- Real-time Memory Report at c_bands before calling an iterative solver
           523 MiB given to the printing process from OS
             0 MiB allocation reported by mallinfo(arena+hblkhd)
         63087 MiB available memory on the node where the printing process lives
------------------
     ethr =  8.78E-04,  avg # of iterations =  6.8

     negative rho (up, down):  2.316E-03 0.000E+00

     total cpu time spent up to now is     9739.7 secs

     total energy              =  -29715.25214178 Ry
     estimated scf accuracy    <       3.97279059 Ry

     iteration #  6     ecut=    50.00 Ry     beta= 0.70
     Davidson diagonalization with overlap

---- Real-time Memory Report at c_bands before calling an iterative solver
           524 MiB given to the printing process from OS
             0 MiB allocation reported by mallinfo(arena+hblkhd)
         63049 MiB available memory on the node where the printing process lives
------------------
     ethr =  3.00E-04,  avg # of iterations =  4.6

     negative rho (up, down):  2.901E-03 0.000E+00

     total cpu time spent up to now is    10841.0 secs

     total energy              =  -29715.66697019 Ry
     estimated scf accuracy    <       0.28088680 Ry

     iteration #  7     ecut=    50.00 Ry     beta= 0.70
     Davidson diagonalization with overlap

---- Real-time Memory Report at c_bands before calling an iterative solver
           525 MiB given to the printing process from OS
             0 MiB allocation reported by mallinfo(arena+hblkhd)
         62998 MiB available memory on the node where the printing process lives
------------------
     ethr =  2.12E-05,  avg # of iterations = 14.4

     negative rho (up, down):  3.487E-03 0.000E+00

     total cpu time spent up to now is    12054.9 secs

     total energy              =  -29715.68487207 Ry
     estimated scf accuracy    <       0.07434418 Ry

     iteration #  8     ecut=    50.00 Ry     beta= 0.70
     Davidson diagonalization with overlap

---- Real-time Memory Report at c_bands before calling an iterative solver
           526 MiB given to the printing process from OS
             0 MiB allocation reported by mallinfo(arena+hblkhd)
         63088 MiB available memory on the node where the printing process lives
------------------
     ethr =  5.62E-06,  avg # of iterations =  8.2

     negative rho (up, down):  3.889E-03 0.000E+00

     total cpu time spent up to now is    13245.3 secs

     total energy              =  -29715.68736839 Ry
     estimated scf accuracy    <       0.06072689 Ry

     iteration #  9     ecut=    50.00 Ry     beta= 0.70
     Davidson diagonalization with overlap

---- Real-time Memory Report at c_bands before calling an iterative solver
           527 MiB given to the printing process from OS
             0 MiB allocation reported by mallinfo(arena+hblkhd)
         63040 MiB available memory on the node where the printing process lives
------------------
     ethr =  4.59E-06,  avg # of iterations =  3.6

     negative rho (up, down):  3.974E-03 0.000E+00

     total cpu time spent up to now is    14378.6 secs

     total energy              =  -29715.69245565 Ry
     estimated scf accuracy    <       0.03604328 Ry

     iteration # 10     ecut=    50.00 Ry     beta= 0.70
     Davidson diagonalization with overlap

---- Real-time Memory Report at c_bands before calling an iterative solver
           527 MiB given to the printing process from OS
             0 MiB allocation reported by mallinfo(arena+hblkhd)
         45947 MiB available memory on the node where the printing process lives
------------------
     c_bands:  2 eigenvalues not converged
     ethr =  2.72E-06,  avg # of iterations =  9.2

     negative rho (up, down):  4.022E-03 0.000E+00

     total cpu time spent up to now is    15499.4 secs

     total energy              =  -29715.69456245 Ry
     estimated scf accuracy    <       0.01437757 Ry

     iteration # 11     ecut=    50.00 Ry     beta= 0.70
     Davidson diagonalization with overlap

---- Real-time Memory Report at c_bands before calling an iterative solver
           528 MiB given to the printing process from OS
             0 MiB allocation reported by mallinfo(arena+hblkhd)
         34604 MiB available memory on the node where the printing process lives
------------------
     ethr =  1.09E-06,  avg # of iterations =  9.8

     negative rho (up, down):  4.474E-03 0.000E+00

     total cpu time spent up to now is    16578.4 secs

     total energy              =  -29715.68798623 Ry
     estimated scf accuracy    <       0.01180069 Ry

     iteration # 12     ecut=    50.00 Ry     beta= 0.70
     Davidson diagonalization with overlap

---- Real-time Memory Report at c_bands before calling an iterative solver
           528 MiB given to the printing process from OS
             0 MiB allocation reported by mallinfo(arena+hblkhd)
         34586 MiB available memory on the node where the printing process lives
------------------
     c_bands:  1 eigenvalues not converged
     ethr =  8.91E-07,  avg # of iterations = 15.4

     negative rho (up, down):  4.294E-03 0.000E+00

     total cpu time spent up to now is    17836.4 secs

     total energy              =  -29715.68845039 Ry
     estimated scf accuracy    <       0.00822739 Ry

     iteration # 13     ecut=    50.00 Ry     beta= 0.70
     Davidson diagonalization with overlap

---- Real-time Memory Report at c_bands before calling an iterative solver
           528 MiB given to the printing process from OS
             0 MiB allocation reported by mallinfo(arena+hblkhd)
         34579 MiB available memory on the node where the printing process lives
------------------
     ethr =  6.21E-07,  avg # of iterations =  6.4

     negative rho (up, down):  4.185E-03 0.000E+00

     total cpu time spent up to now is    18944.8 secs

     total energy              =  -29715.68571752 Ry
     estimated scf accuracy    <       0.00829215 Ry

     iteration # 14     ecut=    50.00 Ry     beta= 0.70
     Davidson diagonalization with overlap

---- Real-time Memory Report at c_bands before calling an iterative solver
           528 MiB given to the printing process from OS
             0 MiB allocation reported by mallinfo(arena+hblkhd)
         34574 MiB available memory on the node where the printing process lives
------------------
     c_bands:  1 eigenvalues not converged
     c_bands:  1 eigenvalues not converged
     c_bands:  1 eigenvalues not converged
     ethr =  6.21E-07,  avg # of iterations = 16.2

     negative rho (up, down):  4.170E-03 0.000E+00

     total cpu time spent up to now is    20192.5 secs

     total energy              =  -29715.68117020 Ry
     estimated scf accuracy    <       0.14137275 Ry

     iteration # 15     ecut=    50.00 Ry     beta= 0.70
     Davidson diagonalization with overlap

---- Real-time Memory Report at c_bands before calling an iterative solver
           528 MiB given to the printing process from OS
             0 MiB allocation reported by mallinfo(arena+hblkhd)
         34564 MiB available memory on the node where the printing process lives
------------------
     ethr =  6.21E-07,  avg # of iterations =  9.2

     negative rho (up, down):  4.163E-03 0.000E+00

     total cpu time spent up to now is    21353.1 secs

     total energy              =  -29715.68883147 Ry
     estimated scf accuracy    <       0.00079294 Ry

     iteration # 16     ecut=    50.00 Ry     beta= 0.70
     Davidson diagonalization with overlap

---- Real-time Memory Report at c_bands before calling an iterative solver
           528 MiB given to the printing process from OS
             0 MiB allocation reported by mallinfo(arena+hblkhd)
         34552 MiB available memory on the node where the printing process lives
------------------
     ethr =  5.99E-08,  avg # of iterations =  3.0

     negative rho (up, down):  4.139E-03 0.000E+00

     total cpu time spent up to now is    22466.9 secs

     total energy              =  -29715.68895086 Ry
     estimated scf accuracy    <       0.00042262 Ry

     iteration # 17     ecut=    50.00 Ry     beta= 0.70
     Davidson diagonalization with overlap

---- Real-time Memory Report at c_bands before calling an iterative solver
           528 MiB given to the printing process from OS
             0 MiB allocation reported by mallinfo(arena+hblkhd)
         34542 MiB available memory on the node where the printing process lives
------------------
     ethr =  3.19E-08,  avg # of iterations =  2.0

     negative rho (up, down):  4.116E-03 0.000E+00

     total cpu time spent up to now is    23505.6 secs

     total energy              =  -29715.68900545 Ry
     estimated scf accuracy    <       0.00005742 Ry

     iteration # 18     ecut=    50.00 Ry     beta= 0.70
     Davidson diagonalization with overlap

---- Real-time Memory Report at c_bands before calling an iterative solver
           528 MiB given to the printing process from OS
             0 MiB allocation reported by mallinfo(arena+hblkhd)
         34480 MiB available memory on the node where the printing process lives
------------------
     ethr =  4.34E-09,  avg # of iterations =  3.0

     negative rho (up, down):  4.105E-03 0.000E+00

     total cpu time spent up to now is    24563.2 secs

     total energy              =  -29715.68901254 Ry
     estimated scf accuracy    <       0.00000816 Ry

     iteration # 19     ecut=    50.00 Ry     beta= 0.70
     Davidson diagonalization with overlap

---- Real-time Memory Report at c_bands before calling an iterative solver
           528 MiB given to the printing process from OS
             0 MiB allocation reported by mallinfo(arena+hblkhd)
         34468 MiB available memory on the node where the printing process lives
------------------
     ethr =  6.17E-10,  avg # of iterations =  4.0

     negative rho (up, down):  4.102E-03 0.000E+00

     total cpu time spent up to now is    25644.7 secs

     total energy              =  -29715.68901362 Ry
     estimated scf accuracy    <       0.00000128 Ry

     iteration # 20     ecut=    50.00 Ry     beta= 0.70
     Davidson diagonalization with overlap

---- Real-time Memory Report at c_bands before calling an iterative solver
           528 MiB given to the printing process from OS
             0 MiB allocation reported by mallinfo(arena+hblkhd)
         34469 MiB available memory on the node where the printing process lives
------------------
     ethr =  9.63E-11,  avg # of iterations =  3.0

     negative rho (up, down):  4.101E-03 0.000E+00

     total cpu time spent up to now is    26794.7 secs

     total energy              =  -29715.68901364 Ry
     estimated scf accuracy    <       0.00000243 Ry

     iteration # 21     ecut=    50.00 Ry     beta= 0.70
     Davidson diagonalization with overlap

---- Real-time Memory Report at c_bands before calling an iterative solver
           528 MiB given to the printing process from OS
             0 MiB allocation reported by mallinfo(arena+hblkhd)
         34457 MiB available memory on the node where the printing process lives
------------------
     ethr =  9.63E-11,  avg # of iterations =  2.0

     negative rho (up, down):  4.098E-03 0.000E+00

     total cpu time spent up to now is    27850.3 secs

     End of self-consistent calculation

          k = 0.0000 0.0000 0.0000 ( 90569 PWs)   bands (ev):

  -122.8781-122.8767-122.8763-122.8750-122.8744-122.8740-122.8738-122.8736
  -122.8733-122.8726-122.8724-122.8722-122.8718-122.8716-122.8708-122.8702
  -122.8455-122.8427-122.8367-122.8344-122.8333-122.8309-122.8299-122.8279
  -122.8267-122.8252-122.8246-122.8242-122.8236-122.8234-122.8231-122.8227
  -122.6813-122.6737-122.6724-122.6721-122.6721-122.6715-122.6715-122.6709
  -122.6705-122.6704-122.6704-122.6702-122.6701-122.6700-122.6694-122.6694
  -122.6691-122.6680-122.6676-122.6520-122.6484-122.6480-122.6471-122.6467
  -122.6464-122.6457-122.6448-122.6446-122.6428-122.6422-122.6413-122.6407
   -77.0409 -77.0406 -77.0405 -77.0344 -77.0343 -77.0340 -77.0338 -77.0334
   -77.0332 -77.0296 -77.0280 -77.0275 -77.0264 -77.0256 -77.0253 -77.0250
   -77.0248 -77.0244 -77.0236 -77.0234 -77.0234 -77.0233 -77.0232 -77.0230
   -77.0228 -77.0226 -77.0225 -77.0224 -77.0222 -77.0218 -77.0213 -77.0211
   -77.0211 -77.0210 -77.0205 -77.0200 -77.0198 -77.0142 -77.0139 -77.0137
   -77.0099 -77.0098 -77.0097 -77.0089 -77.0088 -77.0086 -77.0046 -77.0044
   -77.0034 -77.0018 -76.9995 -76.9965 -76.9937 -76.9927 -76.9920 -76.9906
   -76.9899 -76.9885 -76.9883 -76.9876 -76.9854 -76.9844 -76.9829 -76.9821
   -76.9820 -76.9814 -76.9809 -76.9802 -76.9796 -76.9789 -76.9784 -76.9778
   -76.9777 -76.9770 -76.9763 -76.9758 -76.9754 -76.9752 -76.9747 -76.9744
   -76.9741 -76.9741 -76.9737 -76.9736 -76.9730 -76.9699 -76.9693 -76.9671
   -76.9661 -76.9650 -76.9645 -76.9627 -76.9620 -76.9616 -76.9583 -76.9575
   -76.8416 -76.8351 -76.8350 -76.8349 -76.8326 -76.8312 -76.8311 -76.8309
   -76.8308 -76.8305 -76.8302 -76.8302 -76.8298 -76.8297 -76.8296 -76.8292
   -76.8291 -76.8289 -76.8289 -76.8288 -76.8287 -76.8286 -76.8283 -76.8283
   -76.8282 -76.8281 -76.8280 -76.8276 -76.8264 -76.8260 -76.8204 -76.8178
   -76.8177 -76.8175 -76.8175 -76.8171 -76.8170 -76.8168 -76.8158 -76.8157
   -76.8156 -76.8152 -76.8152 -76.8151 -76.8150 -76.8135 -76.8125 -76.8088
   -76.8087 -76.8086 -76.8086 -76.8084 -76.8073 -76.8068 -76.8067 -76.8066
   -76.8057 -76.8051 -76.8051 -76.8047 -76.8045 -76.8042 -76.8041 -76.8039
   -76.8037 -76.8036 -76.8036 -76.8029 -76.8028 -76.8021 -76.8013 -76.8006
   -76.7993 -76.7993 -76.7989 -76.7984 -76.7978 -76.7959 -76.7952 -76.7931
   -76.7918 -76.7908 -76.7901 -76.7894 -76.7889 -76.7863 -76.7862 -76.7833
   -76.7826 -76.7817 -76.7802 -76.7787 -76.7784 -76.7773 -76.7744 -76.7733
   -15.5014 -14.0889 -13.2710 -10.8899 -10.8056  -7.8784  -7.6060  -6.5048
    -5.7278  -5.7122  -5.1389  -5.1172  -4.9891  -4.9112  -4.9072  -4.9057
    -4.9026  -4.9013  -4.8998  -4.8959  -4.7123  -4.7123  -4.7123  -4.6566
    -4.6562  -4.6558  -4.5537  -4.5511  -4.5466  -4.5453  -4.5448  -4.5438
    -4.5222  -4.5220  -4.5217  -4.4486  -4.4476  -4.4466  -4.3865  -4.3859
    -4.3851  -4.3847  -4.3846  -4.3843  -4.3482  -4.3481  -4.3481  -4.3126
    -4.3107  -4.3079  -4.3071  -4.3063  -4.3055  -4.2906  -4.2900  -4.2887
    -4.2880  -4.2878  -4.2871  -4.2777  -4.2776  -4.2775  -4.2476  -4.2473
    -4.2464  -4.2463  -4.2461  -4.2455  -4.2073  -4.2070  -4.2058  -4.2047
    -4.2029  -4.2023  -4.1318  -4.1178  -4.1140  -4.1123  -4.1102  -4.1092
    -4.1085  -4.1068  -4.1065  -4.1061  -4.1050  -4.1048  -4.1042  -4.0619
    -4.0607  -4.0596  -4.0587  -4.0577  -4.0571  -4.0567  -4.0561  -4.0539
    -4.0538  -4.0513  -4.0500  -4.0492  -4.0487  -4.0478  -4.0157  -4.0150
    -4.0124  -4.0111  -4.0101  -4.0089  -3.9716  -3.9713  -3.9709  -3.9682
    -3.9666  -3.9653  -3.9271  -3.9266  -3.9259  -3.9247  -3.9243  -3.9242
    -3.9241  -3.9234  -3.9199  -3.9192  -3.9183  -3.9164  -3.9152  -3.9144
    -3.9141  -3.9138  -3.9132  -3.8974  -3.8734  -3.8733  -3.8546  -3.8544
    -3.8531  -3.8525  -3.8520  -3.8513  -3.8387  -3.8374  -3.8362  -3.8357
    -3.8349  -3.8347  -3.8005  -3.7990  -3.7984  -3.7978  -3.7974  -3.7974
    -3.7733  -3.7728  -3.7712  -3.7711  -3.7708  -3.7705  -3.7134  -3.7134
    -3.6960  -3.6955  -3.6951  -3.6949  -3.6944  -3.6938  -3.6878  -3.6877
    -3.6550  -3.6549  -3.6547  -3.6492  -3.6483  -3.6475  -3.6467  -3.6457
    -3.6448  -3.6221  -3.6216  -3.6204  -3.6195  -3.6178  -3.6170  -3.6005
    -3.5993  -3.5977  -3.5971  -3.5959  -3.5957  -3.5909  -3.5909  -3.5908
    -3.5907  -3.5903  -3.5903  -3.5730  -3.5727  -3.5726  -3.5700  -3.5696
    -3.5672  -3.5667  -3.5656  -3.5655  -3.5649  -3.5648  -3.5642  -3.5642
    -3.5636  -3.5632  -3.5608  -3.5604  -3.5599  -3.5590  -3.5579  -3.5577
    -3.5351  -3.5351  -3.5346  -3.5341  -3.5340  -3.5337  -3.4911  -3.4908
    -3.4897  -3.4848  -3.4839  -3.4833  -3.4828  -3.4818  -3.4815  -3.4776
    -3.4775  -3.4772  -3.4756  -3.4738  -3.4735  -3.4344  -3.4336  -3.4319
    -3.4315  -3.4307  -3.4291  -3.4271  -3.4266  -3.4183  -3.4180  -3.4178
    -3.4175  -3.4172  -3.4168  -3.4069  -3.4067  -3.4059  -3.4055  -3.4040
    -3.4036  -3.4019  -3.4016  -3.4013  -3.4002  -3.3999  -3.3991  -3.3358
    -3.3357  -3.3278  -3.3278  -3.3271  -3.3008  -3.3006  -3.3005  -3.3003
    -3.3002  -3.3000  -3.2915  -3.2911  -3.2905  -3.2847  -3.2833  -3.2811
    -3.2801  -3.2772  -3.2766  -3.2748  -3.2741  -3.2731  -3.2550  -3.2547
    -3.2546  -3.2455  -3.2441  -3.2438  -3.2427  -3.2424  -3.2421  -3.2275
    -3.2273  -3.2272  -3.2264  -3.2260  -3.2258  -3.2109  -3.2100  -3.2097
    -3.2082  -3.2070  -3.2063  -3.1943  -3.1938  -3.1927  -3.1811  -3.1811
    -3.1643  -3.1637  -3.1164  -3.1162  -3.1161  -3.1159  -3.1157  -3.1157
    -3.1048  -3.1013  -3.1008  -3.1003  -3.0999  -3.0993  -3.0840  -3.0840
    -3.0839  -3.0795  -3.0395  -3.0393  -3.0390  -3.0085  -2.9933  -2.8812
    -2.8779  -2.8776  -2.8775  -2.8775  -2.8756  -2.8729  -2.8700  -2.8689
    -2.8577  -2.8563  -2.8554  -2.5768  -2.1123  -1.7815  -1.4868  -1.4858
    -1.4836  -1.4830  -1.4818  -1.4780  -1.0222  -0.8882  -0.7167  -0.0986
    -0.0149  -0.0135  -0.0118  -0.0106  -0.0098  -0.0092   0.3166   0.3857
     0.4007   0.4018   0.4034   0.4045   0.4059   0.5496   0.8193   0.8227
     0.8254   0.8279   0.8289   0.8302   1.1458   1.2718   1.2743   1.2746
     1.2747   1.8357   1.8377   1.8391   2.1856   2.1857   2.1883   2.2325
     2.2360   2.2374   2.2378   2.2384   2.2390   2.4248   2.4285   2.4295
     2.6043   3.4315   3.4405   3.4528   3.4555   3.4585   3.4633   3.9244
     3.9245   3.9250   3.9288   3.9301   3.9347   4.1149   4.5233   4.5255
     4.5269   4.8060   4.8077   4.8084   5.6267   5.6283   5.6287   5.9290
     5.9575   5.9755   5.9841   5.9950   6.0013   6.2273   6.4317   6.5266
     6.5350   6.5391   6.5791   7.2870   7.2920   7.2993   7.3131   7.3162
     7.3192   7.3290   7.5233   7.5243   7.5245   7.5272   7.5290   7.5301
     7.6338   7.7023   7.7032   7.7079   7.7089   7.7094   7.7100   7.9420
     8.1420   8.2095   8.2537   8.2871   8.3679   8.3891   8.4131   8.4171
     8.4205   8.4246   8.4253   8.4261   8.4626   8.4762   8.4938   8.5083
     8.5110   8.5117   8.5137   8.5168   8.5180   8.8075   8.9115   8.9409
     9.0033   9.0461   9.1523   9.2325   9.2947   9.3033   9.3696   9.4550
     9.4761   9.5026   9.5128   9.5248   9.5325   9.5391   9.5478   9.5628
     9.6406   9.8136   9.9240   9.9447   9.9505   9.9528   9.9581   9.9608
     9.9955  10.0000  10.0022  10.0055  10.0083  10.0120  10.1098  10.1144
    10.1195  10.3638  10.6228  10.6650  10.7055  10.7577  10.7996  10.8686
    10.9059  10.9325  10.9737  11.0742  11.1430  11.2021  11.2461  11.2496
    11.2772  11.3432  11.3645  11.3716  11.3836  11.3980  11.4104  11.4252
    11.4870  11.5421

     occupation numbers 
     1.0000   1.0000   1.0000   1.0000   1.0000   1.0000   1.0000   1.0000
     1.0000   1.0000   1.0000   1.0000   1.0000   1.0000   1.0000   1.0000
     1.0000   1.0000   1.0000   1.0000   1.0000   1.0000   1.0000   1.0000
     1.0000   1.0000   1.0000   1.0000   1.0000   1.0000   1.0000   1.0000
     1.0000   1.0000   1.0000   1.0000   1.0000   1.0000   1.0000   1.0000
     1.0000   1.0000   1.0000   1.0000   1.0000   1.0000   1.0000   1.0000
     1.0000   1.0000   1.0000   1.0000   1.0000   1.0000   1.0000   1.0000
     1.0000   1.0000   1.0000   1.0000   1.0000   1.0000   1.0000   1.0000
     1.0000   1.0000   1.0000   1.0000   1.0000   1.0000   1.0000   1.0000
     1.0000   1.0000   1.0000   1.0000   1.0000   1.0000   1.0000   1.0000
     1.0000   1.0000   1.0000   1.0000   1.0000   1.0000   1.0000   1.0000
     1.0000   1.0000   1.0000   1.0000   1.0000   1.0000   1.0000   1.0000
     1.0000   1.0000   1.0000   1.0000   1.0000   1.0000   1.0000   1.0000
     1.0000   1.0000   1.0000   1.0000   1.0000   1.0000   1.0000   1.0000
     1.0000   1.0000   1.0000   1.0000   1.0000   1.0000   1.0000   1.0000
     1.0000   1.0000   1.0000   1.0000   1.0000   1.0000   1.0000   1.0000
     1.0000   1.0000   1.0000   1.0000   1.0000   1.0000   1.0000   1.0000
     1.0000   1.0000   1.0000   1.0000   1.0000   1.0000   1.0000   1.0000
     1.0000   1.0000   1.0000   1.0000   1.0000   1.0000   1.0000   1.0000
     1.0000   1.0000   1.0000   1.0000   1.0000   1.0000   1.0000   1.0000
     1.0000   1.0000   1.0000   1.0000   1.0000   1.0000   1.0000   1.0000
     1.0000   1.0000   1.0000   1.0000   1.0000   1.0000   1.0000   1.0000
     1.0000   1.0000   1.0000   1.0000   1.0000   1.0000   1.0000   1.0000
     1.0000   1.0000   1.0000   1.0000   1.0000   1.0000   1.0000   1.0000
     1.0000   1.0000   1.0000   1.0000   1.0000   1.0000   1.0000   1.0000
     1.0000   1.0000   1.0000   1.0000   1.0000   1.0000   1.0000   1.0000
     1.0000   1.0000   1.0000   1.0000   1.0000   1.0000   1.0000   1.0000
     1.0000   1.0000   1.0000   1.0000   1.0000   1.0000   1.0000   1.0000
     1.0000   1.0000   1.0000   1.0000   1.0000   1.0000   1.0000   1.0000
     1.0000   1.0000   1.0000   1.0000   1.0000   1.0000   1.0000   1.0000
     1.0000   1.0000   1.0000   1.0000   1.0000   1.0000   1.0000   1.0000
     1.0000   1.0000   1.0000   1.0000   1.0000   1.0000   1.0000   1.0000
     1.0000   1.0000   1.0000   1.0000   1.0000   1.0000   1.0000   1.0000
     1.0000   1.0000   1.0000   1.0000   1.0000   1.0000   1.0000   1.0000
     1.0000   1.0000   1.0000   1.0000   1.0000   1.0000   1.0000   1.0000
     1.0000   1.0000   1.0000   1.0000   1.0000   1.0000   1.0000   1.0000
     1.0000   1.0000   1.0000   1.0000   1.0000   1.0000   1.0000   1.0000
     1.0000   1.0000   1.0000   1.0000   1.0000   1.0000   1.0000   1.0000
     1.0000   1.0000   1.0000   1.0000   1.0000   1.0000   1.0000   1.0000
     1.0000   1.0000   1.0000   1.0000   1.0000   1.0000   1.0000   1.0000
     1.0000   1.0000   1.0000   1.0000   1.0000   1.0000   1.0000   1.0000
     1.0000   1.0000   1.0000   1.0000   1.0000   1.0000   1.0000   1.0000
     1.0000   1.0000   1.0000   1.0000   1.0000   1.0000   1.0000   1.0000
     1.0000   1.0000   1.0000   1.0000   1.0000   1.0000   1.0000   1.0000
     1.0000   1.0000   1.0000   1.0000   1.0000   1.0000   1.0000   1.0000
     1.0000   1.0000   1.0000   1.0000   1.0000   1.0000   1.0000   1.0000
     1.0000   1.0000   1.0000   1.0000   1.0000   1.0000   1.0000   1.0000
     1.0000   1.0000   1.0000   1.0000   1.0000   1.0000   1.0000   1.0000
     1.0000   1.0000   1.0000   1.0000   1.0000   1.0000   1.0000   1.0000
     1.0000   1.0000   1.0000   1.0000   1.0000   1.0000   1.0000   1.0000
     1.0000   1.0000   1.0000   1.0000   1.0000   1.0000   1.0000   1.0000
     1.0000   1.0000   1.0000   1.0000   1.0000   1.0000   1.0000   1.0000
     1.0000   1.0000   1.0000   1.0000   1.0000   1.0000   1.0000   1.0000
     1.0000   1.0000   1.0000   1.0000   1.0000   1.0000   1.0000   1.0000
     1.0000   1.0000   1.0000   1.0000   1.0000   1.0000   1.0000   1.0000
     1.0000   1.0000   1.0000   1.0000   1.0000   1.0000   1.0000   1.0000
     1.0000   1.0000   1.0000   1.0000   1.0000   1.0000   1.0000   1.0000
     1.0000   1.0000   1.0000   1.0000   1.0000   1.0000   1.0000   1.0000
     1.0000   1.0000   1.0000   1.0000   1.0000   1.0000   1.0000   1.0000
     1.0000   1.0000   1.0000   1.0000   1.0000   1.0000   1.0000   1.0000
     1.0000   1.0000   1.0000   1.0000   1.0000   1.0000   1.0000   1.0000
     1.0000   1.0000   1.0000   1.0000   1.0000   1.0000   1.0000   1.0000
     1.0000   1.0000   1.0000   1.0000   1.0000   1.0000   1.0000   1.0000
     1.0000   1.0000   1.0000   1.0000   1.0000   1.0000   1.0000   1.0000
     1.0000   1.0000   1.0000   1.0000   1.0000   1.0000   1.0000   1.0000
     1.0000   1.0000   1.0000   1.0000   1.0000   1.0000   1.0000   1.0000
     1.0000   1.0000   1.0000   1.0000   1.0000   1.0000   1.0000   1.0000
     1.0000   1.0000   1.0000   1.0000   1.0000   1.0000   1.0000   1.0000
     1.0000   1.0000   1.0000   1.0000   1.0000   1.0000   1.0000   1.0000
     1.0000   1.0000   1.0000   1.0000   1.0000   1.0000   1.0000   1.0000
     1.0000   1.0000   1.0000   1.0000   1.0000   1.0000   1.0000   1.0000
     1.0000   1.0000   1.0000   1.0000   1.0000   1.0000   1.0000   1.0000
     1.0000   1.0000   1.0000   1.0000   1.0000   1.0000   1.0000   1.0000
     1.0000   1.0000   1.0000   1.0000   1.0000   1.0000   1.0000   1.0000
     1.0000   1.0000   1.0000   1.0000   1.0000   1.0000   1.0000   1.0000
     1.0000   1.0000   1.0000   1.0000   1.0000   1.0000   1.0000   1.0000
     1.0000   1.0000   1.0000   1.0000   1.0000   1.0000   1.0000   1.0000
     1.0000   1.0000   1.0000   1.0000   1.0000   1.0000   1.0000   1.0000
     1.0000   1.0000   1.0000   1.0000   1.0000   1.0000   1.0000   1.0000
     1.0000   1.0000   1.0000   1.0000   1.0000   1.0000   1.0000   1.0000
     1.0000   1.0000   1.0000   1.0000   1.0000   1.0000   1.0000   1.0000
     1.0000   1.0000   1.0000   1.0000   1.0000   1.0000   1.0000   1.0000
     1.0000   1.0362   1.0390   1.0429   1.0438   1.0448   1.0464   0.5812
     0.5809   0.5794   0.5689   0.5653   0.5528   0.1547   0.0004   0.0004
     0.0004   0.0000   0.0000   0.0000   0.0000   0.0000   0.0000   0.0000
     0.0000   0.0000   0.0000   0.0000   0.0000   0.0000   0.0000   0.0000
     0.0000   0.0000   0.0000   0.0000   0.0000   0.0000   0.0000   0.0000
     0.0000   0.0000   0.0000   0.0000   0.0000   0.0000   0.0000   0.0000
     0.0000   0.0000   0.0000   0.0000   0.0000   0.0000   0.0000   0.0000
     0.0000   0.0000   0.0000   0.0000   0.0000   0.0000   0.0000   0.0000
     0.0000   0.0000   0.0000   0.0000   0.0000   0.0000   0.0000   0.0000
     0.0000   0.0000   0.0000   0.0000   0.0000   0.0000   0.0000   0.0000
     0.0000   0.0000   0.0000   0.0000   0.0000   0.0000   0.0000   0.0000
     0.0000   0.0000   0.0000   0.0000   0.0000   0.0000   0.0000   0.0000
     0.0000   0.0000   0.0000   0.0000   0.0000   0.0000   0.0000   0.0000
     0.0000   0.0000   0.0000   0.0000   0.0000   0.0000   0.0000   0.0000
     0.0000   0.0000   0.0000   0.0000   0.0000   0.0000   0.0000   0.0000
     0.0000   0.0000   0.0000   0.0000   0.0000   0.0000   0.0000   0.0000
     0.0000   0.0000   0.0000   0.0000   0.0000   0.0000   0.0000   0.0000
     0.0000   0.0000

          k = 0.0000 0.3849 0.0000 ( 90604 PWs)   bands (ev):

  -122.8781-122.8768-122.8763-122.8749-122.8744-122.8742-122.8738-122.8735
  -122.8732-122.8727-122.8724-122.8723-122.8718-122.8716-122.8708-122.8702
  -122.8455-122.8427-122.8367-122.8343-122.8333-122.8309-122.8299-122.8279
  -122.8267-122.8252-122.8246-122.8241-122.8236-122.8234-122.8231-122.8227
  -122.6813-122.6735-122.6729-122.6722-122.6718-122.6714-122.6712-122.6707
  -122.6707-122.6706-122.6705-122.6702-122.6702-122.6698-122.6694-122.6694
  -122.6692-122.6680-122.6676-122.6520-122.6483-122.6481-122.6470-122.6469
  -122.6462-122.6458-122.6447-122.6446-122.6428-122.6423-122.6413-122.6407
   -77.0397 -77.0394 -77.0386 -77.0361 -77.0359 -77.0345 -77.0342 -77.0316
   -77.0315 -77.0311 -77.0295 -77.0281 -77.0275 -77.0275 -77.0273 -77.0262
   -77.0257 -77.0254 -77.0251 -77.0246 -77.0245 -77.0243 -77.0242 -77.0238
   -77.0234 -77.0233 -77.0228 -77.0226 -77.0218 -77.0211 -77.0196 -77.0193
   -77.0187 -77.0184 -77.0164 -77.0160 -77.0152 -77.0146 -77.0137 -77.0133
   -77.0121 -77.0116 -77.0108 -77.0091 -77.0087 -77.0070 -77.0066 -77.0050
   -77.0031 -77.0011 -76.9988 -76.9964 -76.9937 -76.9934 -76.9920 -76.9909
   -76.9900 -76.9887 -76.9877 -76.9873 -76.9858 -76.9854 -76.9844 -76.9838
   -76.9830 -76.9821 -76.9809 -76.9807 -76.9801 -76.9794 -76.9789 -76.9777
   -76.9772 -76.9765 -76.9763 -76.9758 -76.9752 -76.9747 -76.9746 -76.9745
   -76.9741 -76.9737 -76.9727 -76.9707 -76.9703 -76.9694 -76.9684 -76.9673
   -76.9665 -76.9660 -76.9643 -76.9628 -76.9625 -76.9616 -76.9599 -76.9577
   -76.8416 -76.8338 -76.8338 -76.8327 -76.8323 -76.8317 -76.8311 -76.8310
   -76.8307 -76.8306 -76.8305 -76.8305 -76.8301 -76.8299 -76.8298 -76.8296
   -76.8294 -76.8293 -76.8292 -76.8291 -76.8290 -76.8289 -76.8288 -76.8284
   -76.8279 -76.8277 -76.8264 -76.8262 -76.8261 -76.8260 -76.8259 -76.8221
   -76.8220 -76.8200 -76.8190 -76.8190 -76.8178 -76.8159 -76.8137 -76.8137
   -76.8136 -76.8132 -76.8131 -76.8125 -76.8107 -76.8106 -76.8098 -76.8096
   -76.8087 -76.8085 -76.8084 -76.8080 -76.8073 -76.8071 -76.8066 -76.8063
   -76.8063 -76.8059 -76.8059 -76.8058 -76.8050 -76.8049 -76.8047 -76.8037
   -76.8036 -76.8036 -76.8030 -76.8028 -76.8021 -76.8018 -76.8015 -76.8013
   -76.8009 -76.8006 -76.8001 -76.7999 -76.7986 -76.7969 -76.7949 -76.7939
   -76.7919 -76.7906 -76.7897 -76.7867 -76.7864 -76.7855 -76.7845 -76.7834
   -76.7829 -76.7821 -76.7807 -76.7794 -76.7784 -76.7772 -76.7756 -76.7737
   -15.5014 -14.0889 -13.2710 -10.8899 -10.8056  -7.8784  -7.6060  -6.2927
    -5.7276  -5.6856  -5.5143  -5.1463  -5.1447  -5.1335  -5.1120  -4.9799
    -4.8498  -4.7857  -4.6842  -4.6432  -4.6387  -4.6386  -4.6261  -4.5917
    -4.5888  -4.5842  -4.5831  -4.5807  -4.5802  -4.5551  -4.5491  -4.4974
    -4.4895  -4.4643  -4.4641  -4.4456  -4.4448  -4.4356  -4.4354  -4.4180
    -4.4111  -4.3883  -4.3880  -4.3755  -4.3743  -4.3715  -4.3712  -4.3472
    -4.3464  -4.3461  -4.3348  -4.3345  -4.3223  -4.3222  -4.3171  -4.3151
    -4.3147  -4.3003  -4.3001  -4.2830  -4.2808  -4.2710  -4.2704  -4.2645
    -4.2644  -4.2491  -4.2467  -4.2461  -4.2446  -4.2435  -4.2311  -4.2308
    -4.2299  -4.1978  -4.1977  -4.1927  -4.1918  -4.1755  -4.1742  -4.1723
    -4.1712  -4.1664  -4.1651  -4.1645  -4.1202  -4.1181  -4.1150  -4.1137
    -4.1097  -4.0922  -4.0908  -4.0884  -4.0881  -4.0773  -4.0772  -4.0684
    -4.0498  -4.0488  -4.0431  -4.0404  -4.0403  -4.0398  -4.0352  -4.0334
    -4.0320  -4.0134  -4.0128  -4.0044  -4.0035  -4.0025  -3.9986  -3.9970
    -3.9956  -3.9949  -3.9934  -3.9835  -3.9827  -3.9726  -3.9714  -3.9702
    -3.9523  -3.9312  -3.9237  -3.9219  -3.9144  -3.9033  -3.9013  -3.8996
    -3.8986  -3.8967  -3.8914  -3.8908  -3.8882  -3.8860  -3.8855  -3.8726
    -3.8613  -3.8604  -3.8556  -3.8555  -3.8367  -3.8361  -3.8226  -3.8189
    -3.8145  -3.8110  -3.8099  -3.8069  -3.8064  -3.7876  -3.7865  -3.7809
    -3.7803  -3.7692  -3.7680  -3.7646  -3.7445  -3.7440  -3.7424  -3.7395
    -3.7385  -3.7301  -3.7274  -3.7168  -3.7154  -3.7150  -3.7134  -3.7124
    -3.6852  -3.6850  -3.6826  -3.6819  -3.6802  -3.6640  -3.6618  -3.6600
    -3.6598  -3.6420  -3.6374  -3.6276  -3.6274  -3.6084  -3.6080  -3.6065
    -3.6062  -3.6060  -3.6022  -3.6021  -3.5984  -3.5963  -3.5953  -3.5870
    -3.5865  -3.5753  -3.5744  -3.5696  -3.5690  -3.5676  -3.5671  -3.5561
    -3.5556  -3.5474  -3.5469  -3.5456  -3.5445  -3.5434  -3.5352  -3.5345
    -3.5278  -3.5221  -3.5216  -3.5101  -3.5089  -3.5038  -3.5032  -3.5023
    -3.4948  -3.4945  -3.4909  -3.4902  -3.4869  -3.4861  -3.4856  -3.4811
    -3.4804  -3.4645  -3.4634  -3.4624  -3.4615  -3.4612  -3.4605  -3.4569
    -3.4557  -3.4551  -3.4453  -3.4280  -3.4276  -3.4271  -3.4240  -3.4236
    -3.4062  -3.4053  -3.3970  -3.3960  -3.3742  -3.3706  -3.3693  -3.3664
    -3.3656  -3.3650  -3.3629  -3.3609  -3.3587  -3.3579  -3.3572  -3.3565
    -3.3493  -3.3491  -3.3428  -3.3405  -3.3400  -3.3382  -3.3377  -3.3351
    -3.3343  -3.3275  -3.3269  -3.3256  -3.3251  -3.3238  -3.3162  -3.3092
    -3.3086  -3.3018  -3.3012  -3.2856  -3.2831  -3.2825  -3.2745  -3.2725
    -3.2722  -3.2713  -3.2711  -3.2497  -3.2458  -3.2422  -3.2413  -3.2375
    -3.2368  -3.2325  -3.2319  -3.2314  -3.2313  -3.2305  -3.2298  -3.2263
    -3.2259  -3.2188  -3.2169  -3.2154  -3.2147  -3.2122  -3.2109  -3.2105
    -3.2038  -3.2013  -3.2010  -3.1891  -3.1887  -3.1884  -3.1868  -3.1805
    -3.1803  -3.1699  -3.1565  -3.1564  -3.1418  -3.1261  -3.1258  -3.1188
    -3.1183  -3.0995  -3.0984  -3.0981  -3.0971  -3.0957  -3.0949  -3.0861
    -3.0809  -3.0748  -3.0740  -3.0287  -3.0228  -2.9936  -2.9720  -2.9719
    -2.9520  -2.9504  -2.9369  -2.9158  -2.8262  -2.8256  -2.7661  -2.5771
    -2.4886  -2.2966  -2.1649  -2.1613  -2.1068  -1.8180  -1.8099  -1.7671
    -1.6698  -1.6685  -1.6592  -0.9118  -0.8900  -0.8842  -0.8574  -0.7333
    -0.7183  -0.7039  -0.6543  -0.4106  -0.1693  -0.0985   0.0737   0.0741
     0.1380   0.1382   0.1799   0.3172   0.5096   0.5338   0.5577   0.6295
     0.6299   0.9720   0.9726   1.1238   1.1260   1.2724   1.4249   1.4262
     1.4319   1.5773   1.6489   2.0768   2.0786   2.2268   2.2989   2.3025
     2.3596   2.3613   2.5851   2.6084   2.6288   2.9187   2.9222   2.9741
     2.9858   3.0447   3.0460   3.0941   3.9055   3.9086   4.2117   4.2121
     4.3242   4.3603   4.3664   4.5148   4.5169   4.7489   4.7511   4.9541
     5.0070   5.1099   5.1498   5.1513   5.5633   5.5829   5.5916   5.5929
     5.6705   5.6729   5.7467   5.7474   5.7524   5.8567   5.8578   6.1767
     6.2114   6.2240   6.3073   6.3087   6.4132   6.6237   6.7395   6.7905
     6.8082   7.0095   7.0116   7.1744   7.1761   7.2814   7.2882   7.3077
     7.3398   7.3613   7.5002   7.5065   7.5099   7.7929   7.8700   7.9135
     7.9224   7.9379   7.9449   7.9499   7.9712   8.0019   8.0836   8.0859
     8.1052   8.1094   8.1726   8.4107   8.4798   8.4903   8.4926   8.6747
     8.7137   8.7161   8.7762   8.7872   8.8759   8.9962   9.0008   9.0759
     9.1155   9.1306   9.1422   9.2254   9.2324   9.2573   9.3540   9.3648
     9.4223   9.5004   9.5780   9.6051   9.6174   9.6478   9.7328   9.7437
     9.8144   9.8993   9.9684  10.0341  10.1000  10.1073  10.1220  10.1915
    10.2292  10.2380  10.2697  10.3456  10.3742  10.4032  10.4213  10.5014
    10.5555  10.6206  10.6581  10.6882  10.6965  10.7907  10.8409  10.8417
    10.8720  10.9383  11.0346  11.0592  11.0839  11.0906  11.0959  11.1165
    11.1325  11.1521  11.1611  11.3056  11.3582  11.4834  11.5431  11.5822
    11.6202  11.6722

     occupation numbers 
     1.0000   1.0000   1.0000   1.0000   1.0000   1.0000   1.0000   1.0000
     1.0000   1.0000   1.0000   1.0000   1.0000   1.0000   1.0000   1.0000
     1.0000   1.0000   1.0000   1.0000   1.0000   1.0000   1.0000   1.0000
     1.0000   1.0000   1.0000   1.0000   1.0000   1.0000   1.0000   1.0000
     1.0000   1.0000   1.0000   1.0000   1.0000   1.0000   1.0000   1.0000
     1.0000   1.0000   1.0000   1.0000   1.0000   1.0000   1.0000   1.0000
     1.0000   1.0000   1.0000   1.0000   1.0000   1.0000   1.0000   1.0000
     1.0000   1.0000   1.0000   1.0000   1.0000   1.0000   1.0000   1.0000
     1.0000   1.0000   1.0000   1.0000   1.0000   1.0000   1.0000   1.0000
     1.0000   1.0000   1.0000   1.0000   1.0000   1.0000   1.0000   1.0000
     1.0000   1.0000   1.0000   1.0000   1.0000   1.0000   1.0000   1.0000
     1.0000   1.0000   1.0000   1.0000   1.0000   1.0000   1.0000   1.0000
     1.0000   1.0000   1.0000   1.0000   1.0000   1.0000   1.0000   1.0000
     1.0000   1.0000   1.0000   1.0000   1.0000   1.0000   1.0000   1.0000
     1.0000   1.0000   1.0000   1.0000   1.0000   1.0000   1.0000   1.0000
     1.0000   1.0000   1.0000   1.0000   1.0000   1.0000   1.0000   1.0000
     1.0000   1.0000   1.0000   1.0000   1.0000   1.0000   1.0000   1.0000
     1.0000   1.0000   1.0000   1.0000   1.0000   1.0000   1.0000   1.0000
     1.0000   1.0000   1.0000   1.0000   1.0000   1.0000   1.0000   1.0000
     1.0000   1.0000   1.0000   1.0000   1.0000   1.0000   1.0000   1.0000
     1.0000   1.0000   1.0000   1.0000   1.0000   1.0000   1.0000   1.0000
     1.0000   1.0000   1.0000   1.0000   1.0000   1.0000   1.0000   1.0000
     1.0000   1.0000   1.0000   1.0000   1.0000   1.0000   1.0000   1.0000
     1.0000   1.0000   1.0000   1.0000   1.0000   1.0000   1.0000   1.0000
     1.0000   1.0000   1.0000   1.0000   1.0000   1.0000   1.0000   1.0000
     1.0000   1.0000   1.0000   1.0000   1.0000   1.0000   1.0000   1.0000
     1.0000   1.0000   1.0000   1.0000   1.0000   1.0000   1.0000   1.0000
     1.0000   1.0000   1.0000   1.0000   1.0000   1.0000   1.0000   1.0000
     1.0000   1.0000   1.0000   1.0000   1.0000   1.0000   1.0000   1.0000
     1.0000   1.0000   1.0000   1.0000   1.0000   1.0000   1.0000   1.0000
     1.0000   1.0000   1.0000   1.0000   1.0000   1.0000   1.0000   1.0000
     1.0000   1.0000   1.0000   1.0000   1.0000   1.0000   1.0000   1.0000
     1.0000   1.0000   1.0000   1.0000   1.0000   1.0000   1.0000   1.0000
     1.0000   1.0000   1.0000   1.0000   1.0000   1.0000   1.0000   1.0000
     1.0000   1.0000   1.0000   1.0000   1.0000   1.0000   1.0000   1.0000
     1.0000   1.0000   1.0000   1.0000   1.0000   1.0000   1.0000   1.0000
     1.0000   1.0000   1.0000   1.0000   1.0000   1.0000   1.0000   1.0000
     1.0000   1.0000   1.0000   1.0000   1.0000   1.0000   1.0000   1.0000
     1.0000   1.0000   1.0000   1.0000   1.0000   1.0000   1.0000   1.0000
     1.0000   1.0000   1.0000   1.0000   1.0000   1.0000   1.0000   1.0000
     1.0000   1.0000   1.0000   1.0000   1.0000   1.0000   1.0000   1.0000
     1.0000   1.0000   1.0000   1.0000   1.0000   1.0000   1.0000   1.0000
     1.0000   1.0000   1.0000   1.0000   1.0000   1.0000   1.0000   1.0000
     1.0000   1.0000   1.0000   1.0000   1.0000   1.0000   1.0000   1.0000
     1.0000   1.0000   1.0000   1.0000   1.0000   1.0000   1.0000   1.0000
     1.0000   1.0000   1.0000   1.0000   1.0000   1.0000   1.0000   1.0000
     1.0000   1.0000   1.0000   1.0000   1.0000   1.0000   1.0000   1.0000
     1.0000   1.0000   1.0000   1.0000   1.0000   1.0000   1.0000   1.0000
     1.0000   1.0000   1.0000   1.0000   1.0000   1.0000   1.0000   1.0000
     1.0000   1.0000   1.0000   1.0000   1.0000   1.0000   1.0000   1.0000
     1.0000   1.0000   1.0000   1.0000   1.0000   1.0000   1.0000   1.0000
     1.0000   1.0000   1.0000   1.0000   1.0000   1.0000   1.0000   1.0000
     1.0000   1.0000   1.0000   1.0000   1.0000   1.0000   1.0000   1.0000
     1.0000   1.0000   1.0000   1.0000   1.0000   1.0000   1.0000   1.0000
     1.0000   1.0000   1.0000   1.0000   1.0000   1.0000   1.0000   1.0000
     1.0000   1.0000   1.0000   1.0000   1.0000   1.0000   1.0000   1.0000
     1.0000   1.0000   1.0000   1.0000   1.0000   1.0000   1.0000   1.0000
     1.0000   1.0000   1.0000   1.0000   1.0000   1.0000   1.0000   1.0000
     1.0000   1.0000   1.0000   1.0000   1.0000   1.0000   1.0000   1.0000
     1.0000   1.0000   1.0000   1.0000   1.0000   1.0000   1.0000   1.0000
     1.0000   1.0000   1.0000   1.0000   1.0000   1.0000   1.0000   1.0000
     1.0000   1.0000   1.0000   1.0000   1.0000   1.0000   1.0000   1.0000
     1.0000   1.0000   1.0000   1.0000   1.0000   1.0000   1.0000   1.0000
     1.0000   1.0000   1.0000   1.0000   1.0000   1.0000   1.0000   1.0000
     1.0000   1.0000   1.0000   1.0000   1.0000   1.0000   1.0000   1.0000
     1.0000   1.0000   1.0000   1.0000   1.0000   1.0000   1.0000   1.0000
     1.0000   1.0000   1.0000   1.0000   1.0000   1.0000   1.0000   1.0000
     1.0000   1.0000   1.0000   1.0000   1.0000   1.0000   1.0000   1.0000
     1.0000   1.0000   1.0000   1.0000   1.0000   1.0000   1.0000   1.0000
     1.0000   1.0000   1.0000   1.0000   1.0000   1.0000   1.0000   1.0000
     1.0000   1.0000   1.0000   1.0000   1.0000   1.0000   1.0000   1.0000
     1.0000   1.0000   1.0000   1.0000   1.0000   1.0000   1.0000   1.0000
     1.0000   1.0000   1.0000   1.0000   1.0000   1.0000   1.0000   1.0000
     1.0000   1.0000   1.0000   1.0000   1.0000   1.0000   1.0000   1.0000
     1.0000   1.0000   1.0000   1.0000   1.0000   1.0000   1.0000   1.0000
     1.0000   1.0000   1.0000   1.0000   1.0000   1.0000   1.0000   1.0000
     1.0000   1.0000   1.0000   1.0000   1.0000   1.0000   1.0000   1.0000
     1.0000   1.0000   1.0000   1.0000   1.0000   1.0000   1.0000   1.0000
     1.0000   1.0000   1.0000   1.0000   1.0000   1.0000   1.0000   1.0000
     1.0000   1.0000   1.0000   1.0000   1.0000   1.0000   1.0000   1.0000
     1.0000   1.0000   1.0000   1.0000   1.0000   1.0000   1.0000   1.0000
     1.0000   1.0000   1.0000   1.0000   1.0000   1.0000   1.0000   1.0000
     1.0000   1.0001   1.0001   1.0004   0.6336   0.6250   0.0563   0.0560
     0.0129   0.0075   0.0068   0.0005   0.0005   0.0000   0.0000   0.0000
     0.0000   0.0000   0.0000   0.0000   0.0000   0.0000   0.0000   0.0000
     0.0000   0.0000   0.0000   0.0000   0.0000   0.0000   0.0000   0.0000
     0.0000   0.0000   0.0000   0.0000   0.0000   0.0000   0.0000   0.0000
     0.0000   0.0000   0.0000   0.0000   0.0000   0.0000   0.0000   0.0000
     0.0000   0.0000   0.0000   0.0000   0.0000   0.0000   0.0000   0.0000
     0.0000   0.0000   0.0000   0.0000   0.0000   0.0000   0.0000   0.0000
     0.0000   0.0000   0.0000   0.0000   0.0000   0.0000   0.0000   0.0000
     0.0000   0.0000   0.0000   0.0000   0.0000   0.0000   0.0000   0.0000
     0.0000   0.0000   0.0000   0.0000   0.0000   0.0000   0.0000   0.0000
     0.0000   0.0000   0.0000   0.0000   0.0000   0.0000   0.0000   0.0000
     0.0000   0.0000   0.0000   0.0000   0.0000   0.0000   0.0000   0.0000
     0.0000   0.0000   0.0000   0.0000   0.0000   0.0000   0.0000   0.0000
     0.0000   0.0000   0.0000   0.0000   0.0000   0.0000   0.0000   0.0000
     0.0000   0.0000   0.0000   0.0000   0.0000   0.0000   0.0000   0.0000
     0.0000   0.0000   0.0000   0.0000   0.0000   0.0000   0.0000   0.0000
     0.0000   0.0000

          k = 0.3333 0.1925 0.0000 ( 90604 PWs)   bands (ev):

  -122.8781-122.8767-122.8764-122.8749-122.8744-122.8741-122.8739-122.8736
  -122.8732-122.8726-122.8724-122.8723-122.8718-122.8716-122.8708-122.8702
  -122.8455-122.8427-122.8367-122.8343-122.8333-122.8309-122.8299-122.8279
  -122.8267-122.8252-122.8247-122.8241-122.8237-122.8234-122.8230-122.8228
  -122.6813-122.6735-122.6729-122.6722-122.6719-122.6714-122.6712-122.6709
  -122.6707-122.6706-122.6704-122.6702-122.6701-122.6700-122.6694-122.6694
  -122.6691-122.6680-122.6676-122.6520-122.6483-122.6481-122.6470-122.6469
  -122.6462-122.6458-122.6447-122.6446-122.6428-122.6423-122.6413-122.6407
   -77.0397 -77.0393 -77.0386 -77.0361 -77.0360 -77.0345 -77.0342 -77.0316
   -77.0314 -77.0312 -77.0295 -77.0280 -77.0276 -77.0275 -77.0273 -77.0262
   -77.0256 -77.0254 -77.0251 -77.0248 -77.0245 -77.0244 -77.0242 -77.0236
   -77.0234 -77.0233 -77.0228 -77.0226 -77.0218 -77.0211 -77.0195 -77.0193
   -77.0187 -77.0184 -77.0163 -77.0160 -77.0152 -77.0148 -77.0137 -77.0131
   -77.0121 -77.0116 -77.0108 -77.0091 -77.0088 -77.0070 -77.0065 -77.0051
   -77.0029 -77.0014 -76.9989 -76.9964 -76.9939 -76.9937 -76.9918 -76.9908
   -76.9898 -76.9880 -76.9876 -76.9870 -76.9859 -76.9854 -76.9844 -76.9842
   -76.9834 -76.9821 -76.9817 -76.9812 -76.9809 -76.9789 -76.9785 -76.9777
   -76.9769 -76.9763 -76.9759 -76.9754 -76.9751 -76.9748 -76.9745 -76.9743
   -76.9741 -76.9738 -76.9725 -76.9715 -76.9701 -76.9697 -76.9686 -76.9678
   -76.9663 -76.9656 -76.9646 -76.9631 -76.9622 -76.9613 -76.9596 -76.9581
   -76.8416 -76.8339 -76.8337 -76.8327 -76.8324 -76.8317 -76.8311 -76.8310
   -76.8306 -76.8306 -76.8305 -76.8305 -76.8301 -76.8299 -76.8298 -76.8297
   -76.8295 -76.8293 -76.8292 -76.8290 -76.8290 -76.8289 -76.8287 -76.8286
   -76.8279 -76.8277 -76.8264 -76.8262 -76.8261 -76.8260 -76.8259 -76.8221
   -76.8220 -76.8200 -76.8190 -76.8189 -76.8178 -76.8158 -76.8138 -76.8137
   -76.8137 -76.8132 -76.8131 -76.8125 -76.8107 -76.8106 -76.8097 -76.8097
   -76.8087 -76.8085 -76.8084 -76.8080 -76.8073 -76.8071 -76.8066 -76.8063
   -76.8063 -76.8060 -76.8059 -76.8058 -76.8050 -76.8049 -76.8047 -76.8037
   -76.8036 -76.8035 -76.8030 -76.8028 -76.8021 -76.8018 -76.8015 -76.8013
   -76.8009 -76.8006 -76.8000 -76.7999 -76.7986 -76.7969 -76.7949 -76.7940
   -76.7919 -76.7905 -76.7897 -76.7868 -76.7865 -76.7855 -76.7845 -76.7834
   -76.7829 -76.7821 -76.7807 -76.7794 -76.7784 -76.7772 -76.7756 -76.7737
   -15.5014 -14.0889 -13.2710 -10.8899 -10.8056  -7.8784  -7.6059  -6.2927
    -5.7276  -5.6856  -5.5143  -5.1472  -5.1436  -5.1336  -5.1120  -4.9799
    -4.8498  -4.7857  -4.6842  -4.6432  -4.6387  -4.6386  -4.6262  -4.5915
    -4.5890  -4.5840  -4.5832  -4.5807  -4.5801  -4.5552  -4.5491  -4.4975
    -4.4895  -4.4643  -4.4640  -4.4455  -4.4449  -4.4355  -4.4354  -4.4180
    -4.4111  -4.3884  -4.3879  -4.3755  -4.3742  -4.3714  -4.3712  -4.3473
    -4.3464  -4.3461  -4.3348  -4.3346  -4.3223  -4.3222  -4.3169  -4.3152
    -4.3147  -4.3002  -4.3001  -4.2827  -4.2810  -4.2709  -4.2705  -4.2645
    -4.2644  -4.2490  -4.2466  -4.2461  -4.2446  -4.2436  -4.2313  -4.2308
    -4.2299  -4.1978  -4.1977  -4.1928  -4.1918  -4.1756  -4.1741  -4.1723
    -4.1711  -4.1666  -4.1651  -4.1642  -4.1205  -4.1178  -4.1151  -4.1137
    -4.1097  -4.0920  -4.0908  -4.0885  -4.0882  -4.0773  -4.0772  -4.0684
    -4.0496  -4.0490  -4.0424  -4.0408  -4.0402  -4.0401  -4.0353  -4.0333
    -4.0318  -4.0133  -4.0129  -4.0047  -4.0033  -4.0026  -3.9986  -3.9975
    -3.9955  -3.9948  -3.9933  -3.9836  -3.9826  -3.9725  -3.9715  -3.9702
    -3.9523  -3.9312  -3.9235  -3.9222  -3.9144  -3.9031  -3.9019  -3.8994
    -3.8984  -3.8969  -3.8914  -3.8909  -3.8878  -3.8859  -3.8856  -3.8726
    -3.8614  -3.8608  -3.8557  -3.8553  -3.8366  -3.8362  -3.8225  -3.8186
    -3.8144  -3.8109  -3.8099  -3.8068  -3.8065  -3.7875  -3.7867  -3.7810
    -3.7802  -3.7690  -3.7681  -3.7647  -3.7446  -3.7439  -3.7424  -3.7394
    -3.7387  -3.7301  -3.7274  -3.7168  -3.7156  -3.7149  -3.7130  -3.7125
    -3.6851  -3.6851  -3.6825  -3.6817  -3.6803  -3.6640  -3.6620  -3.6600
    -3.6598  -3.6420  -3.6373  -3.6277  -3.6275  -3.6085  -3.6076  -3.6070
    -3.6062  -3.6057  -3.6022  -3.6020  -3.5988  -3.5962  -3.5955  -3.5873
    -3.5863  -3.5752  -3.5744  -3.5696  -3.5691  -3.5675  -3.5672  -3.5560
    -3.5557  -3.5475  -3.5470  -3.5456  -3.5443  -3.5435  -3.5351  -3.5348
    -3.5277  -3.5224  -3.5213  -3.5101  -3.5091  -3.5038  -3.5032  -3.5022
    -3.4947  -3.4943  -3.4909  -3.4901  -3.4870  -3.4864  -3.4856  -3.4810
    -3.4806  -3.4643  -3.4632  -3.4624  -3.4615  -3.4611  -3.4606  -3.4570
    -3.4556  -3.4552  -3.4454  -3.4279  -3.4275  -3.4271  -3.4244  -3.4234
    -3.4061  -3.4053  -3.3973  -3.3959  -3.3743  -3.3708  -3.3694  -3.3660
    -3.3655  -3.3649  -3.3633  -3.3609  -3.3587  -3.3583  -3.3570  -3.3565
    -3.3494  -3.3492  -3.3429  -3.3410  -3.3394  -3.3382  -3.3374  -3.3350
    -3.3344  -3.3274  -3.3273  -3.3255  -3.3250  -3.3236  -3.3162  -3.3092
    -3.3086  -3.3019  -3.3011  -3.2855  -3.2832  -3.2824  -3.2745  -3.2724
    -3.2721  -3.2715  -3.2712  -3.2496  -3.2458  -3.2421  -3.2414  -3.2371
    -3.2368  -3.2326  -3.2320  -3.2314  -3.2312  -3.2306  -3.2298  -3.2263
    -3.2259  -3.2190  -3.2169  -3.2154  -3.2148  -3.2122  -3.2110  -3.2105
    -3.2038  -3.2012  -3.2010  -3.1892  -3.1886  -3.1883  -3.1868  -3.1804
    -3.1801  -3.1697  -3.1565  -3.1564  -3.1418  -3.1261  -3.1258  -3.1188
    -3.1184  -3.1000  -3.0983  -3.0980  -3.0970  -3.0957  -3.0949  -3.0869
    -3.0799  -3.0749  -3.0739  -3.0284  -3.0228  -2.9940  -2.9720  -2.9719
    -2.9520  -2.9503  -2.9370  -2.9158  -2.8262  -2.8256  -2.7661  -2.5771
    -2.4886  -2.2966  -2.1647  -2.1615  -2.1069  -1.8183  -1.8098  -1.7667
    -1.6697  -1.6686  -1.6593  -0.9118  -0.8901  -0.8839  -0.8574  -0.7332
    -0.7180  -0.7040  -0.6542  -0.4107  -0.1694  -0.0985   0.0735   0.0744
     0.1380   0.1382   0.1798   0.3173   0.5097   0.5339   0.5578   0.6294
     0.6300   0.9721   0.9725   1.1240   1.1259   1.2724   1.4252   1.4263
     1.4315   1.5774   1.6488   2.0770   2.0784   2.2266   2.2990   2.3025
     2.3598   2.3613   2.5879   2.6084   2.6256   2.9187   2.9221   2.9739
     2.9863   3.0440   3.0460   3.0944   3.9046   3.9092   4.2115   4.2126
     4.3241   4.3602   4.3666   4.5153   4.5169   4.7496   4.7515   4.9540
     5.0068   5.1093   5.1497   5.1517   5.5635   5.5825   5.5918   5.5933
     5.6696   5.6738   5.7459   5.7478   5.7517   5.8566   5.8581   6.1783
     6.2117   6.2234   6.3073   6.3092   6.4113   6.6222   6.7380   6.7906
     6.8088   7.0100   7.0109   7.1747   7.1758   7.2819   7.2873   7.3074
     7.3350   7.3618   7.4972   7.5071   7.5100   7.7942   7.8614   7.9133
     7.9210   7.9369   7.9454   7.9530   7.9763   8.0088   8.0836   8.0861
     8.1024   8.1112   8.1809   8.4138   8.4800   8.4906   8.4930   8.6506
     8.7150   8.7173   8.7791   8.7870   8.8743   8.9690   9.0361   9.0838
     9.1212   9.1333   9.1467   9.2191   9.2334   9.2525   9.3551   9.3654
     9.4299   9.4845   9.5878   9.6102   9.6152   9.6429   9.7346   9.7430
     9.8170   9.9310   9.9698  10.0300  10.0881  10.1069  10.1341  10.1949
    10.2240  10.2358  10.2727  10.3451  10.3748  10.3889  10.4140  10.5110
    10.5588  10.6066  10.6505  10.6879  10.7121  10.7784  10.8406  10.8414
    10.8735  10.9577  11.0356  11.0582  11.0776  11.0893  11.1007  11.1160
    11.1309  11.1631  11.1766  11.2783  11.3587  11.4595  11.5794  11.5944
    11.6381  11.6754

     occupation numbers 
     1.0000   1.0000   1.0000   1.0000   1.0000   1.0000   1.0000   1.0000
     1.0000   1.0000   1.0000   1.0000   1.0000   1.0000   1.0000   1.0000
     1.0000   1.0000   1.0000   1.0000   1.0000   1.0000   1.0000   1.0000
     1.0000   1.0000   1.0000   1.0000   1.0000   1.0000   1.0000   1.0000
     1.0000   1.0000   1.0000   1.0000   1.0000   1.0000   1.0000   1.0000
     1.0000   1.0000   1.0000   1.0000   1.0000   1.0000   1.0000   1.0000
     1.0000   1.0000   1.0000   1.0000   1.0000   1.0000   1.0000   1.0000
     1.0000   1.0000   1.0000   1.0000   1.0000   1.0000   1.0000   1.0000
     1.0000   1.0000   1.0000   1.0000   1.0000   1.0000   1.0000   1.0000
     1.0000   1.0000   1.0000   1.0000   1.0000   1.0000   1.0000   1.0000
     1.0000   1.0000   1.0000   1.0000   1.0000   1.0000   1.0000   1.0000
     1.0000   1.0000   1.0000   1.0000   1.0000   1.0000   1.0000   1.0000
     1.0000   1.0000   1.0000   1.0000   1.0000   1.0000   1.0000   1.0000
     1.0000   1.0000   1.0000   1.0000   1.0000   1.0000   1.0000   1.0000
     1.0000   1.0000   1.0000   1.0000   1.0000   1.0000   1.0000   1.0000
     1.0000   1.0000   1.0000   1.0000   1.0000   1.0000   1.0000   1.0000
     1.0000   1.0000   1.0000   1.0000   1.0000   1.0000   1.0000   1.0000
     1.0000   1.0000   1.0000   1.0000   1.0000   1.0000   1.0000   1.0000
     1.0000   1.0000   1.0000   1.0000   1.0000   1.0000   1.0000   1.0000
     1.0000   1.0000   1.0000   1.0000   1.0000   1.0000   1.0000   1.0000
     1.0000   1.0000   1.0000   1.0000   1.0000   1.0000   1.0000   1.0000
     1.0000   1.0000   1.0000   1.0000   1.0000   1.0000   1.0000   1.0000
     1.0000   1.0000   1.0000   1.0000   1.0000   1.0000   1.0000   1.0000
     1.0000   1.0000   1.0000   1.0000   1.0000   1.0000   1.0000   1.0000
     1.0000   1.0000   1.0000   1.0000   1.0000   1.0000   1.0000   1.0000
     1.0000   1.0000   1.0000   1.0000   1.0000   1.0000   1.0000   1.0000
     1.0000   1.0000   1.0000   1.0000   1.0000   1.0000   1.0000   1.0000
     1.0000   1.0000   1.0000   1.0000   1.0000   1.0000   1.0000   1.0000
     1.0000   1.0000   1.0000   1.0000   1.0000   1.0000   1.0000   1.0000
     1.0000   1.0000   1.0000   1.0000   1.0000   1.0000   1.0000   1.0000
     1.0000   1.0000   1.0000   1.0000   1.0000   1.0000   1.0000   1.0000
     1.0000   1.0000   1.0000   1.0000   1.0000   1.0000   1.0000   1.0000
     1.0000   1.0000   1.0000   1.0000   1.0000   1.0000   1.0000   1.0000
     1.0000   1.0000   1.0000   1.0000   1.0000   1.0000   1.0000   1.0000
     1.0000   1.0000   1.0000   1.0000   1.0000   1.0000   1.0000   1.0000
     1.0000   1.0000   1.0000   1.0000   1.0000   1.0000   1.0000   1.0000
     1.0000   1.0000   1.0000   1.0000   1.0000   1.0000   1.0000   1.0000
     1.0000   1.0000   1.0000   1.0000   1.0000   1.0000   1.0000   1.0000
     1.0000   1.0000   1.0000   1.0000   1.0000   1.0000   1.0000   1.0000
     1.0000   1.0000   1.0000   1.0000   1.0000   1.0000   1.0000   1.0000
     1.0000   1.0000   1.0000   1.0000   1.0000   1.0000   1.0000   1.0000
     1.0000   1.0000   1.0000   1.0000   1.0000   1.0000   1.0000   1.0000
     1.0000   1.0000   1.0000   1.0000   1.0000   1.0000   1.0000   1.0000
     1.0000   1.0000   1.0000   1.0000   1.0000   1.0000   1.0000   1.0000
     1.0000   1.0000   1.0000   1.0000   1.0000   1.0000   1.0000   1.0000
     1.0000   1.0000   1.0000   1.0000   1.0000   1.0000   1.0000   1.0000
     1.0000   1.0000   1.0000   1.0000   1.0000   1.0000   1.0000   1.0000
     1.0000   1.0000   1.0000   1.0000   1.0000   1.0000   1.0000   1.0000
     1.0000   1.0000   1.0000   1.0000   1.0000   1.0000   1.0000   1.0000
     1.0000   1.0000   1.0000   1.0000   1.0000   1.0000   1.0000   1.0000
     1.0000   1.0000   1.0000   1.0000   1.0000   1.0000   1.0000   1.0000
     1.0000   1.0000   1.0000   1.0000   1.0000   1.0000   1.0000   1.0000
     1.0000   1.0000   1.0000   1.0000   1.0000   1.0000   1.0000   1.0000
     1.0000   1.0000   1.0000   1.0000   1.0000   1.0000   1.0000   1.0000
     1.0000   1.0000   1.0000   1.0000   1.0000   1.0000   1.0000   1.0000
     1.0000   1.0000   1.0000   1.0000   1.0000   1.0000   1.0000   1.0000
     1.0000   1.0000   1.0000   1.0000   1.0000   1.0000   1.0000   1.0000
     1.0000   1.0000   1.0000   1.0000   1.0000   1.0000   1.0000   1.0000
     1.0000   1.0000   1.0000   1.0000   1.0000   1.0000   1.0000   1.0000
     1.0000   1.0000   1.0000   1.0000   1.0000   1.0000   1.0000   1.0000
     1.0000   1.0000   1.0000   1.0000   1.0000   1.0000   1.0000   1.0000
     1.0000   1.0000   1.0000   1.0000   1.0000   1.0000   1.0000   1.0000
     1.0000   1.0000   1.0000   1.0000   1.0000   1.0000   1.0000   1.0000
     1.0000   1.0000   1.0000   1.0000   1.0000   1.0000   1.0000   1.0000
     1.0000   1.0000   1.0000   1.0000   1.0000   1.0000   1.0000   1.0000
     1.0000   1.0000   1.0000   1.0000   1.0000   1.0000   1.0000   1.0000
     1.0000   1.0000   1.0000   1.0000   1.0000   1.0000   1.0000   1.0000
     1.0000   1.0000   1.0000   1.0000   1.0000   1.0000   1.0000   1.0000
     1.0000   1.0000   1.0000   1.0000   1.0000   1.0000   1.0000   1.0000
     1.0000   1.0000   1.0000   1.0000   1.0000   1.0000   1.0000   1.0000
     1.0000   1.0000   1.0000   1.0000   1.0000   1.0000   1.0000   1.0000
     1.0000   1.0000   1.0000   1.0000   1.0000   1.0000   1.0000   1.0000
     1.0000   1.0000   1.0000   1.0000   1.0000   1.0000   1.0000   1.0000
     1.0000   1.0000   1.0000   1.0000   1.0000   1.0000   1.0000   1.0000
     1.0000   1.0000   1.0000   1.0000   1.0000   1.0000   1.0000   1.0000
     1.0000   1.0000   1.0000   1.0000   1.0000   1.0000   1.0000   1.0000
     1.0000   1.0000   1.0000   1.0000   1.0000   1.0000   1.0000   1.0000
[...]
     atom   77 type  4   force =     0.00000000    0.00000000    0.00000000
     atom   78 type  4   force =     0.00000000    0.00000000    0.00000000
     atom   79 type  4   force =     0.00000000    0.00000000    0.00000000
     The Hubbard contrib.    to forces
     atom    1 type  1   force =     0.00000000    0.00000000    0.00000000
     atom    2 type  1   force =     0.00000000    0.00000000    0.00000000
     atom    3 type  1   force =     0.00000000    0.00000000    0.00000000
     atom    4 type  1   force =     0.00000000    0.00000000    0.00000000
     atom    5 type  1   force =     0.00000000    0.00000000    0.00000000
     atom    6 type  1   force =     0.00000000    0.00000000    0.00000000
     atom    7 type  1   force =     0.00000000    0.00000000    0.00000000
     atom    8 type  1   force =     0.00000000    0.00000000    0.00000000
     atom    9 type  1   force =     0.00000000    0.00000000    0.00000000
     atom   10 type  1   force =     0.00000000    0.00000000    0.00000000
     atom   11 type  1   force =     0.00000000    0.00000000    0.00000000
     atom   12 type  1   force =     0.00000000    0.00000000    0.00000000
     atom   13 type  1   force =     0.00000000    0.00000000    0.00000000
     atom   14 type  1   force =     0.00000000    0.00000000    0.00000000
     atom   15 type  1   force =     0.00000000    0.00000000    0.00000000
     atom   16 type  1   force =     0.00000000    0.00000000    0.00000000
     atom   17 type  1   force =     0.00000000    0.00000000    0.00000000
     atom   18 type  1   force =     0.00000000    0.00000000    0.00000000
     atom   19 type  1   force =     0.00000000    0.00000000    0.00000000
     atom   20 type  1   force =     0.00000000    0.00000000    0.00000000
     atom   21 type  1   force =     0.00000000    0.00000000    0.00000000
     atom   22 type  1   force =     0.00000000    0.00000000    0.00000000
     atom   23 type  1   force =     0.00000000    0.00000000    0.00000000
     atom   24 type  1   force =     0.00000000    0.00000000    0.00000000
     atom   25 type  1   force =     0.00000000    0.00000000    0.00000000
     atom   26 type  1   force =     0.00000000    0.00000000    0.00000000
     atom   27 type  1   force =     0.00000000    0.00000000    0.00000000
     atom   28 type  1   force =     0.00000000    0.00000000    0.00000000
     atom   29 type  1   force =     0.00000000    0.00000000    0.00000000
     atom   30 type  1   force =     0.00000000    0.00000000    0.00000000
     atom   31 type  1   force =     0.00000000    0.00000000    0.00000000
     atom   32 type  1   force =     0.00000000    0.00000000    0.00000000
     atom   33 type  1   force =     0.00000000    0.00000000    0.00000000
     atom   34 type  1   force =     0.00000000    0.00000000    0.00000000
     atom   35 type  1   force =     0.00000000    0.00000000    0.00000000
     atom   36 type  1   force =     0.00000000    0.00000000    0.00000000
     atom   37 type  1   force =     0.00000000    0.00000000    0.00000000
     atom   38 type  1   force =     0.00000000    0.00000000    0.00000000
     atom   39 type  1   force =     0.00000000    0.00000000    0.00000000
     atom   40 type  1   force =     0.00000000    0.00000000    0.00000000
     atom   41 type  1   force =     0.00000000    0.00000000    0.00000000
     atom   42 type  1   force =     0.00000000    0.00000000    0.00000000
     atom   43 type  1   force =     0.00000000    0.00000000    0.00000000
     atom   44 type  1   force =     0.00000000    0.00000000    0.00000000
     atom   45 type  1   force =     0.00000000    0.00000000    0.00000000
     atom   46 type  1   force =     0.00000000    0.00000000    0.00000000
     atom   47 type  1   force =     0.00000000    0.00000000    0.00000000
     atom   48 type  1   force =     0.00000000    0.00000000    0.00000000
     atom   49 type  1   force =     0.00000000    0.00000000    0.00000000
     atom   50 type  1   force =     0.00000000    0.00000000    0.00000000
     atom   51 type  1   force =     0.00000000    0.00000000    0.00000000
     atom   52 type  1   force =     0.00000000    0.00000000    0.00000000
     atom   53 type  1   force =     0.00000000    0.00000000    0.00000000
     atom   54 type  1   force =     0.00000000    0.00000000    0.00000000
     atom   55 type  1   force =     0.00000000    0.00000000    0.00000000
     atom   56 type  1   force =     0.00000000    0.00000000    0.00000000
     atom   57 type  1   force =     0.00000000    0.00000000    0.00000000
     atom   58 type  1   force =     0.00000000    0.00000000    0.00000000
     atom   59 type  1   force =     0.00000000    0.00000000    0.00000000
     atom   60 type  1   force =     0.00000000    0.00000000    0.00000000
     atom   61 type  1   force =     0.00000000    0.00000000    0.00000000
     atom   62 type  1   force =     0.00000000    0.00000000    0.00000000
     atom   63 type  1   force =     0.00000000    0.00000000    0.00000000
     atom   64 type  1   force =     0.00000000    0.00000000    0.00000000
     atom   65 type  2   force =     0.00000000    0.00000000    0.00000000
     atom   66 type  2   force =     0.00000000    0.00000000    0.00000000
     atom   67 type  2   force =     0.00000000    0.00000000    0.00000000
     atom   68 type  2   force =     0.00000000    0.00000000    0.00000000
     atom   69 type  2   force =     0.00000000    0.00000000    0.00000000
     atom   70 type  2   force =     0.00000000    0.00000000    0.00000000
     atom   71 type  2   force =     0.00000000    0.00000000    0.00000000
     atom   72 type  3   force =     0.00000000    0.00000000    0.00000000
     atom   73 type  3   force =     0.00000000    0.00000000    0.00000000
     atom   74 type  4   force =     0.00000000    0.00000000    0.00000000
     atom   75 type  4   force =     0.00000000    0.00000000    0.00000000
     atom   76 type  4   force =     0.00000000    0.00000000    0.00000000
     atom   77 type  4   force =     0.00000000    0.00000000    0.00000000
     atom   78 type  4   force =     0.00000000    0.00000000    0.00000000
     atom   79 type  4   force =     0.00000000    0.00000000    0.00000000
     The SCF correction term to forces
     atom    1 type  1   force =    -0.00023250   -0.00016216    0.00062790
     atom    2 type  1   force =     0.00023315   -0.00049507    0.00051062
     atom    3 type  1   force =    -0.00015585    0.00018680   -0.00053783
     atom    4 type  1   force =     0.00016826   -0.00063791   -0.00039790
     atom    5 type  1   force =    -0.00014391   -0.00008619    0.00062935
     atom    6 type  1   force =     0.00014841   -0.00030373    0.00009164
     atom    7 type  1   force =     0.00003449   -0.00012535   -0.00050188
     atom    8 type  1   force =    -0.00002445   -0.00064650   -0.00005674
     atom    9 type  1   force =     0.00028793    0.00017118    0.00060559
     atom   10 type  1   force =    -0.00027568    0.00045383    0.00017621
     atom   11 type  1   force =     0.00066823    0.00011640   -0.00063316
     atom   12 type  1   force =    -0.00065537    0.00030169   -0.00020390
     atom   13 type  1   force =     0.00018191    0.00013225    0.00059558
     atom   14 type  1   force =    -0.00019845    0.00028728    0.00058798
     atom   15 type  1   force =     0.00049113    0.00041938   -0.00065950
     atom   16 type  1   force =    -0.00049233    0.00039116   -0.00054865
     atom   17 type  1   force =    -0.00015052   -0.00059409    0.00045341
     atom   18 type  1   force =     0.00015424   -0.00004772    0.00068143
     atom   19 type  1   force =    -0.00008992   -0.00055068   -0.00033974
     atom   20 type  1   force =     0.00007786    0.00009546   -0.00059001
     atom   21 type  1   force =    -0.00057911   -0.00023158    0.00030509
     atom   22 type  1   force =     0.00057554   -0.00016104    0.00043437
     atom   23 type  1   force =    -0.00073887   -0.00033989   -0.00017107
     atom   24 type  1   force =     0.00073837   -0.00045491   -0.00039272
     atom   25 type  1   force =    -0.00047340    0.00022858    0.00053800
     atom   26 type  1   force =     0.00046304    0.00039550    0.00025130
     atom   27 type  1   force =    -0.00054006    0.00017016   -0.00047013
     atom   28 type  1   force =     0.00052286    0.00024626   -0.00036491
     atom   29 type  1   force =    -0.00004274   -0.00011937    0.00066279
     atom   30 type  1   force =     0.00006380    0.00053337    0.00050035
     atom   31 type  1   force =     0.00011311   -0.00000294   -0.00060957
     atom   32 type  1   force =    -0.00011244    0.00082525   -0.00057533
     atom   33 type  1   force =    -0.00009989   -0.00021925   -0.00022222
     atom   34 type  1   force =     0.00008391   -0.00010898   -0.00018121
     atom   35 type  1   force =     0.00012322    0.00024703   -0.00042606
     atom   36 type  1   force =    -0.00013666    0.00003783   -0.00045797
     atom   37 type  1   force =    -0.00054919   -0.00025008   -0.00015034
     atom   38 type  1   force =     0.00058922   -0.00071658   -0.00025270
     atom   39 type  1   force =    -0.00007531    0.00001786   -0.00047069
     atom   40 type  1   force =     0.00007220   -0.00036517   -0.00010996
     atom   41 type  1   force =    -0.00010741    0.00009983   -0.00016667
     atom   42 type  1   force =     0.00011510    0.00021191   -0.00041259
     atom   43 type  1   force =     0.00016300   -0.00010064   -0.00046233
     atom   44 type  1   force =    -0.00015053   -0.00019801    0.00023393
     atom   45 type  1   force =     0.00036069    0.00014093   -0.00023346
     atom   46 type  1   force =    -0.00040246    0.00083006   -0.00036854
     atom   47 type  1   force =     0.00033514    0.00015008   -0.00042678
     atom   48 type  1   force =    -0.00032806    0.00018722   -0.00010447
     atom   49 type  1   force =     0.00007200   -0.00064422   -0.00013982
     atom   50 type  1   force =    -0.00005908    0.00032741   -0.00025834
     atom   51 type  1   force =     0.00005772   -0.00007650   -0.00047731
     atom   52 type  1   force =    -0.00004306    0.00034935   -0.00040152
     atom   53 type  1   force =    -0.00041226   -0.00073900   -0.00018383
     atom   54 type  1   force =     0.00038386   -0.00021853   -0.00019936
     atom   55 type  1   force =    -0.00018234   -0.00025798   -0.00013707
     atom   56 type  1   force =     0.00018602   -0.00008937   -0.00044296
     atom   57 type  1   force =    -0.00092003    0.00020666   -0.00020214
     atom   58 type  1   force =     0.00089837    0.00011824   -0.00040798
     atom   59 type  1   force =    -0.00035918   -0.00010493   -0.00015070
     atom   60 type  1   force =     0.00031410   -0.00017616   -0.00007786
     atom   61 type  1   force =    -0.00038771    0.00024626   -0.00015184
     atom   62 type  1   force =     0.00042438    0.00072236   -0.00046669
     atom   63 type  1   force =    -0.00011880    0.00009784   -0.00048291
     atom   64 type  1   force =     0.00010731    0.00023633   -0.00004235
     atom   65 type  2   force =     0.00008884    0.00011115    0.00021017
     atom   66 type  2   force =    -0.00006275   -0.00008741   -0.00013712
     atom   67 type  2   force =     0.00001521   -0.00014760   -0.00015833
     atom   68 type  2   force =    -0.00015962   -0.00003745   -0.00013946
     atom   69 type  2   force =     0.00001965   -0.00005605   -0.00005297
     atom   70 type  2   force =    -0.00006458   -0.00000159   -0.00003931
     atom   71 type  2   force =     0.00003951    0.00004958    0.00006862
     atom   72 type  3   force =     0.00010289    0.00013067    0.00025194
     atom   73 type  3   force =     0.00005789    0.00007973    0.00010583
     atom   74 type  4   force =    -0.00001229    0.00001265    0.00000223
     atom   75 type  4   force =     0.00001616   -0.00000501    0.00000022
     atom   76 type  4   force =     0.00000661   -0.00001701   -0.00001282
     atom   77 type  4   force =    -0.00002121    0.00000107   -0.00000913
     atom   78 type  4   force =     0.00001794   -0.00000738    0.00000453
     atom   79 type  4   force =    -0.00001469    0.00001321    0.00000915

     Total force =     0.052102     Total SCF correction =     0.005281
     SCF correction compared to forces is large: reduce conv_thr to get better values


     Computing stress (Cartesian axis) and pressure


     negative rho (up, down):  4.098E-03 0.000E+00
          total   stress  (Ry/bohr**3)                   (kbar)     P=       -1.92
  -0.00001763   0.00000087  -0.00000152           -2.59        0.13       -0.22
   0.00000087  -0.00001597  -0.00000240            0.13       -2.35       -0.35
  -0.00000152  -0.00000240  -0.00000548           -0.22       -0.35       -0.81

     kinetic stress (kbar)  17124.18     15.12    -20.68
                               15.12  17147.24    -34.96
                              -20.68    -34.96  17215.12

     local   stress (kbar)**********    161.18   -830.98
                              161.18**********  -1300.32
                             -830.98  -1300.321460581.40

     nonloc. stress (kbar)  -1606.80     -0.48      2.37
                               -0.48  -1608.08      3.69
                                2.37      3.69  -1669.62

     hartree stress (kbar) 758765.21    -44.23    326.88
                              -44.23 758591.40    507.13
                              326.88    507.13-683211.08

     exc-cor stress (kbar)  -8421.00     -0.65      1.14
                               -0.65  -8422.07      1.90
                                1.14      1.90  -8432.12

     corecor stress (kbar)    -83.53      0.19     -0.35
                                0.19    -83.21     -0.59
                               -0.35     -0.59    -83.54

     ewald   stress (kbar) 678636.37   -131.00    521.39
                             -131.00 678304.14    822.80
                              521.39    822.80-784400.97

     hubbard stress (kbar)      0.00      0.00      0.00
                                0.00      0.00      0.00
                                0.00      0.00      0.00

     DFT-D   stress (kbar)      0.00      0.00      0.00
                                0.00      0.00      0.00
                                0.00      0.00      0.00

     XDM     stress (kbar)      0.00      0.00      0.00
                                0.00      0.00      0.00
                                0.00      0.00      0.00

     dft-nl  stress (kbar)      0.00      0.00      0.00
                                0.00      0.00      0.00
                                0.00      0.00      0.00

     TS-vdW  stress (kbar)      0.00      0.00      0.00
                                0.00      0.00      0.00
                                0.00      0.00      0.00

     MDB     stress (kbar)      0.00      0.00      0.00
                                0.00      0.00      0.00
                                0.00      0.00      0.00

     3D-RISM stress (kbar)      0.00      0.00      0.00
                                0.00      0.00      0.00
                                0.00      0.00      0.00


     Writing all to output data dir ./tmp/Zn002_4x4x2_primitive_14Avacumn_bridgesite_tilted_cross_ABN.save/ :
     XML data file, charge density, pseudopotentials, collected wavefunctions

     init_run     :    155.33s CPU    157.20s WALL (       1 calls)
     electrons    :  27231.59s CPU  27692.97s WALL (       1 calls)
     forces       :    349.24s CPU    350.84s WALL (       1 calls)
     stress       :    473.47s CPU    476.41s WALL (       1 calls)

     Called by init_run:
     wfcinit      :    154.30s CPU    156.11s WALL (       1 calls)
     wfcinit:atom :      0.07s CPU      0.12s WALL (       5 calls)
     wfcinit:wfcr :    153.22s CPU    154.92s WALL (       5 calls)
     potinit      :      0.11s CPU      0.12s WALL (       1 calls)
     hinit0       :      0.06s CPU      0.07s WALL (       1 calls)

     Called by electrons:
     c_bands      :  26367.48s CPU  26813.56s WALL (      22 calls)
     sum_band     :    820.31s CPU    834.04s WALL (      22 calls)
     v_of_rho     :      0.91s CPU      0.96s WALL (      22 calls)
     v_h          :      0.06s CPU      0.06s WALL (      22 calls)
     v_xc         :      0.92s CPU      0.97s WALL (      24 calls)
     newd         :     41.84s CPU     43.34s WALL (      22 calls)
     PAW_pot      :      1.48s CPU      1.49s WALL (      22 calls)
     mix_rho      :      0.27s CPU      0.28s WALL (      22 calls)

     Called by c_bands:
     init_us_2    :      7.83s CPU      7.94s WALL (     235 calls)
     cegterg      :  26350.83s CPU  26795.83s WALL (     110 calls)

     Called by sum_band:
     sum_band:wei :      0.09s CPU      0.09s WALL (      22 calls)
     sum_band:loo :    789.63s CPU    801.42s WALL (      22 calls)
     sum_band:buf :      1.51s CPU      2.02s WALL (     110 calls)
     sum_band:ini :      3.49s CPU      3.53s WALL (     110 calls)
     sum_band:cal :    710.77s CPU    713.81s WALL (     110 calls)
     sum_band:bec :      4.44s CPU      4.46s WALL (     110 calls)
     addusdens    :     30.04s CPU     31.94s WALL (      22 calls)
                                        0.00s GPU  (      22 calls)
     addusd:skk   :      0.21s CPU      0.26s WALL (      88 calls)
                                        0.00s GPU  (      88 calls)

     Called by *egterg:
     cdiaghg      :    927.76s CPU    966.94s WALL (     915 calls)
     cegterg:over :   5597.16s CPU   5670.47s WALL (     810 calls)
     cegterg:upda :   3121.12s CPU   3180.76s WALL (     810 calls)
     cegterg:last :  10289.36s CPU  10457.26s WALL (     237 calls)
     cdiaghg:chol :     58.93s CPU     59.16s WALL (     915 calls)
     cdiaghg:inve :      9.94s CPU      9.98s WALL (     915 calls)
     cdiaghg:para :    286.99s CPU    292.46s WALL (    1830 calls)
     h_psi        :   3590.15s CPU   3657.86s WALL (     925 calls)
     s_psi        :   1557.31s CPU   1563.97s WALL (     925 calls)
     g_psi        :      1.68s CPU      2.26s WALL (     810 calls)

     Called by h_psi:
     h_psi:calbec :   1691.56s CPU   1701.67s WALL (     925 calls)
     vloc_psi     :    324.00s CPU    365.88s WALL (     925 calls)
     add_vuspsi   :   1571.31s CPU   1579.62s WALL (     925 calls)

     General routines
     calbec       :   2776.92s CPU   2791.35s WALL (    1060 calls)
     fft          :      0.75s CPU      0.82s WALL (     268 calls)
     ffts         :      0.04s CPU      0.05s WALL (      22 calls)
     fftw         :    362.93s CPU    409.42s WALL (  506692 calls)

     Parallel routines

     PAW routines
     PAW_pot      :      1.48s CPU      1.49s WALL (      22 calls)

     PWSCF        :      7h50m CPU      7h58m WALL


   This run was terminated on:  18:32:19  30Jan1998            

=------------------------------------------------------------------------------=
   JOB DONE.
=------------------------------------------------------------------------------=
Note: The following floating-point exceptions are signalling: IEEE_DENORMAL
Note: The following floating-point exceptions are signalling: IEEE_DENORMAL
Note: The following floating-point exceptions are signalling: IEEE_DENORMAL
Note: The following floating-point exceptions are signalling: IEEE_DENORMAL
Note: The following floating-point exceptions are signalling: IEEE_DENORMAL
Note: The following floating-point exceptions are signalling: IEEE_DENORMAL
Note: The following floating-point exceptions are signalling: IEEE_DENORMAL
Note: The following floating-point exceptions are signalling: IEEE_DENORMAL
Note: The following floating-point exceptions are signalling: IEEE_DENORMAL
Note: The following floating-point exceptions are signalling: IEEE_DENORMAL
