--------------------------------------------------------------------------
By default, for Open MPI 4.0 and later, infiniband ports on a device
are not used by default.  The intent is to use UCX for these devices.
You can override this policy by setting the btl_openib_allow_ib MCA parameter
to true.

  Local host:              psid04
  Local adapter:           mlx5_0
  Local port:              1

--------------------------------------------------------------------------
--------------------------------------------------------------------------
WARNING: There was an error initializing an OpenFabrics device.

  Local host:   psid04
  Local device: mlx5_0
--------------------------------------------------------------------------

     Program PWSCF v.7.3.1 starts on 16Mar2025 at 17: 4:40 

     This program is part of the open-source Quantum ESPRESSO suite
     for quantum simulation of materials; please cite
         "P. Giannozzi et al., J. Phys.:Condens. Matter 21 395502 (2009);
         "P. Giannozzi et al., J. Phys.:Condens. Matter 29 465901 (2017);
         "P. Giannozzi et al., J. Chem. Phys. 152 154105 (2020);
          URL http://www.quantum-espresso.org", 
     in publications or presentations arising from this work. More details at
     http://www.quantum-espresso.org/quote

     Parallel version (MPI), running on    30 processors

     MPI processes distributed on     1 nodes
     114165 MiB available memory on the printing compute node when the environment starts

     Waiting for input...
     Reading input from standard input

     Current dimensions of program PWSCF are:
     Max number of different atomic species (ntypx) = 10
     Max number of k-points (npk) =  40000
     Max angular momentum in pseudopotentials (lmaxx) =  4
     Found identity + ( -0.5000  0.0000  0.0000) symmetry
     This is a supercell, fractional translations are disabled

     R & G space division:  proc/nbgrp/npool/nimage =      30
     Subspace diagonalization in iterative solution of the eigenvalue problem:
     one sub-group per band group will be used
     custom distributed-memory algorithm (size of sub-group:  4*  4 procs)


     Parallelization info
     --------------------
     sticks:   dense  smooth     PW     G-vecs:    dense   smooth      PW
     Min          89      89     24                12069    12069    1722
     Max          90      90     25                12086    12086    1735
     Sum        2693    2693    739               362371   362371   51847

     Using Slab Decomposition



     bravais-lattice index     =            0
     lattice parameter (alat)  =       9.8808  a.u.
     unit-cell volume          =    7588.2966 (a.u.)^3
     number of atoms/cell      =           32
     number of atomic types    =            1
     number of electrons       =       640.00
     number of Kohn-Sham states=          384
     kinetic-energy cutoff     =      50.0000  Ry
     charge density cutoff     =     200.0000  Ry
     scf convergence threshold =      7.3E-07
     mixing beta               =       0.7000
     number of iterations used =            8  plain     mixing
     Exchange-correlation= SLA  PW   PBE  PBE
                           (   1   4   3   4   0   0   0)

     celldm(1)=   9.880848  celldm(2)=   0.000000  celldm(3)=   0.000000
     celldm(4)=   0.000000  celldm(5)=   0.000000  celldm(6)=   0.000000

     crystal axes: (cart. coord. in units of alat)
               a(1) = (   1.000000   0.000000   0.000000 )  
               a(2) = (  -1.000000   1.732051   0.000000 )  
               a(3) = (   0.000000   0.000000   4.541517 )  

     reciprocal axes: (cart. coord. in units 2 pi/alat)
               b(1) = (  1.000000  0.577350 -0.000000 )  
               b(2) = (  0.000000  0.577350  0.000000 )  
               b(3) = (  0.000000 -0.000000  0.220191 )  


     PseudoPot. # 1 for Zn read from file:
     /home/ys/qepseudo/SSSP_1.3.0_PBE_efficiency/Zn_pbe_v1.uspp.F.UPF
     MD5 check sum: df62231357ef9e81f77b2b3087fa5675
     Pseudo is Ultrasoft, Zval = 20.0
     Generated by new atomic code, or converted to UPF format
     Using radial grid of  943 points,  6 beta functions with: 
                l(1) =   0
                l(2) =   0
                l(3) =   1
                l(4) =   1
                l(5) =   2
                l(6) =   2
     Q(r) pseudized with  8 coefficients,  rinner =    1.100   1.100   1.100
                                                       1.100   1.100

     atomic species   valence    mass     pseudopotential
     Zn               20.00    65.38000     Zn( 1.00)

     No symmetry found


                                    s                        frac. trans.

      isym =  1     identity                                     

 cryst.   s( 1) = (     1          0          0      )
                  (     0          1          0      )
                  (     0          0          1      )

 cart.    s( 1) = (  1.0000000  0.0000000  0.0000000 )
                  (  0.0000000  1.0000000  0.0000000 )
                  (  0.0000000  0.0000000  1.0000000 )


   Cartesian axes

     site n.     atom                  positions (alat units)
         1        Zn     tau(   1) = (  -0.0000000   0.2886751   0.2329997  )
         2        Zn     tau(   2) = (  -0.0000003   0.2895988   1.1937565  )
         3        Zn     tau(   3) = (  -0.2500000   0.7216878   0.2329997  )
         4        Zn     tau(   4) = (  -0.2500003   0.7227332   1.1938346  )
         5        Zn     tau(   5) = (  -0.5000000   1.1547005   0.2329997  )
         6        Zn     tau(   6) = (  -0.5000000   1.1556774   1.1939143  )
         7        Zn     tau(   7) = (  -0.7500000   1.5877132   0.2329997  )
         8        Zn     tau(   8) = (  -0.7499998   1.5885793   1.1938690  )
         9        Zn     tau(   9) = (   0.5000000   0.2886751   0.2329997  )
        10        Zn     tau(  10) = (   0.5000005   0.2895989   1.1937570  )
        11        Zn     tau(  11) = (   0.2500000   0.7216878   0.2329997  )
        12        Zn     tau(  12) = (   0.2500004   0.7227335   1.1938342  )
        13        Zn     tau(  13) = (  -0.0000000   1.1547005   0.2329997  )
        14        Zn     tau(  14) = (   0.0000002   1.1556777   1.1939137  )
        15        Zn     tau(  15) = (  -0.2500000   1.5877132   0.2329997  )
        16        Zn     tau(  16) = (  -0.2500001   1.5885796   1.1938689  )
        17        Zn     tau(  17) = (   0.2500000   0.1443376   0.6989991  )
        18        Zn     tau(  18) = (   0.2499999   0.1423330   1.6884941  )
        19        Zn     tau(  19) = (   0.0000000   0.5773503   0.6989991  )
        20        Zn     tau(  20) = (   0.0000001   0.5754608   1.6885358  )
        21        Zn     tau(  21) = (  -0.2500000   1.0103630   0.6989991  )
        22        Zn     tau(  22) = (  -0.2499997   1.0084758   1.6879868  )
        23        Zn     tau(  23) = (  -0.5000000   1.4433757   0.6989991  )
        24        Zn     tau(  24) = (  -0.4999999   1.4413741   1.6879473  )
        25        Zn     tau(  25) = (   0.7500000   0.1443376   0.6989991  )
        26        Zn     tau(  26) = (   0.7500002   0.1423329   1.6884940  )
        27        Zn     tau(  27) = (   0.5000000   0.5773503   0.6989991  )
        28        Zn     tau(  28) = (   0.5000001   0.5754607   1.6885366  )
        29        Zn     tau(  29) = (   0.2500000   1.0103630   0.6989991  )
        30        Zn     tau(  30) = (   0.2499999   1.0084757   1.6879867  )
        31        Zn     tau(  31) = (   0.0000000   1.4433757   0.6989991  )
        32        Zn     tau(  32) = (   0.0000001   1.4413739   1.6879472  )

   Crystallographic axes

     site n.     atom                  positions (cryst. coord.)
         1        Zn     tau(   1) = (  0.1666667  0.1666667  0.0513044  )
         2        Zn     tau(   2) = (  0.1671996  0.1671999  0.2628541  )
         3        Zn     tau(   3) = (  0.1666667  0.4166667  0.0513044  )
         4        Zn     tau(   4) = (  0.1672699  0.4172702  0.2628713  )
         5        Zn     tau(   5) = (  0.1666667  0.6666667  0.0513044  )
         6        Zn     tau(   6) = (  0.1672307  0.6672307  0.2628888  )
         7        Zn     tau(   7) = (  0.1666667  0.9166667  0.0513044  )
         8        Zn     tau(   8) = (  0.1671669  0.9171667  0.2628789  )
         9        Zn     tau(   9) = (  0.6666667  0.1666667  0.0513044  )
        10        Zn     tau(  10) = (  0.6672006  0.1672000  0.2628542  )
        11        Zn     tau(  11) = (  0.6666667  0.4166667  0.0513044  )
        12        Zn     tau(  12) = (  0.6672708  0.4172704  0.2628712  )
        13        Zn     tau(  13) = (  0.6666667  0.6666667  0.0513044  )
        14        Zn     tau(  14) = (  0.6672310  0.6672308  0.2628887  )
        15        Zn     tau(  15) = (  0.6666667  0.9166667  0.0513044  )
        16        Zn     tau(  16) = (  0.6671667  0.9171668  0.2628789  )
        17        Zn     tau(  17) = (  0.3333333  0.0833333  0.1539131  )
        18        Zn     tau(  18) = (  0.3321759  0.0821760  0.3717907  )
        19        Zn     tau(  19) = (  0.3333333  0.3333333  0.1539131  )
        20        Zn     tau(  20) = (  0.3322426  0.3322425  0.3717999  )
        21        Zn     tau(  21) = (  0.3333333  0.5833333  0.1539131  )
        22        Zn     tau(  22) = (  0.3322440  0.5822437  0.3716790  )
        23        Zn     tau(  23) = (  0.3333333  0.8333333  0.1539131  )
        24        Zn     tau(  24) = (  0.3321778  0.8321777  0.3716703  )
        25        Zn     tau(  25) = (  0.8333333  0.0833333  0.1539131  )
        26        Zn     tau(  26) = (  0.8321762  0.0821759  0.3717907  )
        27        Zn     tau(  27) = (  0.8333333  0.3333333  0.1539131  )
        28        Zn     tau(  28) = (  0.8322425  0.3322424  0.3718001  )
        29        Zn     tau(  29) = (  0.8333333  0.5833333  0.1539131  )
        30        Zn     tau(  30) = (  0.8322436  0.5822437  0.3716790  )
        31        Zn     tau(  31) = (  0.8333333  0.8333333  0.1539131  )
        32        Zn     tau(  32) = (  0.8321777  0.8321776  0.3716703  )

     number of k points=     5  Marzari-Vanderbilt smearing, width (Ry)=  0.0200
                       cart. coord. in units 2pi/alat
        k(    1) = (   0.0000000   0.0000000   0.0000000), wk =   0.2222222
        k(    2) = (   0.0000000   0.1924501   0.0000000), wk =   0.4444444
        k(    3) = (   0.3333333   0.1924501   0.0000000), wk =   0.4444444
        k(    4) = (   0.3333333   0.3849002   0.0000000), wk =   0.4444444
        k(    5) = (   0.3333333  -0.0000000   0.0000000), wk =   0.4444444

                       cryst. coord.
        k(    1) = (   0.0000000   0.0000000   0.0000000), wk =   0.2222222
        k(    2) = (   0.0000000   0.3333333   0.0000000), wk =   0.4444444
        k(    3) = (   0.3333333   0.0000000   0.0000000), wk =   0.4444444
        k(    4) = (   0.3333333   0.3333333   0.0000000), wk =   0.4444444
        k(    5) = (   0.3333333  -0.3333333   0.0000000), wk =   0.4444444

     Dense  grid:   362371 G-vectors     FFT dimensions: (  45,  90, 216)

     Dynamical RAM for                 wfc:       8.85 MB

     Dynamical RAM for     wfc (w. buffer):      53.09 MB

     Dynamical RAM for           str. fact:       0.18 MB

     Dynamical RAM for           local pot:       0.00 MB

     Dynamical RAM for          nlocal pot:      13.27 MB

     Dynamical RAM for                qrad:       1.14 MB

     Dynamical RAM for          rho,v,vnew:       1.29 MB

     Dynamical RAM for               rhoin:       0.43 MB

     Dynamical RAM for            rho*nmix:       2.95 MB

     Dynamical RAM for           G-vectors:       0.78 MB

     Dynamical RAM for          h,s,v(r/c):       1.69 MB

     Dynamical RAM for          <psi|beta>:       3.38 MB

     Dynamical RAM for                 psi:      17.70 MB

     Dynamical RAM for                hpsi:      17.70 MB

     Dynamical RAM for                spsi:      17.70 MB

     Dynamical RAM for      wfcinit/wfcrot:      23.13 MB

     Dynamical RAM for           addusdens:      40.20 MB

     Dynamical RAM for          addusforce:      51.85 MB

     Dynamical RAM for         addusstress:      37.07 MB

     Estimated static dynamical RAM per process >      71.79 MB

     Estimated max dynamical RAM per process >     132.89 MB

     Estimated total dynamical RAM >       3.89 GB

     Initial potential from superposition of free atoms

     starting charge     639.9955, renormalised to     640.0000

     negative rho (up, down):  4.604E-03 0.000E+00
     Starting wfcs are  416 randomized atomic wfcs
[psid04:66586] 29 more processes have sent help message help-mpi-btl-openib.txt / ib port not selected
[psid04:66586] Set MCA parameter "orte_base_help_aggregate" to 0 to see all help / error messages
[psid04:66586] 29 more processes have sent help message help-mpi-btl-openib.txt / error in device init

     total cpu time spent up to now is       18.1 secs

     Self-consistent Calculation

     iteration #  1     ecut=    50.00 Ry     beta= 0.70
     Davidson diagonalization with overlap

---- Real-time Memory Report at c_bands before calling an iterative solver
           119 MiB given to the printing process from OS
             0 MiB allocation reported by mallinfo(arena+hblkhd)
        111192 MiB available memory on the node where the printing process lives
------------------
     ethr =  1.00E-02,  avg # of iterations =  8.6

     Threshold (ethr) on eigenvalues was too large:
     Diagonalizing with lowered threshold

     Davidson diagonalization with overlap

---- Real-time Memory Report at c_bands before calling an iterative solver
           163 MiB given to the printing process from OS
             0 MiB allocation reported by mallinfo(arena+hblkhd)
        109971 MiB available memory on the node where the printing process lives
------------------
     ethr =  1.62E-04,  avg # of iterations =  4.0

     negative rho (up, down):  4.062E-03 0.000E+00

     total cpu time spent up to now is      157.7 secs

     total energy              =  -14769.10477571 Ry
     estimated scf accuracy    <       1.04999330 Ry

     iteration #  2     ecut=    50.00 Ry     beta= 0.70
     Davidson diagonalization with overlap

---- Real-time Memory Report at c_bands before calling an iterative solver
           164 MiB given to the printing process from OS
             0 MiB allocation reported by mallinfo(arena+hblkhd)
        109968 MiB available memory on the node where the printing process lives
------------------
     ethr =  1.64E-04,  avg # of iterations =  3.0

     negative rho (up, down):  4.048E-03 0.000E+00

     total cpu time spent up to now is      243.6 secs

     total energy              =  -14769.26243960 Ry
     estimated scf accuracy    <       1.68901475 Ry

     iteration #  3     ecut=    50.00 Ry     beta= 0.70
     Davidson diagonalization with overlap

---- Real-time Memory Report at c_bands before calling an iterative solver
           165 MiB given to the printing process from OS
             0 MiB allocation reported by mallinfo(arena+hblkhd)
        109661 MiB available memory on the node where the printing process lives
------------------
     ethr =  1.64E-04,  avg # of iterations =  8.0

     negative rho (up, down):  3.954E-03 0.000E+00

     total cpu time spent up to now is      329.2 secs

     total energy              =  -14769.45319323 Ry
     estimated scf accuracy    <       0.99075856 Ry

     iteration #  4     ecut=    50.00 Ry     beta= 0.70
     Davidson diagonalization with overlap

---- Real-time Memory Report at c_bands before calling an iterative solver
           167 MiB given to the printing process from OS
             0 MiB allocation reported by mallinfo(arena+hblkhd)
        109651 MiB available memory on the node where the printing process lives
------------------
     ethr =  1.55E-04,  avg # of iterations =  5.4

     negative rho (up, down):  3.776E-03 0.000E+00

     total cpu time spent up to now is      393.5 secs

     total energy              =  -14769.53045080 Ry
     estimated scf accuracy    <       0.68331775 Ry

     iteration #  5     ecut=    50.00 Ry     beta= 0.70
     Davidson diagonalization with overlap

---- Real-time Memory Report at c_bands before calling an iterative solver
           167 MiB given to the printing process from OS
             0 MiB allocation reported by mallinfo(arena+hblkhd)
        109645 MiB available memory on the node where the printing process lives
------------------
     ethr =  1.07E-04,  avg # of iterations =  9.6

     negative rho (up, down):  3.703E-03 0.000E+00

     total cpu time spent up to now is      462.0 secs

     total energy              =  -14769.53741363 Ry
     estimated scf accuracy    <       0.67396642 Ry

     iteration #  6     ecut=    50.00 Ry     beta= 0.70
     Davidson diagonalization with overlap

---- Real-time Memory Report at c_bands before calling an iterative solver
           167 MiB given to the printing process from OS
             0 MiB allocation reported by mallinfo(arena+hblkhd)
        109638 MiB available memory on the node where the printing process lives
------------------
     ethr =  1.05E-04,  avg # of iterations =  6.2

     negative rho (up, down):  3.726E-03 0.000E+00

     total cpu time spent up to now is      526.2 secs

     total energy              =  -14769.59476449 Ry
     estimated scf accuracy    <       0.00280968 Ry

     iteration #  7     ecut=    50.00 Ry     beta= 0.70
     Davidson diagonalization with overlap

---- Real-time Memory Report at c_bands before calling an iterative solver
           168 MiB given to the printing process from OS
             0 MiB allocation reported by mallinfo(arena+hblkhd)
        109631 MiB available memory on the node where the printing process lives
------------------
     c_bands:  1 eigenvalues not converged
     ethr =  4.39E-07,  avg # of iterations = 10.6

     negative rho (up, down):  3.745E-03 0.000E+00

     total cpu time spent up to now is      607.6 secs

     total energy              =  -14769.59527154 Ry
     estimated scf accuracy    <       0.00031134 Ry

     iteration #  8     ecut=    50.00 Ry     beta= 0.70
     Davidson diagonalization with overlap

---- Real-time Memory Report at c_bands before calling an iterative solver
           168 MiB given to the printing process from OS
             0 MiB allocation reported by mallinfo(arena+hblkhd)
        109625 MiB available memory on the node where the printing process lives
------------------
     ethr =  4.86E-08,  avg # of iterations =  2.0

     negative rho (up, down):  3.759E-03 0.000E+00

     total cpu time spent up to now is      667.2 secs

     total energy              =  -14769.59529110 Ry
     estimated scf accuracy    <       0.00008465 Ry

     iteration #  9     ecut=    50.00 Ry     beta= 0.70
     Davidson diagonalization with overlap

---- Real-time Memory Report at c_bands before calling an iterative solver
           168 MiB given to the printing process from OS
             0 MiB allocation reported by mallinfo(arena+hblkhd)
        109619 MiB available memory on the node where the printing process lives
------------------
     ethr =  1.32E-08,  avg # of iterations =  2.0

     negative rho (up, down):  3.772E-03 0.000E+00

     total cpu time spent up to now is      731.1 secs

     total energy              =  -14769.59530047 Ry
     estimated scf accuracy    <       0.00002333 Ry

     iteration # 10     ecut=    50.00 Ry     beta= 0.70
     Davidson diagonalization with overlap

---- Real-time Memory Report at c_bands before calling an iterative solver
           169 MiB given to the printing process from OS
             0 MiB allocation reported by mallinfo(arena+hblkhd)
        109611 MiB available memory on the node where the printing process lives
------------------
     ethr =  3.65E-09,  avg # of iterations =  2.0

     negative rho (up, down):  3.772E-03 0.000E+00

     total cpu time spent up to now is      798.1 secs

     total energy              =  -14769.59530406 Ry
     estimated scf accuracy    <       0.00000784 Ry

     iteration # 11     ecut=    50.00 Ry     beta= 0.70
     Davidson diagonalization with overlap

---- Real-time Memory Report at c_bands before calling an iterative solver
           169 MiB given to the printing process from OS
             0 MiB allocation reported by mallinfo(arena+hblkhd)
        109605 MiB available memory on the node where the printing process lives
------------------
     ethr =  1.22E-09,  avg # of iterations =  2.0

     negative rho (up, down):  3.773E-03 0.000E+00

     total cpu time spent up to now is      860.2 secs

     total energy              =  -14769.59530524 Ry
     estimated scf accuracy    <       0.00000318 Ry

     iteration # 12     ecut=    50.00 Ry     beta= 0.70
     Davidson diagonalization with overlap

---- Real-time Memory Report at c_bands before calling an iterative solver
           169 MiB given to the printing process from OS
             0 MiB allocation reported by mallinfo(arena+hblkhd)
        109604 MiB available memory on the node where the printing process lives
------------------
     ethr =  4.97E-10,  avg # of iterations =  2.0

     negative rho (up, down):  3.774E-03 0.000E+00

     total cpu time spent up to now is      919.8 secs

     End of self-consistent calculation

          k = 0.0000 0.0000 0.0000 ( 45257 PWs)   bands (ev):

  -123.1180-123.1162-123.1162-123.1146-123.1146-123.1144-123.1143-123.1142
  -123.0233-123.0213-123.0207-123.0206-123.0197-123.0187-123.0187-123.0178
  -122.9129-122.9111-122.9111-122.9095-122.9094-122.9093-122.9093-122.9091
  -122.8313-122.8296-122.8287-122.8283-122.8283-122.8270-122.8264-122.8264
   -77.2825 -77.2825 -77.2782 -77.2771 -77.2771 -77.2719 -77.2699 -77.2698
   -77.2681 -77.2680 -77.2678 -77.2677 -77.2677 -77.2605 -77.2605 -77.2586
   -77.2586 -77.2573 -77.2530 -77.2530 -77.2527 -77.2527 -77.2482 -77.2427
   -77.1871 -77.1869 -77.1826 -77.1815 -77.1812 -77.1780 -77.1758 -77.1753
   -77.1750 -77.1741 -77.1731 -77.1731 -77.1722 -77.1649 -77.1648 -77.1632
   -77.1630 -77.1620 -77.1574 -77.1573 -77.1571 -77.1570 -77.1524 -77.1471
   -77.0749 -77.0741 -77.0741 -77.0730 -77.0730 -77.0713 -77.0711 -77.0711
   -77.0710 -77.0709 -77.0695 -77.0688 -77.0688 -77.0519 -77.0519 -77.0500
   -77.0500 -77.0491 -77.0445 -77.0445 -77.0445 -77.0445 -77.0399 -77.0342
   -76.9964 -76.9945 -76.9938 -76.9931 -76.9931 -76.9919 -76.9914 -76.9913
   -76.9911 -76.9911 -76.9867 -76.9855 -76.9855 -76.9690 -76.9689 -76.9672
   -76.9671 -76.9661 -76.9615 -76.9614 -76.9614 -76.9611 -76.9566 -76.9512
    -6.6481  -5.8834  -5.2075  -5.0923  -5.0722  -5.0722  -4.9420  -4.9404
    -4.9404  -4.8348  -4.8339  -4.8339  -4.7417  -4.7411  -4.7411  -4.7312
    -4.7311  -4.6290  -4.6282  -4.6282  -4.6164  -4.6164  -4.5669  -4.5668
    -4.5668  -4.5033  -4.5033  -4.4780  -4.4780  -4.4657  -4.4657  -4.4601
    -4.4601  -4.4587  -4.3912  -4.3912  -4.3525  -4.3196  -4.3196  -4.3063
    -4.3063  -4.2709  -4.2709  -4.2602  -4.2600  -4.2584  -4.2583  -4.2582
    -4.2079  -4.2079  -4.1624  -4.1624  -4.1606  -4.1604  -4.1215  -4.1191
    -4.1191  -4.1170  -4.1170  -4.1134  -4.1134  -4.1019  -4.0598  -4.0598
    -4.0582  -4.0582  -4.0447  -4.0446  -3.9957  -3.9957  -3.9669  -3.9669
    -3.9493  -3.9491  -3.9071  -3.9071  -3.8727  -3.8704  -3.8704  -3.8658
    -3.8658  -3.8597  -3.8596  -3.8292  -3.8292  -3.8206  -3.8206  -3.8047
    -3.8047  -3.7869  -3.7869  -3.7864  -3.7863  -3.7821  -3.7675  -3.7675
    -3.7647  -3.7647  -3.7425  -3.7425  -3.7048  -3.7048  -3.6916  -3.6893
    -3.6893  -3.6623  -3.6622  -3.6618  -3.6593  -3.6451  -3.6451  -3.6312
    -3.6312  -3.6118  -3.6118  -3.6039  -3.6038  -3.5529  -3.5529  -3.5480
    -3.5389  -3.5364  -3.5359  -3.5359  -3.5219  -3.5191  -3.5191  -3.4964
    -3.4964  -3.4958  -3.4673  -3.4673  -3.4668  -3.4668  -3.4583  -3.4553
    -3.4553  -3.4549  -3.4549  -3.4234  -3.4196  -3.4045  -3.4045  -3.4041
    -3.4024  -3.4023  -3.3559  -3.3559  -3.3497  -3.3452  -3.3233  -3.3233
    -3.3233  -3.2982  -3.2982  -3.2275  -3.2275  -3.2274  -3.1997  -3.1134
    -3.1134  -3.1133  -3.0817  -3.0817  -3.0302  -3.0302  -3.0301  -1.6973
    -1.6973  -1.3232  -0.1726  -0.1726   0.0821   0.0821   0.6415   0.6415
     0.8962   1.1173   1.1173   1.1214   1.6863   1.6879   1.6879   1.9754
     1.9754   1.9776   2.0332   2.0332   2.2678   2.2806   2.2807   3.1935
     3.1935   3.6217   3.6217   3.7262   4.2960   4.2961   4.3107   4.6002
     4.6003   4.6005   5.3162   5.3163   5.3303   5.6302   5.6303   6.2440
     6.2507   6.2507   6.2969   7.0523   7.0523   7.2612   7.2706   7.3718
     7.3718   7.5491   7.5492   8.0531   8.0533   8.2205   8.2206   8.2373
     8.2377   8.2379   8.3108   8.3108   8.8337   9.0838   9.0848   9.0912
     9.0940   9.0949   9.2494   9.2494   9.7437   9.7437   9.7753   9.7753
     9.8194   9.8486   9.8486  10.6452  10.6460  10.8456  10.8457  10.8501
    10.8555  10.8557  11.2441  11.2442  11.3251  11.3251  11.4687  11.4847

     occupation numbers 
     1.0000   1.0000   1.0000   1.0000   1.0000   1.0000   1.0000   1.0000
     1.0000   1.0000   1.0000   1.0000   1.0000   1.0000   1.0000   1.0000
     1.0000   1.0000   1.0000   1.0000   1.0000   1.0000   1.0000   1.0000
     1.0000   1.0000   1.0000   1.0000   1.0000   1.0000   1.0000   1.0000
     1.0000   1.0000   1.0000   1.0000   1.0000   1.0000   1.0000   1.0000
     1.0000   1.0000   1.0000   1.0000   1.0000   1.0000   1.0000   1.0000
     1.0000   1.0000   1.0000   1.0000   1.0000   1.0000   1.0000   1.0000
     1.0000   1.0000   1.0000   1.0000   1.0000   1.0000   1.0000   1.0000
     1.0000   1.0000   1.0000   1.0000   1.0000   1.0000   1.0000   1.0000
     1.0000   1.0000   1.0000   1.0000   1.0000   1.0000   1.0000   1.0000
     1.0000   1.0000   1.0000   1.0000   1.0000   1.0000   1.0000   1.0000
     1.0000   1.0000   1.0000   1.0000   1.0000   1.0000   1.0000   1.0000
     1.0000   1.0000   1.0000   1.0000   1.0000   1.0000   1.0000   1.0000
     1.0000   1.0000   1.0000   1.0000   1.0000   1.0000   1.0000   1.0000
     1.0000   1.0000   1.0000   1.0000   1.0000   1.0000   1.0000   1.0000
     1.0000   1.0000   1.0000   1.0000   1.0000   1.0000   1.0000   1.0000
     1.0000   1.0000   1.0000   1.0000   1.0000   1.0000   1.0000   1.0000
     1.0000   1.0000   1.0000   1.0000   1.0000   1.0000   1.0000   1.0000
     1.0000   1.0000   1.0000   1.0000   1.0000   1.0000   1.0000   1.0000
     1.0000   1.0000   1.0000   1.0000   1.0000   1.0000   1.0000   1.0000
     1.0000   1.0000   1.0000   1.0000   1.0000   1.0000   1.0000   1.0000
     1.0000   1.0000   1.0000   1.0000   1.0000   1.0000   1.0000   1.0000
     1.0000   1.0000   1.0000   1.0000   1.0000   1.0000   1.0000   1.0000
     1.0000   1.0000   1.0000   1.0000   1.0000   1.0000   1.0000   1.0000
     1.0000   1.0000   1.0000   1.0000   1.0000   1.0000   1.0000   1.0000
     1.0000   1.0000   1.0000   1.0000   1.0000   1.0000   1.0000   1.0000
     1.0000   1.0000   1.0000   1.0000   1.0000   1.0000   1.0000   1.0000
     1.0000   1.0000   1.0000   1.0000   1.0000   1.0000   1.0000   1.0000
     1.0000   1.0000   1.0000   1.0000   1.0000   1.0000   1.0000   1.0000
     1.0000   1.0000   1.0000   1.0000   1.0000   1.0000   1.0000   1.0000
     1.0000   1.0000   1.0000   1.0000   1.0000   1.0000   1.0000   1.0000
     1.0000   1.0000   1.0000   1.0000   1.0000   1.0000   1.0000   1.0000
     1.0000   1.0000   1.0000   1.0000   1.0000   1.0000   1.0000   1.0000
     1.0000   1.0000   1.0000   1.0000   1.0000   1.0000   1.0000   1.0000
     1.0000   1.0000   1.0000   1.0000   1.0000   1.0000   1.0000   1.0000
     1.0000   1.0000   1.0000   1.0000   1.0000   1.0000   1.0000   1.0000
     1.0000   1.0000   1.0000   1.0000   1.0000   1.0000   1.0000   1.0000
     1.0000   1.0000   1.0000   1.0000   1.0000   1.0000   1.0000   1.0000
     1.0000   1.0000   1.0000   1.0000   1.0000   1.0000   1.0000   1.0000
     1.0000   1.0000   1.0000   1.0000   1.0000   1.0000   1.0000   1.0317
     1.0317   0.7952   0.7952   0.5132   0.0005   0.0005   0.0003   0.0000
     0.0000   0.0000   0.0000   0.0000   0.0000   0.0000   0.0000   0.0000
     0.0000   0.0000   0.0000   0.0000   0.0000   0.0000   0.0000   0.0000
     0.0000   0.0000   0.0000   0.0000   0.0000   0.0000   0.0000   0.0000
     0.0000   0.0000   0.0000   0.0000   0.0000   0.0000   0.0000   0.0000
     0.0000   0.0000   0.0000   0.0000   0.0000   0.0000   0.0000   0.0000
     0.0000   0.0000   0.0000   0.0000   0.0000   0.0000   0.0000   0.0000
     0.0000   0.0000   0.0000   0.0000   0.0000   0.0000   0.0000   0.0000

          k = 0.0000 0.1925 0.0000 ( 45262 PWs)   bands (ev):

  -123.1178-123.1171-123.1153-123.1146-123.1146-123.1146-123.1143-123.1142
  -123.0232-123.0217-123.0206-123.0203-123.0197-123.0187-123.0187-123.0178
  -122.9127-122.9120-122.9102-122.9095-122.9095-122.9094-122.9093-122.9091
  -122.8312-122.8299-122.8284-122.8283-122.8283-122.8271-122.8264-122.8264
   -77.2814 -77.2814 -77.2787 -77.2787 -77.2759 -77.2716 -77.2708 -77.2694
   -77.2688 -77.2681 -77.2681 -77.2680 -77.2677 -77.2677 -77.2569 -77.2569
   -77.2567 -77.2550 -77.2542 -77.2541 -77.2516 -77.2505 -77.2488 -77.2451
   -77.1863 -77.1858 -77.1830 -77.1826 -77.1803 -77.1779 -77.1763 -77.1750
   -77.1748 -77.1741 -77.1737 -77.1732 -77.1731 -77.1722 -77.1618 -77.1615
   -77.1614 -77.1592 -77.1585 -77.1581 -77.1561 -77.1551 -77.1528 -77.1494
   -77.0746 -77.0739 -77.0730 -77.0730 -77.0720 -77.0713 -77.0713 -77.0711
   -77.0710 -77.0709 -77.0704 -77.0704 -77.0672 -77.0608 -77.0484 -77.0484
   -77.0484 -77.0468 -77.0456 -77.0456 -77.0430 -77.0422 -77.0406 -77.0365
   -76.9963 -76.9950 -76.9933 -76.9931 -76.9931 -76.9920 -76.9914 -76.9913
   -76.9902 -76.9901 -76.9870 -76.9870 -76.9844 -76.9778 -76.9656 -76.9656
   -76.9656 -76.9634 -76.9624 -76.9624 -76.9601 -76.9592 -76.9571 -76.9535
    -6.4360  -5.8303  -5.6848  -5.1554  -5.0735  -4.9727  -4.9130  -4.8659
    -4.8659  -4.8616  -4.8041  -4.7830  -4.7609  -4.7609  -4.7339  -4.7114
    -4.6782  -4.6782  -4.6710  -4.6604  -4.6604  -4.6409  -4.5967  -4.5843
    -4.5843  -4.5670  -4.5670  -4.5355  -4.5262  -4.5262  -4.5169  -4.5124
    -4.5124  -4.4487  -4.4310  -4.4274  -4.4273  -4.4196  -4.4196  -4.3634
    -4.3634  -4.3559  -4.3299  -4.2991  -4.2990  -4.2869  -4.2425  -4.2425
    -4.2369  -4.2312  -4.2117  -4.2117  -4.1904  -4.1880  -4.1789  -4.1213
    -4.1158  -4.1090  -4.0984  -4.0984  -4.0908  -4.0864  -4.0563  -4.0562
    -4.0233  -4.0230  -4.0089  -3.9773  -3.9691  -3.9665  -3.9622  -3.9622
    -3.9208  -3.9208  -3.9136  -3.9016  -3.9016  -3.8998  -3.8879  -3.8713
    -3.8691  -3.8605  -3.8273  -3.8135  -3.8135  -3.8091  -3.8085  -3.7793
    -3.7793  -3.7785  -3.7457  -3.7269  -3.7269  -3.7077  -3.7077  -3.7030
    -3.6997  -3.6941  -3.6830  -3.6830  -3.6826  -3.6742  -3.6737  -3.6653
    -3.6625  -3.6294  -3.6176  -3.6176  -3.5889  -3.5889  -3.5875  -3.5875
    -3.5855  -3.5760  -3.5743  -3.5658  -3.5583  -3.5583  -3.5510  -3.5473
    -3.5473  -3.5470  -3.5424  -3.5312  -3.5312  -3.5276  -3.5276  -3.5169
    -3.4877  -3.4809  -3.4809  -3.4743  -3.4552  -3.4518  -3.4492  -3.4492
    -3.4467  -3.4451  -3.4396  -3.4292  -3.4278  -3.4278  -3.4194  -3.4021
    -3.3943  -3.3943  -3.3811  -3.3765  -3.3569  -3.3370  -3.3370  -3.3306
    -3.3115  -3.3115  -3.2864  -3.2725  -3.2725  -3.2484  -3.2082  -3.2082
    -3.1727  -3.1270  -3.1270  -3.0896  -2.9730  -2.6577  -2.5077  -1.8475
    -1.1757  -0.8122  -0.7269  -0.3776  -0.0216  -0.0216   0.0000   0.4721
     0.4721   0.7901   0.7901   1.1804   1.2496   1.2496   1.3311   1.3765
     1.9783   2.1595   2.1595   2.4143   2.4143   2.8134   2.8711   2.8711
     3.6258   3.6258   3.9427   4.5423   4.5423   4.5850   4.7515   4.8609
     4.8609   4.9198   5.4062   5.4062   5.5600   5.6493   5.6493   6.1163
     6.1163   6.3934   6.4937   6.9899   7.0513   7.0513   7.0826   7.1329
     7.2183   7.2183   7.4653   7.4740   7.7051   7.7051   7.7778   7.8466
     7.8466   8.0756   8.0837   8.2042   8.6026   8.8407   8.8407   9.0405
     9.2845   9.2920   9.2932   9.6564   9.8190   9.8191   9.8915  10.0390
    10.0390  10.0868  10.0869  10.1650  10.5413  10.5879  10.8380  10.8381
    10.9125  10.9125  11.2185  11.6525  11.7160  11.7160  11.7358  11.7564

     occupation numbers 
     1.0000   1.0000   1.0000   1.0000   1.0000   1.0000   1.0000   1.0000
     1.0000   1.0000   1.0000   1.0000   1.0000   1.0000   1.0000   1.0000
     1.0000   1.0000   1.0000   1.0000   1.0000   1.0000   1.0000   1.0000
     1.0000   1.0000   1.0000   1.0000   1.0000   1.0000   1.0000   1.0000
     1.0000   1.0000   1.0000   1.0000   1.0000   1.0000   1.0000   1.0000
     1.0000   1.0000   1.0000   1.0000   1.0000   1.0000   1.0000   1.0000
     1.0000   1.0000   1.0000   1.0000   1.0000   1.0000   1.0000   1.0000
     1.0000   1.0000   1.0000   1.0000   1.0000   1.0000   1.0000   1.0000
     1.0000   1.0000   1.0000   1.0000   1.0000   1.0000   1.0000   1.0000
     1.0000   1.0000   1.0000   1.0000   1.0000   1.0000   1.0000   1.0000
     1.0000   1.0000   1.0000   1.0000   1.0000   1.0000   1.0000   1.0000
     1.0000   1.0000   1.0000   1.0000   1.0000   1.0000   1.0000   1.0000
     1.0000   1.0000   1.0000   1.0000   1.0000   1.0000   1.0000   1.0000
     1.0000   1.0000   1.0000   1.0000   1.0000   1.0000   1.0000   1.0000
     1.0000   1.0000   1.0000   1.0000   1.0000   1.0000   1.0000   1.0000
     1.0000   1.0000   1.0000   1.0000   1.0000   1.0000   1.0000   1.0000
     1.0000   1.0000   1.0000   1.0000   1.0000   1.0000   1.0000   1.0000
     1.0000   1.0000   1.0000   1.0000   1.0000   1.0000   1.0000   1.0000
     1.0000   1.0000   1.0000   1.0000   1.0000   1.0000   1.0000   1.0000
     1.0000   1.0000   1.0000   1.0000   1.0000   1.0000   1.0000   1.0000
     1.0000   1.0000   1.0000   1.0000   1.0000   1.0000   1.0000   1.0000
     1.0000   1.0000   1.0000   1.0000   1.0000   1.0000   1.0000   1.0000
     1.0000   1.0000   1.0000   1.0000   1.0000   1.0000   1.0000   1.0000
     1.0000   1.0000   1.0000   1.0000   1.0000   1.0000   1.0000   1.0000
     1.0000   1.0000   1.0000   1.0000   1.0000   1.0000   1.0000   1.0000
     1.0000   1.0000   1.0000   1.0000   1.0000   1.0000   1.0000   1.0000
     1.0000   1.0000   1.0000   1.0000   1.0000   1.0000   1.0000   1.0000
     1.0000   1.0000   1.0000   1.0000   1.0000   1.0000   1.0000   1.0000
     1.0000   1.0000   1.0000   1.0000   1.0000   1.0000   1.0000   1.0000
     1.0000   1.0000   1.0000   1.0000   1.0000   1.0000   1.0000   1.0000
     1.0000   1.0000   1.0000   1.0000   1.0000   1.0000   1.0000   1.0000
     1.0000   1.0000   1.0000   1.0000   1.0000   1.0000   1.0000   1.0000
     1.0000   1.0000   1.0000   1.0000   1.0000   1.0000   1.0000   1.0000
     1.0000   1.0000   1.0000   1.0000   1.0000   1.0000   1.0000   1.0000
     1.0000   1.0000   1.0000   1.0000   1.0000   1.0000   1.0000   1.0000
     1.0000   1.0000   1.0000   1.0000   1.0000   1.0000   1.0000   1.0000
     1.0000   1.0000   1.0000   1.0000   1.0000   1.0000   1.0000   1.0000
     1.0000   1.0000   1.0000   1.0000   1.0000   1.0000   1.0000   1.0000
     1.0000   1.0000   1.0000   1.0000   1.0000   1.0000   1.0000   1.0000
     1.0000   1.0000   1.0000   1.0000   1.0000   1.0001   1.0004   1.0004
     0.7851   0.7851   0.0938   0.0000   0.0000   0.0000   0.0000   0.0000
     0.0000   0.0000   0.0000   0.0000   0.0000   0.0000   0.0000   0.0000
     0.0000   0.0000   0.0000   0.0000   0.0000   0.0000   0.0000   0.0000
     0.0000   0.0000   0.0000   0.0000   0.0000   0.0000   0.0000   0.0000
     0.0000   0.0000   0.0000   0.0000   0.0000   0.0000   0.0000   0.0000
     0.0000   0.0000   0.0000   0.0000   0.0000   0.0000   0.0000   0.0000
     0.0000   0.0000   0.0000   0.0000   0.0000   0.0000   0.0000   0.0000
     0.0000   0.0000   0.0000   0.0000   0.0000   0.0000   0.0000   0.0000

          k = 0.3333 0.1925 0.0000 ( 45348 PWs)   bands (ev):

  -123.1171-123.1165-123.1157-123.1153-123.1150-123.1145-123.1144-123.1141
  -123.0226-123.0213-123.0211-123.0201-123.0199-123.0192-123.0185-123.0180
  -122.9120-122.9114-122.9106-122.9102-122.9099-122.9094-122.9093-122.9090
  -122.8306-122.8294-122.8293-122.8285-122.8280-122.8272-122.8268-122.8264
   -77.2775 -77.2758 -77.2740 -77.2737 -77.2709 -77.2703 -77.2703 -77.2702
   -77.2693 -77.2688 -77.2685 -77.2679 -77.2678 -77.2675 -77.2641 -77.2616
   -77.2600 -77.2583 -77.2582 -77.2563 -77.2507 -77.2500 -77.2491 -77.2458
   -77.1820 -77.1803 -77.1785 -77.1779 -77.1772 -77.1758 -77.1757 -77.1746
   -77.1746 -77.1745 -77.1744 -77.1736 -77.1729 -77.1724 -77.1685 -77.1663
   -77.1643 -77.1627 -77.1626 -77.1605 -77.1553 -77.1540 -77.1535 -77.1501
   -77.0740 -77.0733 -77.0724 -77.0720 -77.0717 -77.0711 -77.0711 -77.0707
   -77.0691 -77.0674 -77.0654 -77.0654 -77.0620 -77.0617 -77.0555 -77.0534
   -77.0517 -77.0500 -77.0497 -77.0480 -77.0422 -77.0415 -77.0406 -77.0373
   -76.9956 -76.9944 -76.9941 -76.9933 -76.9929 -76.9921 -76.9917 -76.9913
   -76.9861 -76.9845 -76.9826 -76.9821 -76.9787 -76.9787 -76.9726 -76.9704
   -76.9685 -76.9669 -76.9667 -76.9647 -76.9594 -76.9582 -76.9576 -76.9542
    -5.8301  -5.2914  -5.1548  -4.8604  -4.7841  -4.7815  -4.7655  -4.7327
    -4.6700  -4.6617  -4.6602  -4.6396  -4.6262  -4.5978  -4.5836  -4.5829
    -4.5723  -4.5488  -4.5260  -4.5259  -4.5168  -4.5158  -4.4800  -4.4567
    -4.4550  -4.4539  -4.4489  -4.4206  -4.4192  -4.4164  -4.3776  -4.3729
    -4.3728  -4.3630  -4.3630  -4.3563  -4.3052  -4.3049  -4.2996  -4.2993
    -4.2907  -4.2889  -4.2862  -4.2550  -4.2450  -4.2316  -4.2301  -4.2279
    -4.2109  -4.2109  -4.2009  -4.1913  -4.1908  -4.1795  -4.1714  -4.1664
    -4.1217  -4.1095  -4.1091  -4.1055  -4.0912  -4.0578  -4.0562  -4.0469
    -4.0387  -4.0372  -4.0242  -4.0227  -4.0088  -3.9906  -3.9835  -3.9712
    -3.9665  -3.9646  -3.9636  -3.9632  -3.9438  -3.9220  -3.9210  -3.9158
    -3.9152  -3.8806  -3.8773  -3.8747  -3.8690  -3.8390  -3.8352  -3.8251
    -3.8250  -3.8195  -3.7979  -3.7947  -3.7809  -3.7798  -3.7780  -3.7766
    -3.7749  -3.7604  -3.7464  -3.7330  -3.7294  -3.7262  -3.7092  -3.7047
    -3.7039  -3.7039  -3.6942  -3.6929  -3.6856  -3.6815  -3.6809  -3.6804
    -3.6755  -3.6649  -3.6629  -3.6604  -3.6370  -3.6297  -3.6198  -3.6195
    -3.6109  -3.5937  -3.5919  -3.5902  -3.5864  -3.5776  -3.5766  -3.5642
    -3.5607  -3.5592  -3.5566  -3.5553  -3.5504  -3.5308  -3.5282  -3.5280
    -3.5008  -3.4990  -3.4954  -3.4856  -3.4714  -3.4539  -3.4520  -3.4503
    -3.4475  -3.4464  -3.4429  -3.4418  -3.4361  -3.4315  -3.4175  -3.4034
    -3.3827  -3.3732  -3.3718  -3.3594  -3.3345  -3.3339  -3.3307  -3.2875
    -3.2705  -3.2699  -3.2486  -3.2383  -3.0171  -2.6588  -2.5086  -2.3556
    -2.0246  -1.8478  -1.8397  -1.0763  -0.9320  -0.7271  -0.3781  -0.2457
    -0.0211  -0.0209   0.3266   0.7905   0.7906   0.8038   1.3306   1.9221
     1.9777   1.9874   2.1596   2.1600   2.7215   2.7413   3.6253   3.6260
     4.0150   4.1041   4.3588   4.5849   4.7486   5.2181   5.4060   5.4087
     5.4158   5.5493   5.9236   6.1158   6.1194   6.4456   6.8054   6.9870
     7.0143   7.0522   7.0616   7.0826   7.6255   7.6695   7.7014   7.7053
     7.7762   7.8980   8.0756   8.0837   8.3278   8.4269   8.6018   8.6831
     8.6926   8.8043   8.8409   8.8501   8.9944   9.1760   9.2772   9.3883
     9.5703   9.6565   9.8061   9.8201   9.8604   9.8830   9.8914   9.8961
    10.0374  10.0397  10.1694  10.2654  10.4857  10.4919  10.5425  10.5934
    10.6861  10.7327  10.7890  10.9119  10.9125  11.1064  11.1606  11.3787

     occupation numbers 
     1.0000   1.0000   1.0000   1.0000   1.0000   1.0000   1.0000   1.0000
     1.0000   1.0000   1.0000   1.0000   1.0000   1.0000   1.0000   1.0000
     1.0000   1.0000   1.0000   1.0000   1.0000   1.0000   1.0000   1.0000
     1.0000   1.0000   1.0000   1.0000   1.0000   1.0000   1.0000   1.0000
     1.0000   1.0000   1.0000   1.0000   1.0000   1.0000   1.0000   1.0000
     1.0000   1.0000   1.0000   1.0000   1.0000   1.0000   1.0000   1.0000
     1.0000   1.0000   1.0000   1.0000   1.0000   1.0000   1.0000   1.0000
     1.0000   1.0000   1.0000   1.0000   1.0000   1.0000   1.0000   1.0000
     1.0000   1.0000   1.0000   1.0000   1.0000   1.0000   1.0000   1.0000
     1.0000   1.0000   1.0000   1.0000   1.0000   1.0000   1.0000   1.0000
     1.0000   1.0000   1.0000   1.0000   1.0000   1.0000   1.0000   1.0000
     1.0000   1.0000   1.0000   1.0000   1.0000   1.0000   1.0000   1.0000
     1.0000   1.0000   1.0000   1.0000   1.0000   1.0000   1.0000   1.0000
     1.0000   1.0000   1.0000   1.0000   1.0000   1.0000   1.0000   1.0000
     1.0000   1.0000   1.0000   1.0000   1.0000   1.0000   1.0000   1.0000
     1.0000   1.0000   1.0000   1.0000   1.0000   1.0000   1.0000   1.0000
     1.0000   1.0000   1.0000   1.0000   1.0000   1.0000   1.0000   1.0000
     1.0000   1.0000   1.0000   1.0000   1.0000   1.0000   1.0000   1.0000
     1.0000   1.0000   1.0000   1.0000   1.0000   1.0000   1.0000   1.0000
     1.0000   1.0000   1.0000   1.0000   1.0000   1.0000   1.0000   1.0000
     1.0000   1.0000   1.0000   1.0000   1.0000   1.0000   1.0000   1.0000
     1.0000   1.0000   1.0000   1.0000   1.0000   1.0000   1.0000   1.0000
     1.0000   1.0000   1.0000   1.0000   1.0000   1.0000   1.0000   1.0000
     1.0000   1.0000   1.0000   1.0000   1.0000   1.0000   1.0000   1.0000
     1.0000   1.0000   1.0000   1.0000   1.0000   1.0000   1.0000   1.0000
     1.0000   1.0000   1.0000   1.0000   1.0000   1.0000   1.0000   1.0000
     1.0000   1.0000   1.0000   1.0000   1.0000   1.0000   1.0000   1.0000
     1.0000   1.0000   1.0000   1.0000   1.0000   1.0000   1.0000   1.0000
     1.0000   1.0000   1.0000   1.0000   1.0000   1.0000   1.0000   1.0000
     1.0000   1.0000   1.0000   1.0000   1.0000   1.0000   1.0000   1.0000
     1.0000   1.0000   1.0000   1.0000   1.0000   1.0000   1.0000   1.0000
     1.0000   1.0000   1.0000   1.0000   1.0000   1.0000   1.0000   1.0000
     1.0000   1.0000   1.0000   1.0000   1.0000   1.0000   1.0000   1.0000
     1.0000   1.0000   1.0000   1.0000   1.0000   1.0000   1.0000   1.0000
     1.0000   1.0000   1.0000   1.0000   1.0000   1.0000   1.0000   1.0000
     1.0000   1.0000   1.0000   1.0000   1.0000   1.0000   1.0000   1.0000
     1.0000   1.0000   1.0000   1.0000   1.0000   1.0000   1.0000   1.0000
     1.0000   1.0000   1.0000   1.0000   1.0000   1.0000   1.0000   1.0000
     1.0000   1.0000   1.0000   1.0000   1.0000   1.0000   1.0000   1.0000
     1.0000   1.0000   1.0000   1.0000   1.0000   1.0000   0.7863   0.7845
     0.0411   0.0124   0.0001   0.0000   0.0000   0.0000   0.0000   0.0000
     0.0000   0.0000   0.0000   0.0000   0.0000   0.0000   0.0000   0.0000
     0.0000   0.0000   0.0000   0.0000   0.0000   0.0000   0.0000   0.0000
     0.0000   0.0000   0.0000   0.0000   0.0000   0.0000   0.0000   0.0000
     0.0000   0.0000   0.0000   0.0000   0.0000   0.0000   0.0000   0.0000
     0.0000   0.0000   0.0000   0.0000   0.0000   0.0000   0.0000   0.0000
     0.0000   0.0000   0.0000   0.0000   0.0000   0.0000   0.0000   0.0000
     0.0000   0.0000   0.0000   0.0000   0.0000   0.0000   0.0000   0.0000

          k = 0.3333 0.3849 0.0000 ( 45348 PWs)   bands (ev):

  -123.1171-123.1165-123.1157-123.1153-123.1150-123.1145-123.1144-123.1141
  -123.0226-123.0213-123.0211-123.0201-123.0199-123.0192-123.0185-123.0180
  -122.9120-122.9114-122.9106-122.9102-122.9099-122.9094-122.9093-122.9090
  -122.8306-122.8294-122.8293-122.8285-122.8280-122.8272-122.8268-122.8264
   -77.2775 -77.2758 -77.2740 -77.2737 -77.2709 -77.2703 -77.2703 -77.2702
   -77.2693 -77.2688 -77.2685 -77.2679 -77.2678 -77.2675 -77.2641 -77.2616
   -77.2600 -77.2583 -77.2582 -77.2563 -77.2507 -77.2500 -77.2491 -77.2458
   -77.1820 -77.1803 -77.1785 -77.1779 -77.1772 -77.1758 -77.1757 -77.1746
   -77.1746 -77.1745 -77.1744 -77.1736 -77.1729 -77.1724 -77.1685 -77.1663
   -77.1643 -77.1627 -77.1626 -77.1605 -77.1553 -77.1540 -77.1535 -77.1501
   -77.0740 -77.0733 -77.0724 -77.0720 -77.0717 -77.0711 -77.0711 -77.0707
   -77.0691 -77.0674 -77.0654 -77.0654 -77.0620 -77.0617 -77.0555 -77.0534
   -77.0517 -77.0500 -77.0497 -77.0480 -77.0422 -77.0415 -77.0406 -77.0373
   -76.9956 -76.9944 -76.9941 -76.9933 -76.9929 -76.9921 -76.9917 -76.9913
   -76.9861 -76.9845 -76.9826 -76.9821 -76.9787 -76.9787 -76.9726 -76.9704
   -76.9685 -76.9669 -76.9667 -76.9647 -76.9594 -76.9582 -76.9576 -76.9542
    -5.8301  -5.2914  -5.1548  -4.8604  -4.7841  -4.7815  -4.7655  -4.7327
    -4.6700  -4.6617  -4.6602  -4.6396  -4.6262  -4.5978  -4.5836  -4.5829
    -4.5723  -4.5488  -4.5260  -4.5259  -4.5168  -4.5158  -4.4800  -4.4567
    -4.4550  -4.4539  -4.4489  -4.4206  -4.4192  -4.4164  -4.3776  -4.3729
    -4.3728  -4.3630  -4.3630  -4.3563  -4.3052  -4.3049  -4.2996  -4.2993
    -4.2907  -4.2889  -4.2862  -4.2550  -4.2450  -4.2316  -4.2301  -4.2279
    -4.2109  -4.2109  -4.2009  -4.1913  -4.1908  -4.1795  -4.1714  -4.1664
    -4.1217  -4.1095  -4.1091  -4.1055  -4.0912  -4.0578  -4.0562  -4.0469
    -4.0387  -4.0372  -4.0242  -4.0227  -4.0088  -3.9906  -3.9835  -3.9712
    -3.9665  -3.9646  -3.9636  -3.9632  -3.9438  -3.9220  -3.9210  -3.9158
    -3.9152  -3.8806  -3.8773  -3.8747  -3.8690  -3.8390  -3.8352  -3.8251
    -3.8250  -3.8195  -3.7979  -3.7947  -3.7809  -3.7798  -3.7780  -3.7766
    -3.7749  -3.7604  -3.7464  -3.7330  -3.7294  -3.7262  -3.7092  -3.7047
    -3.7039  -3.7039  -3.6942  -3.6929  -3.6856  -3.6815  -3.6809  -3.6804
    -3.6755  -3.6649  -3.6629  -3.6604  -3.6370  -3.6297  -3.6198  -3.6195
    -3.6109  -3.5937  -3.5919  -3.5902  -3.5864  -3.5776  -3.5766  -3.5642
    -3.5607  -3.5592  -3.5566  -3.5553  -3.5504  -3.5308  -3.5282  -3.5280
    -3.5008  -3.4990  -3.4954  -3.4856  -3.4714  -3.4539  -3.4520  -3.4503
    -3.4475  -3.4464  -3.4429  -3.4418  -3.4361  -3.4315  -3.4175  -3.4034
    -3.3827  -3.3732  -3.3718  -3.3594  -3.3345  -3.3339  -3.3307  -3.2875
    -3.2705  -3.2699  -3.2486  -3.2383  -3.0171  -2.6588  -2.5086  -2.3556
    -2.0246  -1.8478  -1.8397  -1.0763  -0.9320  -0.7271  -0.3781  -0.2457
    -0.0211  -0.0209   0.3266   0.7905   0.7906   0.8038   1.3306   1.9221
     1.9777   1.9874   2.1596   2.1600   2.7215   2.7413   3.6253   3.6260
     4.0150   4.1041   4.3588   4.5849   4.7486   5.2181   5.4060   5.4087
     5.4158   5.5493   5.9236   6.1158   6.1194   6.4456   6.8054   6.9870
     7.0143   7.0522   7.0616   7.0826   7.6255   7.6695   7.7014   7.7053
     7.7762   7.8980   8.0756   8.0837   8.3278   8.4269   8.6018   8.6831
     8.6926   8.8043   8.8409   8.8501   8.9944   9.1760   9.2772   9.3883
     9.5703   9.6565   9.8061   9.8201   9.8605   9.8830   9.8914   9.8961
    10.0374  10.0397  10.1694  10.2654  10.4857  10.4919  10.5425  10.5934
    10.6861  10.7327  10.7890  10.9119  10.9125  11.1064  11.1606  11.3787

     occupation numbers 
     1.0000   1.0000   1.0000   1.0000   1.0000   1.0000   1.0000   1.0000
     1.0000   1.0000   1.0000   1.0000   1.0000   1.0000   1.0000   1.0000
     1.0000   1.0000   1.0000   1.0000   1.0000   1.0000   1.0000   1.0000
     1.0000   1.0000   1.0000   1.0000   1.0000   1.0000   1.0000   1.0000
     1.0000   1.0000   1.0000   1.0000   1.0000   1.0000   1.0000   1.0000
     1.0000   1.0000   1.0000   1.0000   1.0000   1.0000   1.0000   1.0000
     1.0000   1.0000   1.0000   1.0000   1.0000   1.0000   1.0000   1.0000
     1.0000   1.0000   1.0000   1.0000   1.0000   1.0000   1.0000   1.0000
     1.0000   1.0000   1.0000   1.0000   1.0000   1.0000   1.0000   1.0000
     1.0000   1.0000   1.0000   1.0000   1.0000   1.0000   1.0000   1.0000
     1.0000   1.0000   1.0000   1.0000   1.0000   1.0000   1.0000   1.0000
     1.0000   1.0000   1.0000   1.0000   1.0000   1.0000   1.0000   1.0000
     1.0000   1.0000   1.0000   1.0000   1.0000   1.0000   1.0000   1.0000
     1.0000   1.0000   1.0000   1.0000   1.0000   1.0000   1.0000   1.0000
     1.0000   1.0000   1.0000   1.0000   1.0000   1.0000   1.0000   1.0000
     1.0000   1.0000   1.0000   1.0000   1.0000   1.0000   1.0000   1.0000
     1.0000   1.0000   1.0000   1.0000   1.0000   1.0000   1.0000   1.0000
     1.0000   1.0000   1.0000   1.0000   1.0000   1.0000   1.0000   1.0000
     1.0000   1.0000   1.0000   1.0000   1.0000   1.0000   1.0000   1.0000
     1.0000   1.0000   1.0000   1.0000   1.0000   1.0000   1.0000   1.0000
     1.0000   1.0000   1.0000   1.0000   1.0000   1.0000   1.0000   1.0000
     1.0000   1.0000   1.0000   1.0000   1.0000   1.0000   1.0000   1.0000
     1.0000   1.0000   1.0000   1.0000   1.0000   1.0000   1.0000   1.0000
     1.0000   1.0000   1.0000   1.0000   1.0000   1.0000   1.0000   1.0000
     1.0000   1.0000   1.0000   1.0000   1.0000   1.0000   1.0000   1.0000
     1.0000   1.0000   1.0000   1.0000   1.0000   1.0000   1.0000   1.0000
     1.0000   1.0000   1.0000   1.0000   1.0000   1.0000   1.0000   1.0000
     1.0000   1.0000   1.0000   1.0000   1.0000   1.0000   1.0000   1.0000
     1.0000   1.0000   1.0000   1.0000   1.0000   1.0000   1.0000   1.0000
     1.0000   1.0000   1.0000   1.0000   1.0000   1.0000   1.0000   1.0000
     1.0000   1.0000   1.0000   1.0000   1.0000   1.0000   1.0000   1.0000
     1.0000   1.0000   1.0000   1.0000   1.0000   1.0000   1.0000   1.0000
     1.0000   1.0000   1.0000   1.0000   1.0000   1.0000   1.0000   1.0000
     1.0000   1.0000   1.0000   1.0000   1.0000   1.0000   1.0000   1.0000
     1.0000   1.0000   1.0000   1.0000   1.0000   1.0000   1.0000   1.0000
     1.0000   1.0000   1.0000   1.0000   1.0000   1.0000   1.0000   1.0000
     1.0000   1.0000   1.0000   1.0000   1.0000   1.0000   1.0000   1.0000
     1.0000   1.0000   1.0000   1.0000   1.0000   1.0000   1.0000   1.0000
     1.0000   1.0000   1.0000   1.0000   1.0000   1.0000   1.0000   1.0000
     1.0000   1.0000   1.0000   1.0000   1.0000   1.0000   0.7863   0.7845
     0.0411   0.0124   0.0001   0.0000   0.0000   0.0000   0.0000   0.0000
     0.0000   0.0000   0.0000   0.0000   0.0000   0.0000   0.0000   0.0000
     0.0000   0.0000   0.0000   0.0000   0.0000   0.0000   0.0000   0.0000
     0.0000   0.0000   0.0000   0.0000   0.0000   0.0000   0.0000   0.0000
     0.0000   0.0000   0.0000   0.0000   0.0000   0.0000   0.0000   0.0000
     0.0000   0.0000   0.0000   0.0000   0.0000   0.0000   0.0000   0.0000
     0.0000   0.0000   0.0000   0.0000   0.0000   0.0000   0.0000   0.0000
     0.0000   0.0000   0.0000   0.0000   0.0000   0.0000   0.0000   0.0000

          k = 0.3333-0.0000 0.0000 ( 45368 PWs)   bands (ev):

  -123.1173-123.1158-123.1158-123.1157-123.1149-123.1148-123.1142-123.1140
  -123.0227-123.0213-123.0209-123.0202-123.0201-123.0192-123.0184-123.0180
  -122.9122-122.9107-122.9107-122.9107-122.9098-122.9098-122.9091-122.9089
  -122.8307-122.8293-122.8292-122.8284-122.8283-122.8272-122.8267-122.8263
   -77.2766 -77.2766 -77.2754 -77.2734 -77.2711 -77.2694 -77.2694 -77.2693
   -77.2687 -77.2684 -77.2683 -77.2680 -77.2676 -77.2674 -77.2651 -77.2651
   -77.2628 -77.2549 -77.2537 -77.2537 -77.2534 -77.2534 -77.2501 -77.2446
   -77.1813 -77.1811 -77.1798 -77.1776 -77.1773 -77.1758 -77.1754 -77.1748
   -77.1745 -77.1737 -77.1730 -77.1729 -77.1724 -77.1724 -77.1698 -77.1695
   -77.1671 -77.1596 -77.1581 -77.1580 -77.1578 -77.1577 -77.1543 -77.1489
   -77.0742 -77.0725 -77.0725 -77.0725 -77.0716 -77.0716 -77.0709 -77.0706
   -77.0683 -77.0683 -77.0667 -77.0652 -77.0604 -77.0594 -77.0567 -77.0567
   -77.0546 -77.0466 -77.0453 -77.0453 -77.0449 -77.0449 -77.0415 -77.0360
   -76.9957 -76.9942 -76.9940 -76.9933 -76.9932 -76.9922 -76.9916 -76.9912
   -76.9854 -76.9852 -76.9839 -76.9818 -76.9772 -76.9764 -76.9738 -76.9736
   -76.9713 -76.9637 -76.9622 -76.9621 -76.9619 -76.9619 -76.9584 -76.9530
    -6.0241  -5.3135  -4.8547  -4.8085  -4.8085  -4.7525  -4.7005  -4.7005
    -4.6959  -4.6451  -4.6448  -4.6448  -4.6205  -4.6205  -4.6086  -4.5534
    -4.5066  -4.5066  -4.4573  -4.4572  -4.4490  -4.4478  -4.4478  -4.4454
    -4.4454  -4.4447  -4.4416  -4.3946  -4.3946  -4.3938  -4.3926  -4.3815
    -4.3766  -4.3766  -4.3282  -4.3182  -4.3016  -4.3013  -4.3013  -4.2978
    -4.2899  -4.2756  -4.2756  -4.2755  -4.2514  -4.2405  -4.2339  -4.2303
    -4.2302  -4.2295  -4.2187  -4.2104  -4.2104  -4.1569  -4.1470  -4.1470
    -4.1467  -4.1465  -4.1332  -4.1323  -4.1126  -4.1126  -4.1105  -4.0700
    -4.0693  -4.0693  -4.0685  -4.0510  -4.0510  -4.0389  -4.0350  -4.0350
    -4.0333  -4.0328  -3.9997  -3.9881  -3.9777  -3.9495  -3.9461  -3.9154
    -3.9149  -3.9149  -3.9032  -3.9003  -3.8977  -3.8953  -3.8910  -3.8857
    -3.8857  -3.8586  -3.8586  -3.8188  -3.8176  -3.8149  -3.8149  -3.8137
    -3.8058  -3.7746  -3.7469  -3.7099  -3.7090  -3.7076  -3.7050  -3.7050
    -3.7025  -3.7011  -3.7011  -3.6897  -3.6897  -3.6897  -3.6842  -3.6841
    -3.6832  -3.6637  -3.6564  -3.6462  -3.6462  -3.5847  -3.5712  -3.5621
    -3.5586  -3.5586  -3.5581  -3.5536  -3.5536  -3.5428  -3.5405  -3.5405
    -3.5376  -3.5320  -3.5200  -3.5172  -3.5172  -3.5165  -3.4865  -3.4865
    -3.4858  -3.4786  -3.4769  -3.4769  -3.4719  -3.4719  -3.4579  -3.4507
    -3.4507  -3.4490  -3.4425  -3.4411  -3.4354  -3.3982  -3.3964  -3.3964
    -3.3931  -3.3931  -3.3910  -3.3852  -3.3693  -3.3162  -3.2942  -3.2942
    -3.2138  -3.2138  -3.0345  -3.0332  -3.0331  -2.6558  -2.4613  -2.4605
    -2.4605  -1.5690  -1.5690  -1.0945  -1.0938  -1.0938  -0.8781  -0.7635
    -0.7634   0.6406   0.6409   0.6410   0.6573   0.6573   1.7196   2.0167
     2.2852   2.2852   2.4286   2.8166   3.0815   3.8865   3.8877   3.8877
     4.1424   4.2551   4.3006   4.3723   4.8356   4.9120   5.0725   5.0766
     5.1830   5.7863   5.7863   5.9912   6.2547   6.2551   6.2552   6.3357
     6.3358   6.5175   6.7488   6.7687   6.7859   6.8868   7.0871   7.0871
     7.7779   7.8726   7.8806   8.0602   8.0603   8.4085   8.4522   8.5634
     8.5634   8.6391   8.6394   8.6396   8.9235   9.4521   9.6891   9.6894
     9.6905   9.6923   9.7002   9.7005   9.7019   9.7938  10.2315  10.2316
    10.3274  10.6189  10.6192  10.6612  10.8481  10.9198  11.2393  11.2401
    11.2406  11.3968  11.4288  11.4297  11.4299  11.5226  11.5240  11.5415

     occupation numbers 
     1.0000   1.0000   1.0000   1.0000   1.0000   1.0000   1.0000   1.0000
     1.0000   1.0000   1.0000   1.0000   1.0000   1.0000   1.0000   1.0000
     1.0000   1.0000   1.0000   1.0000   1.0000   1.0000   1.0000   1.0000
     1.0000   1.0000   1.0000   1.0000   1.0000   1.0000   1.0000   1.0000
     1.0000   1.0000   1.0000   1.0000   1.0000   1.0000   1.0000   1.0000
     1.0000   1.0000   1.0000   1.0000   1.0000   1.0000   1.0000   1.0000
     1.0000   1.0000   1.0000   1.0000   1.0000   1.0000   1.0000   1.0000
     1.0000   1.0000   1.0000   1.0000   1.0000   1.0000   1.0000   1.0000
     1.0000   1.0000   1.0000   1.0000   1.0000   1.0000   1.0000   1.0000
     1.0000   1.0000   1.0000   1.0000   1.0000   1.0000   1.0000   1.0000
     1.0000   1.0000   1.0000   1.0000   1.0000   1.0000   1.0000   1.0000
     1.0000   1.0000   1.0000   1.0000   1.0000   1.0000   1.0000   1.0000
     1.0000   1.0000   1.0000   1.0000   1.0000   1.0000   1.0000   1.0000
     1.0000   1.0000   1.0000   1.0000   1.0000   1.0000   1.0000   1.0000
     1.0000   1.0000   1.0000   1.0000   1.0000   1.0000   1.0000   1.0000
     1.0000   1.0000   1.0000   1.0000   1.0000   1.0000   1.0000   1.0000
     1.0000   1.0000   1.0000   1.0000   1.0000   1.0000   1.0000   1.0000
     1.0000   1.0000   1.0000   1.0000   1.0000   1.0000   1.0000   1.0000
     1.0000   1.0000   1.0000   1.0000   1.0000   1.0000   1.0000   1.0000
     1.0000   1.0000   1.0000   1.0000   1.0000   1.0000   1.0000   1.0000
     1.0000   1.0000   1.0000   1.0000   1.0000   1.0000   1.0000   1.0000
     1.0000   1.0000   1.0000   1.0000   1.0000   1.0000   1.0000   1.0000
     1.0000   1.0000   1.0000   1.0000   1.0000   1.0000   1.0000   1.0000
     1.0000   1.0000   1.0000   1.0000   1.0000   1.0000   1.0000   1.0000
     1.0000   1.0000   1.0000   1.0000   1.0000   1.0000   1.0000   1.0000
     1.0000   1.0000   1.0000   1.0000   1.0000   1.0000   1.0000   1.0000
     1.0000   1.0000   1.0000   1.0000   1.0000   1.0000   1.0000   1.0000
     1.0000   1.0000   1.0000   1.0000   1.0000   1.0000   1.0000   1.0000
     1.0000   1.0000   1.0000   1.0000   1.0000   1.0000   1.0000   1.0000
     1.0000   1.0000   1.0000   1.0000   1.0000   1.0000   1.0000   1.0000
     1.0000   1.0000   1.0000   1.0000   1.0000   1.0000   1.0000   1.0000
     1.0000   1.0000   1.0000   1.0000   1.0000   1.0000   1.0000   1.0000
     1.0000   1.0000   1.0000   1.0000   1.0000   1.0000   1.0000   1.0000
     1.0000   1.0000   1.0000   1.0000   1.0000   1.0000   1.0000   1.0000
     1.0000   1.0000   1.0000   1.0000   1.0000   1.0000   1.0000   1.0000
     1.0000   1.0000   1.0000   1.0000   1.0000   1.0000   1.0000   1.0000
     1.0000   1.0000   1.0000   1.0000   1.0000   1.0000   1.0000   1.0000
     1.0000   1.0000   1.0000   1.0000   1.0000   1.0000   1.0000   1.0000
     1.0000   1.0000   1.0000   1.0000   1.0000   1.0000   1.0000   1.0000
     1.0000   1.0000   1.0000   1.0001   1.0095   0.1626   0.1608   0.1608
     0.0069   0.0010   0.0004   0.0001   0.0000   0.0000   0.0000   0.0000
     0.0000   0.0000   0.0000   0.0000   0.0000   0.0000   0.0000   0.0000
     0.0000   0.0000   0.0000   0.0000   0.0000   0.0000   0.0000   0.0000
     0.0000   0.0000   0.0000   0.0000   0.0000   0.0000   0.0000   0.0000
     0.0000   0.0000   0.0000   0.0000   0.0000   0.0000   0.0000   0.0000
     0.0000   0.0000   0.0000   0.0000   0.0000   0.0000   0.0000   0.0000
     0.0000   0.0000   0.0000   0.0000   0.0000   0.0000   0.0000   0.0000
     0.0000   0.0000   0.0000   0.0000   0.0000   0.0000   0.0000   0.0000

     the Fermi energy is     3.7689 ev

!    total energy              =  -14769.59530570 Ry
     estimated scf accuracy    <       0.00000012 Ry
     smearing contrib. (-TS)   =      -0.00944992 Ry
     internal energy E=F+TS    =  -14769.58585578 Ry

     The total energy is F=E-TS. E is the sum of the following terms:
     one-electron contribution =  -89029.42726968 Ry
     hartree contribution      =   44516.37898130 Ry
     xc contribution           =   -1349.37918431 Ry
     ewald contribution        =   31092.84161691 Ry

     convergence has been achieved in  12 iterations

     Forces acting on atoms (cartesian axes, Ry/au):

     atom    1 type  1   force =    -0.00000037    0.00016555   -0.00876227
     atom    2 type  1   force =     0.00000130    0.00005100    0.00016400
     atom    3 type  1   force =     0.00000005   -0.00017317   -0.00883701
     atom    4 type  1   force =    -0.00000038   -0.00064225    0.00015431
     atom    5 type  1   force =    -0.00000005    0.00002616   -0.00897670
     atom    6 type  1   force =     0.00000099   -0.00026142    0.00017612
     atom    7 type  1   force =     0.00000040    0.00036698   -0.00890517
     atom    8 type  1   force =    -0.00000031    0.00040220    0.00016451
     atom    9 type  1   force =     0.00000047    0.00016496   -0.00876266
     atom   10 type  1   force =    -0.00000136    0.00005051    0.00016185
     atom   11 type  1   force =     0.00000028   -0.00017309   -0.00883732
     atom   12 type  1   force =     0.00000073   -0.00064385    0.00015426
     atom   13 type  1   force =     0.00000013    0.00002571   -0.00897762
     atom   14 type  1   force =    -0.00000073   -0.00026194    0.00017475
     atom   15 type  1   force =    -0.00000036    0.00036771   -0.00890505
     atom   16 type  1   force =     0.00000041    0.00040045    0.00016493
     atom   17 type  1   force =    -0.00000029    0.00030425    0.00830039
     atom   18 type  1   force =     0.00000144    0.00023525    0.00029692
     atom   19 type  1   force =    -0.00000007   -0.00027648    0.00829556
     atom   20 type  1   force =    -0.00000012   -0.00022934    0.00029184
     atom   21 type  1   force =    -0.00000201   -0.00028437    0.00824857
     atom   22 type  1   force =     0.00000080   -0.00022678    0.00056663
     atom   23 type  1   force =     0.00000035    0.00031134    0.00824539
     atom   24 type  1   force =     0.00000074    0.00023386    0.00058181
     atom   25 type  1   force =     0.00000004    0.00030435    0.00830031
     atom   26 type  1   force =    -0.00000147    0.00023530    0.00029742
     atom   27 type  1   force =    -0.00000024   -0.00027504    0.00829908
     atom   28 type  1   force =    -0.00000012   -0.00023171    0.00028514
     atom   29 type  1   force =     0.00000153   -0.00028442    0.00824882
     atom   30 type  1   force =    -0.00000086   -0.00022667    0.00056666
     atom   31 type  1   force =    -0.00000060    0.00031311    0.00824882
     atom   32 type  1   force =    -0.00000033    0.00023183    0.00057569
     The non-local contrib.  to forces
     atom    1 type  1   force =    -0.00000006    0.01005287    0.09568300
     atom    2 type  1   force =     0.00000277    0.00431689   -0.08475748
     atom    3 type  1   force =    -0.00000059    0.00971338    0.09562051
     atom    4 type  1   force =     0.00000105    0.00396451   -0.08459140
     atom    5 type  1   force =     0.00000021    0.00987439    0.09559143
     atom    6 type  1   force =     0.00000068    0.00414574   -0.08460787
     atom    7 type  1   force =    -0.00000001    0.01021008    0.09564826
     atom    8 type  1   force =    -0.00000135    0.00444262   -0.08478327
     atom    9 type  1   force =     0.00000005    0.01005309    0.09568233
     atom   10 type  1   force =    -0.00000329    0.00431655   -0.08475932
     atom   11 type  1   force =     0.00000063    0.00971333    0.09562040
     atom   12 type  1   force =    -0.00000097    0.00396186   -0.08459163
     atom   13 type  1   force =    -0.00000011    0.00987454    0.09558987
     atom   14 type  1   force =    -0.00000121    0.00414451   -0.08460965
     atom   15 type  1   force =     0.00000004    0.01020997    0.09564838
     atom   16 type  1   force =     0.00000189    0.00444097   -0.08478329
     atom   17 type  1   force =    -0.00000196   -0.00517469    0.06993712
     atom   18 type  1   force =     0.00000243   -0.00869932   -0.08553151
     atom   19 type  1   force =     0.00000030   -0.00570071    0.07001986
     atom   20 type  1   force =    -0.00000025   -0.00908883   -0.08542992
     atom   21 type  1   force =    -0.00000210   -0.00568642    0.07000912
     atom   22 type  1   force =     0.00000005   -0.00915308   -0.08608436
     atom   23 type  1   force =     0.00000030   -0.00516585    0.06992794
     atom   24 type  1   force =     0.00000017   -0.00873941   -0.08613543
     atom   25 type  1   force =     0.00000210   -0.00517489    0.06993680
     atom   26 type  1   force =    -0.00000222   -0.00869903   -0.08553176
     atom   27 type  1   force =    -0.00000015   -0.00569821    0.07002522
     atom   28 type  1   force =     0.00000011   -0.00909075   -0.08543844
     atom   29 type  1   force =     0.00000225   -0.00568680    0.07000907
     atom   30 type  1   force =    -0.00000006   -0.00915242   -0.08608488
     atom   31 type  1   force =    -0.00000019   -0.00516366    0.06993331
     atom   32 type  1   force =    -0.00000026   -0.00874060   -0.08614710
     The ionic contribution  to forces
     atom    1 type  1   force =     0.00000117    0.00090165 -410.76355067
     atom    2 type  1   force =     0.00028480    0.02278854  137.17294700
     atom    3 type  1   force =     0.00000049   -0.00227910 -410.76483983
     atom    4 type  1   force =     0.00020881   -0.13755159  137.15502482
     atom    5 type  1   force =     0.00000045   -0.00090095 -410.76803023
     atom    6 type  1   force =     0.00006857   -0.04886506  137.09026341
     atom    7 type  1   force =     0.00000039    0.00224492 -410.76663294
     atom    8 type  1   force =    -0.00004578    0.10303954  137.12266970
     atom    9 type  1   force =    -0.00000113    0.00090119 -410.76355022
     atom   10 type  1   force =    -0.00029488    0.02270586  137.17321274
     atom   11 type  1   force =    -0.00000043   -0.00228001 -410.76484024
     atom   12 type  1   force =    -0.00020371   -0.13776932  137.15482186
     atom   13 type  1   force =    -0.00000040   -0.00090144 -410.76803084
     atom   14 type  1   force =    -0.00007622   -0.04897788  137.08997831
     atom   15 type  1   force =    -0.00000032    0.00224402 -410.76663418
     atom   16 type  1   force =     0.00005631    0.10283759  137.12263729
     atom   17 type  1   force =     0.00001191    0.01163217 -131.45243852
     atom   18 type  1   force =     0.00005638    0.06458764  405.13126425
     atom   19 type  1   force =     0.00000575   -0.00407843 -131.44794962
     atom   20 type  1   force =     0.00001266   -0.04055364  405.14017648
     atom   21 type  1   force =    -0.00000060   -0.00525153 -131.46965902
     atom   22 type  1   force =    -0.00010319   -0.03994556  405.05031241
     atom   23 type  1   force =    -0.00000131    0.01261829 -131.47210212
     atom   24 type  1   force =     0.00000460    0.06189088  405.04259016
     atom   25 type  1   force =    -0.00001015    0.01161817 -131.45251060
     atom   26 type  1   force =    -0.00005317    0.06457793  405.13129029
     atom   27 type  1   force =    -0.00000587   -0.00410512 -131.44798576
     atom   28 type  1   force =    -0.00001494   -0.04051655  405.14060830
     atom   29 type  1   force =     0.00000172   -0.00524312 -131.46969429
     atom   30 type  1   force =     0.00010421   -0.03994345  405.05026313
     atom   31 type  1   force =     0.00000056    0.01263515 -131.47211290
     atom   32 type  1   force =    -0.00000668    0.06193919  405.04250182
     The local contribution  to forces
     atom    1 type  1   force =    -0.00000074   -0.01093254  410.65925293
     atom    2 type  1   force =    -0.00028739   -0.02722828 -137.08795826
     atom    3 type  1   force =     0.00000025   -0.00707539  410.66067783
     atom    4 type  1   force =    -0.00020974    0.13359474 -137.07030866
     atom    5 type  1   force =    -0.00000064   -0.00881139  410.66403762
     atom    6 type  1   force =    -0.00006968    0.04464078 -137.00567077
     atom    7 type  1   force =    -0.00000043   -0.01261045  410.66250491
     atom    8 type  1   force =     0.00004540   -0.10775389 -137.03783194
     atom    9 type  1   force =     0.00000073   -0.01093239  410.65925142
     atom   10 type  1   force =     0.00029800   -0.02714496 -137.08822289
     atom   11 type  1   force =    -0.00000056   -0.00707460  410.66067876
     atom   12 type  1   force =     0.00020447    0.13381521 -137.07010531
     atom   13 type  1   force =     0.00000047   -0.00881107  410.66403787
     atom   14 type  1   force =     0.00007771    0.04475558 -137.00538498
     atom   15 type  1   force =     0.00000046   -0.01261006  410.66250582
     atom   16 type  1   force =    -0.00005635   -0.10754944 -137.03779986
     atom   17 type  1   force =    -0.00001226   -0.00668105  131.39111173
     atom   18 type  1   force =    -0.00005725   -0.05590081 -405.04566150
     atom   19 type  1   force =    -0.00000608    0.01002697  131.38653308
     atom   20 type  1   force =    -0.00001263    0.04965171 -405.05467964
     atom   21 type  1   force =     0.00000167    0.01119631  131.40827571
     atom   22 type  1   force =     0.00010399    0.04912440 -404.96415825
     atom   23 type  1   force =     0.00000056   -0.00768373  131.41079966
     atom   24 type  1   force =    -0.00000513   -0.05315952 -404.95637097
     atom   25 type  1   force =     0.00001062   -0.00666671  131.39118443
     atom   26 type  1   force =     0.00005403   -0.05589122 -405.04568766
     atom   27 type  1   force =     0.00000614    0.01005293  131.38656798
     atom   28 type  1   force =     0.00001513    0.04961467 -405.05510889
     atom   29 type  1   force =    -0.00000248    0.01118853  131.40831102
     atom   30 type  1   force =    -0.00010486    0.04912197 -404.96410870
     atom   31 type  1   force =     0.00000031   -0.00770059  131.41080970
     atom   32 type  1   force =     0.00000709   -0.05320818 -404.95627785
     The core correction contribution to forces
     atom    1 type  1   force =     0.00000000    0.00000000    0.00000000
     atom    2 type  1   force =     0.00000000    0.00000000    0.00000000
     atom    3 type  1   force =     0.00000000    0.00000000    0.00000000
     atom    4 type  1   force =     0.00000000    0.00000000    0.00000000
     atom    5 type  1   force =     0.00000000    0.00000000    0.00000000
     atom    6 type  1   force =     0.00000000    0.00000000    0.00000000
     atom    7 type  1   force =     0.00000000    0.00000000    0.00000000
     atom    8 type  1   force =     0.00000000    0.00000000    0.00000000
     atom    9 type  1   force =     0.00000000    0.00000000    0.00000000
     atom   10 type  1   force =     0.00000000    0.00000000    0.00000000
     atom   11 type  1   force =     0.00000000    0.00000000    0.00000000
     atom   12 type  1   force =     0.00000000    0.00000000    0.00000000
     atom   13 type  1   force =     0.00000000    0.00000000    0.00000000
     atom   14 type  1   force =     0.00000000    0.00000000    0.00000000
     atom   15 type  1   force =     0.00000000    0.00000000    0.00000000
     atom   16 type  1   force =     0.00000000    0.00000000    0.00000000
     atom   17 type  1   force =     0.00000000    0.00000000    0.00000000
     atom   18 type  1   force =     0.00000000    0.00000000    0.00000000
     atom   19 type  1   force =     0.00000000    0.00000000    0.00000000
     atom   20 type  1   force =     0.00000000    0.00000000    0.00000000
     atom   21 type  1   force =     0.00000000    0.00000000    0.00000000
     atom   22 type  1   force =     0.00000000    0.00000000    0.00000000
     atom   23 type  1   force =     0.00000000    0.00000000    0.00000000
     atom   24 type  1   force =     0.00000000    0.00000000    0.00000000
     atom   25 type  1   force =     0.00000000    0.00000000    0.00000000
     atom   26 type  1   force =     0.00000000    0.00000000    0.00000000
     atom   27 type  1   force =     0.00000000    0.00000000    0.00000000
     atom   28 type  1   force =     0.00000000    0.00000000    0.00000000
     atom   29 type  1   force =     0.00000000    0.00000000    0.00000000
     atom   30 type  1   force =     0.00000000    0.00000000    0.00000000
     atom   31 type  1   force =     0.00000000    0.00000000    0.00000000
     atom   32 type  1   force =     0.00000000    0.00000000    0.00000000
     The Hubbard contrib.    to forces
     atom    1 type  1   force =     0.00000000    0.00000000    0.00000000
     atom    2 type  1   force =     0.00000000    0.00000000    0.00000000
     atom    3 type  1   force =     0.00000000    0.00000000    0.00000000
     atom    4 type  1   force =     0.00000000    0.00000000    0.00000000
     atom    5 type  1   force =     0.00000000    0.00000000    0.00000000
     atom    6 type  1   force =     0.00000000    0.00000000    0.00000000
     atom    7 type  1   force =     0.00000000    0.00000000    0.00000000
     atom    8 type  1   force =     0.00000000    0.00000000    0.00000000
     atom    9 type  1   force =     0.00000000    0.00000000    0.00000000
     atom   10 type  1   force =     0.00000000    0.00000000    0.00000000
     atom   11 type  1   force =     0.00000000    0.00000000    0.00000000
     atom   12 type  1   force =     0.00000000    0.00000000    0.00000000
     atom   13 type  1   force =     0.00000000    0.00000000    0.00000000
     atom   14 type  1   force =     0.00000000    0.00000000    0.00000000
     atom   15 type  1   force =     0.00000000    0.00000000    0.00000000
     atom   16 type  1   force =     0.00000000    0.00000000    0.00000000
     atom   17 type  1   force =     0.00000000    0.00000000    0.00000000
     atom   18 type  1   force =     0.00000000    0.00000000    0.00000000
     atom   19 type  1   force =     0.00000000    0.00000000    0.00000000
     atom   20 type  1   force =     0.00000000    0.00000000    0.00000000
     atom   21 type  1   force =     0.00000000    0.00000000    0.00000000
     atom   22 type  1   force =     0.00000000    0.00000000    0.00000000
     atom   23 type  1   force =     0.00000000    0.00000000    0.00000000
     atom   24 type  1   force =     0.00000000    0.00000000    0.00000000
     atom   25 type  1   force =     0.00000000    0.00000000    0.00000000
     atom   26 type  1   force =     0.00000000    0.00000000    0.00000000
     atom   27 type  1   force =     0.00000000    0.00000000    0.00000000
     atom   28 type  1   force =     0.00000000    0.00000000    0.00000000
     atom   29 type  1   force =     0.00000000    0.00000000    0.00000000
     atom   30 type  1   force =     0.00000000    0.00000000    0.00000000
     atom   31 type  1   force =     0.00000000    0.00000000    0.00000000
     atom   32 type  1   force =     0.00000000    0.00000000    0.00000000
     The SCF correction term to forces
     atom    1 type  1   force =    -0.00000080    0.00014306   -0.00020979
     atom    2 type  1   force =     0.00000106    0.00017332   -0.00012951
     atom    3 type  1   force =    -0.00000016   -0.00053258   -0.00035777
     atom    4 type  1   force =    -0.00000055   -0.00065043   -0.00003271
     atom    5 type  1   force =    -0.00000012   -0.00013641   -0.00063778
     atom    6 type  1   force =     0.00000138   -0.00018340    0.00012910
     atom    7 type  1   force =     0.00000040    0.00052191   -0.00048765
     atom    8 type  1   force =     0.00000137    0.00067341    0.00004777
     atom    9 type  1   force =     0.00000075    0.00014254   -0.00020845
     atom   10 type  1   force =    -0.00000125    0.00017253   -0.00013094
     atom   11 type  1   force =     0.00000058   -0.00053232   -0.00035850
     atom   12 type  1   force =     0.00000090   -0.00065213   -0.00003290
     atom   13 type  1   force =     0.00000012   -0.00013686   -0.00063678
     atom   14 type  1   force =    -0.00000107   -0.00018466    0.00012882
     atom   15 type  1   force =    -0.00000059    0.00052325   -0.00048733
     atom   16 type  1   force =    -0.00000149    0.00067081    0.00004853
     atom   17 type  1   force =     0.00000198    0.00052731   -0.00037220
     atom   18 type  1   force =    -0.00000018    0.00024721    0.00016341
     atom   19 type  1   force =    -0.00000009   -0.00052484   -0.00037001
     atom   20 type  1   force =     0.00000005   -0.00023911    0.00016266
     atom   21 type  1   force =    -0.00000102   -0.00054325   -0.00043948
     atom   22 type  1   force =    -0.00000011   -0.00025307    0.00043458
     atom   23 type  1   force =     0.00000076    0.00054210   -0.00044234
     atom   24 type  1   force =     0.00000105    0.00024138    0.00043580
     atom   25 type  1   force =    -0.00000258    0.00052726   -0.00037258
     atom   26 type  1   force =    -0.00000017    0.00024709    0.00016429
     atom   27 type  1   force =    -0.00000040   -0.00052515   -0.00037061
     atom   28 type  1   force =    -0.00000047   -0.00023961    0.00016192
     atom   29 type  1   force =    -0.00000001   -0.00054355   -0.00043923
     atom   30 type  1   force =    -0.00000021   -0.00025329    0.00043487
     atom   31 type  1   force =    -0.00000133    0.00054169   -0.00044354
     atom   32 type  1   force =    -0.00000053    0.00024090    0.00043658

     Total force =     0.034377     Total SCF correction =     0.003121


     Computing stress (Cartesian axis) and pressure

          total   stress  (Ry/bohr**3)                   (kbar)     P=       -2.86
  -0.00009645  -0.00000000  -0.00000000          -14.19       -0.00       -0.00
  -0.00000000   0.00001787  -0.00000103           -0.00        2.63       -0.15
  -0.00000000  -0.00000103   0.00002022           -0.00       -0.15        2.97

     kinetic stress (kbar)  16599.64      0.00     -0.00
                                0.00  16618.71     -0.40
                               -0.00     -0.40  16705.66

     local   stress (kbar)**********      0.00      0.00
                                0.00**********     -8.65
                                0.00     -8.651524156.03

     nonloc. stress (kbar)  -1736.50     -0.00      0.00
                               -0.00  -1729.87     -0.20
                                0.00     -0.20  -1807.05

     hartree stress (kbar) 788820.07     -0.00     -0.00
                               -0.00 788848.63      3.21
                               -0.00      3.21-714683.80

     exc-cor stress (kbar)  -8376.09      0.00     -0.00
                                0.00  -8375.92     -0.01
                               -0.00     -0.01  -8387.92

     corecor stress (kbar)      0.00      0.00      0.00
                                0.00      0.00      0.00
                                0.00      0.00      0.00

     ewald   stress (kbar) 709358.22     -0.00     -0.00
                               -0.00 709380.83      5.90
                               -0.00      5.90-815979.94

     hubbard stress (kbar)      0.00      0.00      0.00
                                0.00      0.00      0.00
                                0.00      0.00      0.00

     DFT-D   stress (kbar)      0.00      0.00      0.00
                                0.00      0.00      0.00
                                0.00      0.00      0.00

     XDM     stress (kbar)      0.00      0.00      0.00
                                0.00      0.00      0.00
                                0.00      0.00      0.00

     dft-nl  stress (kbar)      0.00      0.00      0.00
                                0.00      0.00      0.00
                                0.00      0.00      0.00

     TS-vdW  stress (kbar)      0.00      0.00      0.00
                                0.00      0.00      0.00
                                0.00      0.00      0.00

     MDB     stress (kbar)      0.00      0.00      0.00
                                0.00      0.00      0.00
                                0.00      0.00      0.00

     3D-RISM stress (kbar)      0.00      0.00      0.00
                                0.00      0.00      0.00
                                0.00      0.00      0.00


     Writing all to output data dir ./tmp/Zn002_2x2x4_scf.save/ :
     XML data file, charge density, pseudopotentials, collected wavefunctions

     init_run     :     17.91s CPU     18.05s WALL (       1 calls)
     electrons    :    896.27s CPU    901.65s WALL (       1 calls)
     forces       :     16.72s CPU     16.83s WALL (       1 calls)
     stress       :     45.70s CPU     45.83s WALL (       1 calls)

     Called by init_run:
     wfcinit      :     17.61s CPU     17.72s WALL (       1 calls)
     wfcinit:atom :      0.03s CPU      0.03s WALL (       5 calls)
     wfcinit:wfcr :     17.29s CPU     17.39s WALL (       5 calls)
     potinit      :      0.02s CPU      0.03s WALL (       1 calls)
     hinit0       :      0.02s CPU      0.02s WALL (       1 calls)

     Called by electrons:
     c_bands      :    829.62s CPU    834.57s WALL (      13 calls)
     sum_band     :     63.84s CPU     64.22s WALL (      13 calls)
     v_of_rho     :      0.27s CPU      0.29s WALL (      13 calls)
     v_h          :      0.01s CPU      0.02s WALL (      13 calls)
     v_xc         :      0.25s CPU      0.27s WALL (      13 calls)
     newd         :      2.70s CPU      2.72s WALL (      13 calls)
     mix_rho      :      0.04s CPU      0.04s WALL (      13 calls)

     Called by c_bands:
     init_us_2    :      1.61s CPU      1.61s WALL (     145 calls)
     cegterg      :    826.76s CPU    831.67s WALL (      65 calls)

     Called by sum_band:
     sum_band:wei :      0.02s CPU      0.02s WALL (      13 calls)
     sum_band:loo :     61.79s CPU     62.15s WALL (      13 calls)
     sum_band:buf :      0.25s CPU      0.26s WALL (      65 calls)
     sum_band:ini :      0.71s CPU      0.71s WALL (      65 calls)
     sum_band:cal :     50.23s CPU     50.50s WALL (      65 calls)
     sum_band:bec :      0.57s CPU      0.57s WALL (      65 calls)
     addusdens    :      1.96s CPU      1.97s WALL (      13 calls)
                                        0.00s GPU  (      13 calls)
     addusd:skk   :      0.02s CPU      0.02s WALL (      13 calls)
                                        0.00s GPU  (      13 calls)

     Called by *egterg:
     cdiaghg      :     81.35s CPU     83.12s WALL (     387 calls)
     cegterg:over :    132.42s CPU    132.94s WALL (     327 calls)
     cegterg:upda :     48.21s CPU     48.39s WALL (     327 calls)
     cegterg:last :    173.95s CPU    174.76s WALL (     130 calls)
     cdiaghg:chol :      4.99s CPU      5.01s WALL (     387 calls)
     cdiaghg:inve :      1.11s CPU      1.11s WALL (     387 calls)
     cdiaghg:para :     21.69s CPU     22.26s WALL (     774 calls)
     h_psi        :    272.68s CPU    273.99s WALL (     397 calls)
     s_psi        :    102.03s CPU    102.28s WALL (     397 calls)
     g_psi        :      0.23s CPU      0.23s WALL (     327 calls)

     Called by h_psi:
     h_psi:calbec :    120.66s CPU    121.33s WALL (     397 calls)
     vloc_psi     :     48.04s CPU     48.42s WALL (     397 calls)
     add_vuspsi   :    103.36s CPU    103.62s WALL (     397 calls)

     General routines
     calbec       :    190.82s CPU    191.87s WALL (     487 calls)
     fft          :      0.16s CPU      0.19s WALL (     152 calls)
     ffts         :      0.01s CPU      0.01s WALL (      13 calls)
     fftw         :     53.98s CPU     54.42s WALL (  144780 calls)

     Parallel routines

     PWSCF        :  16m17.21s CPU  16m25.31s WALL


   This run was terminated on:  17:21: 6  16Mar2025            

=------------------------------------------------------------------------------=
   JOB DONE.
=------------------------------------------------------------------------------=
Note: The following floating-point exceptions are signalling: IEEE_DENORMAL
Note: The following floating-point exceptions are signalling: IEEE_DENORMAL
Note: The following floating-point exceptions are signalling: IEEE_DENORMAL
Note: The following floating-point exceptions are signalling: IEEE_DENORMAL
Note: The following floating-point exceptions are signalling: IEEE_DENORMAL
