--------------------------------------------------------------------------
By default, for Open MPI 4.0 and later, infiniband ports on a device
are not used by default.  The intent is to use UCX for these devices.
You can override this policy by setting the btl_openib_allow_ib MCA parameter
to true.

  Local host:              psid04
  Local adapter:           mlx5_0
  Local port:              1

--------------------------------------------------------------------------
--------------------------------------------------------------------------
WARNING: There was an error initializing an OpenFabrics device.

  Local host:   psid04
  Local device: mlx5_0
--------------------------------------------------------------------------

     Program PWSCF v.7.3.1 starts on 15Mar2025 at 21:46:43 

     This program is part of the open-source Quantum ESPRESSO suite
     for quantum simulation of materials; please cite
         "P. Giannozzi et al., J. Phys.:Condens. Matter 21 395502 (2009);
         "P. Giannozzi et al., J. Phys.:Condens. Matter 29 465901 (2017);
         "P. Giannozzi et al., J. Chem. Phys. 152 154105 (2020);
          URL http://www.quantum-espresso.org", 
     in publications or presentations arising from this work. More details at
     http://www.quantum-espresso.org/quote

     Parallel version (MPI), running on    30 processors

     MPI processes distributed on     1 nodes
     116948 MiB available memory on the printing compute node when the environment starts

     Waiting for input...
     Reading input from standard input
Warning: card &CELL ignored
Warning: card   CELL_DOFREE = 'ALL' ignored
Warning: card / ignored

     Current dimensions of program PWSCF are:
     Max number of different atomic species (ntypx) = 10
     Max number of k-points (npk) =  40000
     Max angular momentum in pseudopotentials (lmaxx) =  4
     Found identity + ( -0.0000 -0.5000  0.0000) symmetry
     This is a supercell, fractional translations are disabled

     R & G space division:  proc/nbgrp/npool/nimage =      30
     Subspace diagonalization in iterative solution of the eigenvalue problem:
     one sub-group per band group will be used
     custom distributed-memory algorithm (size of sub-group:  4*  4 procs)


     Parallelization info
     --------------------
     sticks:   dense  smooth     PW     G-vecs:    dense   smooth      PW
     Min         106     106     29                13405    13405    1989
     Max         107     107     30                13417    13417    2005
     Sum        3193    3193    887               402277   402277   59871

     Using Slab Decomposition



     bravais-lattice index     =            0
     lattice parameter (alat)  =      20.9009  a.u.
     unit-cell volume          =    8423.3755 (a.u.)^3
     number of atoms/cell      =           32
     number of atomic types    =            1
     number of electrons       =       640.00
     number of Kohn-Sham states=          384
     kinetic-energy cutoff     =      50.0000  Ry
     charge density cutoff     =     200.0000  Ry
     scf convergence threshold =      7.3E-07
     mixing beta               =       0.7000
     number of iterations used =            8  plain     mixing
     Exchange-correlation= SLA  PW   PBE  PBE
                           (   1   4   3   4   0   0   0)

     celldm(1)=  20.900943  celldm(2)=   0.000000  celldm(3)=   0.000000
     celldm(4)=   0.000000  celldm(5)=   0.000000  celldm(6)=   0.000000

     crystal axes: (cart. coord. in units of alat)
               a(1) = (   1.000000   0.000000   0.000000 )  
               a(2) = (  -0.111745   0.459350   0.000000 )  
               a(3) = (  -4.200249  -1.021781   2.008375 )  

     reciprocal axes: (cart. coord. in units 2 pi/alat)
               b(1) = (  1.000000  0.243267  2.215131 )  
               b(2) = ( -0.000000  2.176989  1.107566 )  
               b(3) = (  0.000000 -0.000000  0.497915 )  


     PseudoPot. # 1 for Zn read from file:
     /home/ys/qepseudo/SSSP_1.3.0_PBE_efficiency/Zn_pbe_v1.uspp.F.UPF
     MD5 check sum: df62231357ef9e81f77b2b3087fa5675
     Pseudo is Ultrasoft, Zval = 20.0
     Generated by new atomic code, or converted to UPF format
     Using radial grid of  943 points,  6 beta functions with: 
                l(1) =   0
                l(2) =   0
                l(3) =   1
                l(4) =   1
                l(5) =   2
                l(6) =   2
     Q(r) pseudized with  8 coefficients,  rinner =    1.100   1.100   1.100
                                                       1.100   1.100

     atomic species   valence    mass     pseudopotential
     Zn               20.00    65.38000     Zn( 1.00)

     No symmetry found


                                    s                        frac. trans.

      isym =  1     identity                                     

 cryst.   s( 1) = (     1          0          0      )
                  (     0          1          0      )
                  (     0          0          1      )

 cart.    s( 1) = (  1.0000000  0.0000000  0.0000000 )
                  (  0.0000000  1.0000000  0.0000000 )
                  (  0.0000000  0.0000000  1.0000000 )


   Cartesian axes

     site n.     atom                  positions (alat units)
         1        Zn     tau(   1) = (  -0.0970639   0.0980210   0.1082939  )
         2        Zn     tau(   2) = (  -0.4853192   0.0035714   0.2939406  )
         3        Zn     tau(   3) = (  -0.8769917  -0.0917049   0.5109583  )
         4        Zn     tau(   4) = (  -1.2393182  -0.1798545   0.7015996  )
         5        Zn     tau(   5) = (  -0.1529362   0.3276960   0.1082939  )
         6        Zn     tau(   6) = (  -0.5411916   0.2332464   0.2939406  )
         7        Zn     tau(   7) = (  -0.9328639   0.1379701   0.5109582  )
         8        Zn     tau(   8) = (  -1.2951904   0.0498206   0.7015996  )
         9        Zn     tau(   9) = (   0.4029361   0.0980210   0.1082939  )
        10        Zn     tau(  10) = (   0.0146808   0.0035714   0.2939406  )
        11        Zn     tau(  11) = (  -0.3769696  -0.0917006   0.5109946  )
        12        Zn     tau(  12) = (  -0.7392709  -0.1798442   0.7014624  )
        13        Zn     tau(  13) = (   0.3470638   0.3276960   0.1082939  )
        14        Zn     tau(  14) = (  -0.0411916   0.2332464   0.2939406  )
        15        Zn     tau(  15) = (  -0.4328420   0.1379744   0.5109946  )
        16        Zn     tau(  16) = (  -0.7951433   0.0498308   0.7014623  )
        17        Zn     tau(  17) = (   0.1529362   0.0372043   0.0773528  )
        18        Zn     tau(  18) = (  -0.2353192  -0.0572454   0.2629995  )
        19        Zn     tau(  19) = (  -0.6308270  -0.1534546   0.4612477  )
        20        Zn     tau(  20) = (  -1.0069581  -0.2449548   0.6661801  )
        21        Zn     tau(  21) = (   0.0970639   0.2668793   0.0773528  )
        22        Zn     tau(  22) = (  -0.2911915   0.1724296   0.2629995  )
        23        Zn     tau(  23) = (  -0.6866993   0.0762204   0.4612476  )
        24        Zn     tau(  24) = (  -1.0628305  -0.0152798   0.6661801  )
        25        Zn     tau(  25) = (   0.6529362   0.0372043   0.0773528  )
        26        Zn     tau(  26) = (   0.2646808  -0.0572454   0.2629995  )
        27        Zn     tau(  27) = (  -0.1308842  -0.1534678   0.4614336  )
        28        Zn     tau(  28) = (  -0.5069835  -0.2449613   0.6658686  )
        29        Zn     tau(  29) = (   0.5970639   0.2668793   0.0773528  )
        30        Zn     tau(  30) = (   0.2088085   0.1724296   0.2629995  )
        31        Zn     tau(  31) = (  -0.1867564   0.0762073   0.4614335  )
        32        Zn     tau(  32) = (  -0.5628557  -0.0152862   0.6658686  )

   Crystallographic axes

     site n.     atom                  positions (cryst. coord.)
         1        Zn     tau(   1) = (  0.1666667  0.3333333  0.0539212  )
         2        Zn     tau(   2) = (  0.1666667  0.3333333  0.1463574  )
         3        Zn     tau(   3) = (  0.2325393  0.3662792  0.2544138  )
         4        Zn     tau(   4) = (  0.2710645  0.3855263  0.3493370  )
         5        Zn     tau(   5) = (  0.1666667  0.8333333  0.0539212  )
         6        Zn     tau(   6) = (  0.1666667  0.8333333  0.1463574  )
         7        Zn     tau(   7) = (  0.2325392  0.8662792  0.2544138  )
         8        Zn     tau(   8) = (  0.2710644  0.8855263  0.3493369  )
         9        Zn     tau(   9) = (  0.6666667  0.3333333  0.0539212  )
        10        Zn     tau(  10) = (  0.6666667  0.3333333  0.1463574  )
        11        Zn     tau(  11) = (  0.7326429  0.3663288  0.2544319  )
        12        Zn     tau(  12) = (  0.7708103  0.3853967  0.3492686  )
        13        Zn     tau(  13) = (  0.6666667  0.8333333  0.0539212  )
        14        Zn     tau(  14) = (  0.6666667  0.8333333  0.1463574  )
        15        Zn     tau(  15) = (  0.7326428  0.8663287  0.2544319  )
        16        Zn     tau(  16) = (  0.7708101  0.8853967  0.3492686  )
        17        Zn     tau(  17) = (  0.3333333  0.1666667  0.0385151  )
        18        Zn     tau(  18) = (  0.3333333  0.1666667  0.1309514  )
        19        Zn     tau(  19) = (  0.3535668  0.1767931  0.2296621  )
        20        Zn     tau(  20) = (  0.4091289  0.2045741  0.3317010  )
        21        Zn     tau(  21) = (  0.3333333  0.6666667  0.0385151  )
        22        Zn     tau(  22) = (  0.3333333  0.6666667  0.1309514  )
        23        Zn     tau(  23) = (  0.3535667  0.6767931  0.2296621  )
        24        Zn     tau(  24) = (  0.4091288  0.7045741  0.3317010  )
        25        Zn     tau(  25) = (  0.8333333  0.1666667  0.0385151  )
        26        Zn     tau(  26) = (  0.8333333  0.1666667  0.1309514  )
        27        Zn     tau(  27) = (  0.8539182  0.1769702  0.2297547  )
        28        Zn     tau(  28) = (  0.9084121  0.2042151  0.3315460  )
        29        Zn     tau(  29) = (  0.8333333  0.6666667  0.0385151  )
        30        Zn     tau(  30) = (  0.8333333  0.6666667  0.1309514  )
        31        Zn     tau(  31) = (  0.8539181  0.6769702  0.2297547  )
        32        Zn     tau(  32) = (  0.9084121  0.7042152  0.3315460  )

     number of k points=     5  Marzari-Vanderbilt smearing, width (Ry)=  0.0200
                       cart. coord. in units 2pi/alat
        k(    1) = (   0.0000000   0.0000000   0.0000000), wk =   0.2222222
        k(    2) = (   0.0000000   0.7256631   0.3691885), wk =   0.4444444
        k(    3) = (   0.3333333   0.0810890   0.7383771), wk =   0.4444444
        k(    4) = (   0.3333333   0.8067520   1.1075656), wk =   0.4444444
        k(    5) = (   0.3333333  -0.6445741   0.3691886), wk =   0.4444444

                       cryst. coord.
        k(    1) = (   0.0000000   0.0000000   0.0000000), wk =   0.2222222
        k(    2) = (   0.0000000   0.3333333  -0.0000000), wk =   0.4444444
        k(    3) = (   0.3333333   0.0000000   0.0000000), wk =   0.4444444
        k(    4) = (   0.3333333   0.3333333   0.0000000), wk =   0.4444444
        k(    5) = (   0.3333333  -0.3333333   0.0000000), wk =   0.4444444

     Dense  grid:   402277 G-vectors     FFT dimensions: (  96,  45, 450)

     Dynamical RAM for                 wfc:       9.82 MB

     Dynamical RAM for     wfc (w. buffer):      58.92 MB

     Dynamical RAM for           str. fact:       0.20 MB

     Dynamical RAM for           local pot:       0.00 MB

     Dynamical RAM for          nlocal pot:      14.73 MB

     Dynamical RAM for                qrad:       1.14 MB

     Dynamical RAM for          rho,v,vnew:       2.10 MB

     Dynamical RAM for               rhoin:       0.70 MB

     Dynamical RAM for            rho*nmix:       3.27 MB

     Dynamical RAM for           G-vectors:       0.87 MB

     Dynamical RAM for          h,s,v(r/c):       1.69 MB

     Dynamical RAM for          <psi|beta>:       3.38 MB

     Dynamical RAM for                 psi:      19.64 MB

     Dynamical RAM for                hpsi:      19.64 MB

     Dynamical RAM for                spsi:      19.64 MB

     Dynamical RAM for      wfcinit/wfcrot:      25.24 MB

     Dynamical RAM for           addusdens:      44.60 MB

     Dynamical RAM for          addusforce:      57.51 MB

     Dynamical RAM for         addusstress:      41.12 MB

     Estimated static dynamical RAM per process >      81.54 MB

     Estimated max dynamical RAM per process >     148.80 MB

     Estimated total dynamical RAM >       4.36 GB

     Initial potential from superposition of free atoms

     starting charge     639.9955, renormalised to     640.0000

     negative rho (up, down):  5.113E-03 0.000E+00
     Starting wfcs are  416 randomized atomic wfcs
[psid04:267091] 29 more processes have sent help message help-mpi-btl-openib.txt / ib port not selected
[psid04:267091] Set MCA parameter "orte_base_help_aggregate" to 0 to see all help / error messages
[psid04:267091] 29 more processes have sent help message help-mpi-btl-openib.txt / error in device init

     total cpu time spent up to now is       22.5 secs

     Self-consistent Calculation

     iteration #  1     ecut=    50.00 Ry     beta= 0.70
     Davidson diagonalization with overlap

---- Real-time Memory Report at c_bands before calling an iterative solver
           126 MiB given to the printing process from OS
             0 MiB allocation reported by mallinfo(arena+hblkhd)
        114203 MiB available memory on the node where the printing process lives
------------------
     ethr =  1.00E-02,  avg # of iterations =  7.6

     Threshold (ethr) on eigenvalues was too large:
     Diagonalizing with lowered threshold

     Davidson diagonalization with overlap

---- Real-time Memory Report at c_bands before calling an iterative solver
           175 MiB given to the printing process from OS
             0 MiB allocation reported by mallinfo(arena+hblkhd)
        113467 MiB available memory on the node where the printing process lives
------------------
     ethr =  1.38E-04,  avg # of iterations =  4.0

     negative rho (up, down):  4.302E-03 0.000E+00

     total cpu time spent up to now is      192.2 secs

     total energy              =  -14768.92265163 Ry
     estimated scf accuracy    <       0.89683342 Ry

     iteration #  2     ecut=    50.00 Ry     beta= 0.70
     Davidson diagonalization with overlap

---- Real-time Memory Report at c_bands before calling an iterative solver
           176 MiB given to the printing process from OS
             0 MiB allocation reported by mallinfo(arena+hblkhd)
        113465 MiB available memory on the node where the printing process lives
------------------
     ethr =  1.40E-04,  avg # of iterations =  4.0

     negative rho (up, down):  4.294E-03 0.000E+00

     total cpu time spent up to now is      305.3 secs

     total energy              =  -14768.49907810 Ry
     estimated scf accuracy    <       3.91553219 Ry

     iteration #  3     ecut=    50.00 Ry     beta= 0.70
     Davidson diagonalization with overlap

---- Real-time Memory Report at c_bands before calling an iterative solver
           178 MiB given to the printing process from OS
             0 MiB allocation reported by mallinfo(arena+hblkhd)
        113373 MiB available memory on the node where the printing process lives
------------------
     ethr =  1.40E-04,  avg # of iterations =  9.0

     negative rho (up, down):  4.218E-03 0.000E+00

     total cpu time spent up to now is      408.4 secs

     total energy              =  -14767.99617031 Ry
     estimated scf accuracy    <      27.76901725 Ry

     iteration #  4     ecut=    50.00 Ry     beta= 0.70
     Davidson diagonalization with overlap

---- Real-time Memory Report at c_bands before calling an iterative solver
           179 MiB given to the printing process from OS
             0 MiB allocation reported by mallinfo(arena+hblkhd)
        113360 MiB available memory on the node where the printing process lives
------------------
     ethr =  1.40E-04,  avg # of iterations =  8.2

     negative rho (up, down):  4.130E-03 0.000E+00

     total cpu time spent up to now is      492.2 secs

     total energy              =  -14769.30375145 Ry
     estimated scf accuracy    <       0.12112702 Ry

     iteration #  5     ecut=    50.00 Ry     beta= 0.70
     Davidson diagonalization with overlap

---- Real-time Memory Report at c_bands before calling an iterative solver
           179 MiB given to the printing process from OS
             0 MiB allocation reported by mallinfo(arena+hblkhd)
        113348 MiB available memory on the node where the printing process lives
------------------
     ethr =  1.89E-05,  avg # of iterations = 14.2

     negative rho (up, down):  4.074E-03 0.000E+00

     total cpu time spent up to now is      587.2 secs

     total energy              =  -14769.31339636 Ry
     estimated scf accuracy    <       0.35319658 Ry

     iteration #  6     ecut=    50.00 Ry     beta= 0.70
     Davidson diagonalization with overlap

---- Real-time Memory Report at c_bands before calling an iterative solver
           179 MiB given to the printing process from OS
             0 MiB allocation reported by mallinfo(arena+hblkhd)
        113339 MiB available memory on the node where the printing process lives
------------------
     ethr =  1.89E-05,  avg # of iterations =  8.0

     negative rho (up, down):  4.076E-03 0.000E+00

     total cpu time spent up to now is      667.6 secs

     total energy              =  -14769.34645176 Ry
     estimated scf accuracy    <       0.00281490 Ry

     iteration #  7     ecut=    50.00 Ry     beta= 0.70
     Davidson diagonalization with overlap

---- Real-time Memory Report at c_bands before calling an iterative solver
           180 MiB given to the printing process from OS
             0 MiB allocation reported by mallinfo(arena+hblkhd)
        113326 MiB available memory on the node where the printing process lives
------------------
     ethr =  4.40E-07,  avg # of iterations = 13.4

     negative rho (up, down):  4.079E-03 0.000E+00

     total cpu time spent up to now is      768.0 secs

     total energy              =  -14769.34700086 Ry
     estimated scf accuracy    <       0.00041804 Ry

     iteration #  8     ecut=    50.00 Ry     beta= 0.70
     Davidson diagonalization with overlap

---- Real-time Memory Report at c_bands before calling an iterative solver
           180 MiB given to the printing process from OS
             0 MiB allocation reported by mallinfo(arena+hblkhd)
        113314 MiB available memory on the node where the printing process lives
------------------
     ethr =  6.53E-08,  avg # of iterations =  2.2

     negative rho (up, down):  4.082E-03 0.000E+00

     total cpu time spent up to now is      840.4 secs

     total energy              =  -14769.34704376 Ry
     estimated scf accuracy    <       0.00006146 Ry

     iteration #  9     ecut=    50.00 Ry     beta= 0.70
     Davidson diagonalization with overlap

---- Real-time Memory Report at c_bands before calling an iterative solver
           181 MiB given to the printing process from OS
             0 MiB allocation reported by mallinfo(arena+hblkhd)
        113288 MiB available memory on the node where the printing process lives
------------------
     ethr =  9.60E-09,  avg # of iterations =  2.0

     negative rho (up, down):  4.083E-03 0.000E+00

     total cpu time spent up to now is      923.4 secs

     total energy              =  -14769.34704119 Ry
     estimated scf accuracy    <       0.00012917 Ry

     iteration # 10     ecut=    50.00 Ry     beta= 0.70
     Davidson diagonalization with overlap

---- Real-time Memory Report at c_bands before calling an iterative solver
           181 MiB given to the printing process from OS
             0 MiB allocation reported by mallinfo(arena+hblkhd)
        113275 MiB available memory on the node where the printing process lives
------------------
     ethr =  9.60E-09,  avg # of iterations =  2.0

     negative rho (up, down):  4.084E-03 0.000E+00

     total cpu time spent up to now is      993.5 secs

     total energy              =  -14769.34705624 Ry
     estimated scf accuracy    <       0.00004147 Ry

     iteration # 11     ecut=    50.00 Ry     beta= 0.70
     Davidson diagonalization with overlap

---- Real-time Memory Report at c_bands before calling an iterative solver
           182 MiB given to the printing process from OS
             0 MiB allocation reported by mallinfo(arena+hblkhd)
        113266 MiB available memory on the node where the printing process lives
------------------
     ethr =  6.48E-09,  avg # of iterations =  2.0

     negative rho (up, down):  4.084E-03 0.000E+00

     total cpu time spent up to now is     1064.4 secs

     total energy              =  -14769.34706090 Ry
     estimated scf accuracy    <       0.00000239 Ry

     iteration # 12     ecut=    50.00 Ry     beta= 0.70
     Davidson diagonalization with overlap

---- Real-time Memory Report at c_bands before calling an iterative solver
           183 MiB given to the printing process from OS
             0 MiB allocation reported by mallinfo(arena+hblkhd)
        113267 MiB available memory on the node where the printing process lives
------------------
     ethr =  3.73E-10,  avg # of iterations =  2.0

     negative rho (up, down):  4.085E-03 0.000E+00

     total cpu time spent up to now is     1145.9 secs

     total energy              =  -14769.34706110 Ry
     estimated scf accuracy    <       0.00000232 Ry

     iteration # 13     ecut=    50.00 Ry     beta= 0.70
     Davidson diagonalization with overlap

---- Real-time Memory Report at c_bands before calling an iterative solver
           183 MiB given to the printing process from OS
             0 MiB allocation reported by mallinfo(arena+hblkhd)
        113266 MiB available memory on the node where the printing process lives
------------------
     ethr =  3.63E-10,  avg # of iterations =  2.0

     negative rho (up, down):  4.085E-03 0.000E+00

     total cpu time spent up to now is     1217.7 secs

     total energy              =  -14769.34706125 Ry
     estimated scf accuracy    <       0.00000266 Ry

     iteration # 14     ecut=    50.00 Ry     beta= 0.70
     Davidson diagonalization with overlap

---- Real-time Memory Report at c_bands before calling an iterative solver
           183 MiB given to the printing process from OS
             0 MiB allocation reported by mallinfo(arena+hblkhd)
        113264 MiB available memory on the node where the printing process lives
------------------
     ethr =  3.63E-10,  avg # of iterations =  1.0

     negative rho (up, down):  4.085E-03 0.000E+00

     total cpu time spent up to now is     1278.5 secs

     total energy              =  -14769.34706143 Ry
     estimated scf accuracy    <       0.00000101 Ry

     iteration # 15     ecut=    50.00 Ry     beta= 0.70
     Davidson diagonalization with overlap

---- Real-time Memory Report at c_bands before calling an iterative solver
           183 MiB given to the printing process from OS
             0 MiB allocation reported by mallinfo(arena+hblkhd)
        113263 MiB available memory on the node where the printing process lives
------------------
     ethr =  1.58E-10,  avg # of iterations =  1.2

     negative rho (up, down):  4.085E-03 0.000E+00

     total cpu time spent up to now is     1341.0 secs

     End of self-consistent calculation

          k = 0.0000 0.0000 0.0000 ( 50243 PWs)   bands (ev):

  -124.0408-124.0403-124.0390-124.0386-123.9769-123.9761-123.9751-123.9744
  -123.8621-123.8610-123.8604-123.8592-123.8382-123.8381-123.8364-123.8364
  -123.8200-123.8182-123.8181-123.8163-123.6682-123.6664-123.6660-123.6642
  -123.6563-123.6560-123.6545-123.6543-123.5098-123.5095-123.5080-123.5077
   -78.2102 -78.2097 -78.1901 -78.1895 -78.1879 -78.1874 -78.1863 -78.1858
   -78.1856 -78.1851 -78.1841 -78.1837 -78.1468 -78.1460 -78.1311 -78.1304
   -78.1290 -78.1283 -78.1223 -78.1215 -78.1215 -78.1208 -78.1194 -78.1186
   -78.0291 -78.0279 -78.0148 -78.0136 -78.0128 -78.0117 -78.0107 -78.0095
   -78.0088 -78.0076 -78.0048 -78.0036 -78.0002 -78.0002 -77.9988 -77.9987
   -77.9987 -77.9987 -77.9876 -77.9857 -77.9848 -77.9847 -77.9829 -77.9828
   -77.9746 -77.9746 -77.9719 -77.9700 -77.9700 -77.9681 -77.9662 -77.9643
   -77.9642 -77.9634 -77.9624 -77.9615 -77.8303 -77.8281 -77.8274 -77.8255
   -77.8252 -77.8233 -77.8204 -77.8202 -77.8186 -77.8183 -77.8170 -77.8150
   -77.8148 -77.8128 -77.8101 -77.8098 -77.8084 -77.8083 -77.8082 -77.8080
   -77.8060 -77.8037 -77.7842 -77.7839 -77.6800 -77.6797 -77.6782 -77.6779
   -77.6622 -77.6619 -77.6604 -77.6600 -77.6586 -77.6583 -77.6344 -77.6341
    -7.2614  -6.2668  -6.2405  -6.1293  -5.7702  -5.7297  -5.6668  -5.6650
    -5.6310  -5.6299  -5.6261  -5.6215  -5.5595  -5.5594  -5.5134  -5.5128
    -5.4643  -5.4640  -5.4617  -5.4574  -5.4516  -5.4422  -5.4422  -5.4385
    -5.3601  -5.3566  -5.3436  -5.3428  -5.3143  -5.3141  -5.3021  -5.2564
    -5.2549  -5.2540  -5.2353  -5.2092  -5.2085  -5.1575  -5.1567  -5.1467
    -5.1397  -5.1301  -5.1281  -5.0856  -5.0824  -5.0814  -5.0788  -5.0524
    -5.0464  -5.0225  -5.0175  -5.0175  -5.0175  -4.9862  -4.9774  -4.9700
    -4.9699  -4.9385  -4.9054  -4.9053  -4.8829  -4.8829  -4.8815  -4.8606
    -4.8561  -4.8428  -4.8400  -4.8314  -4.8311  -4.8207  -4.8174  -4.7914
    -4.7803  -4.7799  -4.7749  -4.7527  -4.7312  -4.7278  -4.7163  -4.7160
    -4.7051  -4.6586  -4.6586  -4.6492  -4.6388  -4.6356  -4.6356  -4.6326
    -4.6201  -4.6036  -4.5985  -4.5984  -4.5806  -4.5779  -4.5532  -4.5532
    -4.5321  -4.5154  -4.5154  -4.5149  -4.5036  -4.5006  -4.4985  -4.4846
    -4.4837  -4.4835  -4.4812  -4.4767  -4.4765  -4.4701  -4.4637  -4.4378
    -4.4353  -4.4318  -4.4318  -4.4262  -4.4099  -4.4063  -4.4062  -4.3967
    -4.3964  -4.3952  -4.3944  -4.3713  -4.3710  -4.3625  -4.3459  -4.3457
    -4.3284  -4.3157  -4.3140  -4.3139  -4.3117  -4.3040  -4.2959  -4.2878
    -4.2876  -4.2544  -4.2540  -4.2478  -4.2454  -4.2452  -4.2304  -4.2262
    -4.2194  -4.2032  -4.2026  -4.1963  -4.1962  -4.1931  -4.1760  -4.1758
    -4.1570  -4.1520  -4.0739  -4.0734  -4.0718  -4.0684  -4.0610  -4.0608
    -4.0195  -4.0182  -3.9951  -3.9294  -3.9290  -3.8429  -3.3967  -2.2900
    -1.8942  -1.2778  -1.1848  -0.8075  -0.6645  -0.6635  -0.5320  -0.5307
    -0.2237  -0.0825   0.2485   0.3495   0.3501   0.4543   0.4556   0.5522
     1.3242   1.4163   1.4164   1.8096   2.0605   2.0608   2.2054   2.2058
     2.2764   2.6155   2.6160   2.7081   3.1734   3.3855   3.3856   3.7454
     3.7457   3.8761   4.7700   4.7717   4.7906   4.8527   4.8891   4.8914
     5.0029   5.0040   5.3438   5.4638   5.5235   5.7266   5.7282   6.1020
     6.1565   6.5769   6.6748   6.8226   6.8227   7.0516   7.0561   7.3733
     7.4065   7.4068   7.4967   7.4973   7.5577   7.5586   7.7014   7.7390
     7.7770   7.8675   7.9335   7.9416   7.9420   8.2371   8.2375   8.7516
     8.7518   8.7785   9.1104   9.2080   9.2265   9.2819   9.5106   9.5112
     9.5244   9.6365   9.6912   9.7153  10.0059  10.0075  10.2704  10.2721

     occupation numbers 
     1.0000   1.0000   1.0000   1.0000   1.0000   1.0000   1.0000   1.0000
     1.0000   1.0000   1.0000   1.0000   1.0000   1.0000   1.0000   1.0000
     1.0000   1.0000   1.0000   1.0000   1.0000   1.0000   1.0000   1.0000
     1.0000   1.0000   1.0000   1.0000   1.0000   1.0000   1.0000   1.0000
     1.0000   1.0000   1.0000   1.0000   1.0000   1.0000   1.0000   1.0000
     1.0000   1.0000   1.0000   1.0000   1.0000   1.0000   1.0000   1.0000
     1.0000   1.0000   1.0000   1.0000   1.0000   1.0000   1.0000   1.0000
     1.0000   1.0000   1.0000   1.0000   1.0000   1.0000   1.0000   1.0000
     1.0000   1.0000   1.0000   1.0000   1.0000   1.0000   1.0000   1.0000
     1.0000   1.0000   1.0000   1.0000   1.0000   1.0000   1.0000   1.0000
     1.0000   1.0000   1.0000   1.0000   1.0000   1.0000   1.0000   1.0000
     1.0000   1.0000   1.0000   1.0000   1.0000   1.0000   1.0000   1.0000
     1.0000   1.0000   1.0000   1.0000   1.0000   1.0000   1.0000   1.0000
     1.0000   1.0000   1.0000   1.0000   1.0000   1.0000   1.0000   1.0000
     1.0000   1.0000   1.0000   1.0000   1.0000   1.0000   1.0000   1.0000
     1.0000   1.0000   1.0000   1.0000   1.0000   1.0000   1.0000   1.0000
     1.0000   1.0000   1.0000   1.0000   1.0000   1.0000   1.0000   1.0000
     1.0000   1.0000   1.0000   1.0000   1.0000   1.0000   1.0000   1.0000
     1.0000   1.0000   1.0000   1.0000   1.0000   1.0000   1.0000   1.0000
     1.0000   1.0000   1.0000   1.0000   1.0000   1.0000   1.0000   1.0000
     1.0000   1.0000   1.0000   1.0000   1.0000   1.0000   1.0000   1.0000
     1.0000   1.0000   1.0000   1.0000   1.0000   1.0000   1.0000   1.0000
     1.0000   1.0000   1.0000   1.0000   1.0000   1.0000   1.0000   1.0000
     1.0000   1.0000   1.0000   1.0000   1.0000   1.0000   1.0000   1.0000
     1.0000   1.0000   1.0000   1.0000   1.0000   1.0000   1.0000   1.0000
     1.0000   1.0000   1.0000   1.0000   1.0000   1.0000   1.0000   1.0000
     1.0000   1.0000   1.0000   1.0000   1.0000   1.0000   1.0000   1.0000
     1.0000   1.0000   1.0000   1.0000   1.0000   1.0000   1.0000   1.0000
     1.0000   1.0000   1.0000   1.0000   1.0000   1.0000   1.0000   1.0000
     1.0000   1.0000   1.0000   1.0000   1.0000   1.0000   1.0000   1.0000
     1.0000   1.0000   1.0000   1.0000   1.0000   1.0000   1.0000   1.0000
     1.0000   1.0000   1.0000   1.0000   1.0000   1.0000   1.0000   1.0000
     1.0000   1.0000   1.0000   1.0000   1.0000   1.0000   1.0000   1.0000
     1.0000   1.0000   1.0000   1.0000   1.0000   1.0000   1.0000   1.0000
     1.0000   1.0000   1.0000   1.0000   1.0000   1.0000   1.0000   1.0000
     1.0000   1.0000   1.0000   1.0000   1.0000   1.0000   1.0000   1.0000
     1.0000   1.0000   1.0000   1.0000   1.0000   1.0000   1.0000   1.0000
     1.0000   1.0000   1.0000   1.0000   1.0000   1.0000   1.0000   1.0000
     1.0000   1.0000   1.0000   1.0000   1.0000   1.0000   1.0000   1.0000
     1.0000   1.0000   1.0000   1.0061   1.0661   1.0662   1.0697   1.0695
     1.0057   0.2172   0.2162   0.0908   0.0000   0.0000   0.0000   0.0000
     0.0000   0.0000   0.0000   0.0000   0.0000   0.0000   0.0000   0.0000
     0.0000   0.0000   0.0000   0.0000   0.0000   0.0000   0.0000   0.0000
     0.0000   0.0000   0.0000   0.0000   0.0000   0.0000   0.0000   0.0000
     0.0000   0.0000   0.0000   0.0000   0.0000   0.0000   0.0000   0.0000
     0.0000   0.0000   0.0000   0.0000   0.0000   0.0000   0.0000   0.0000
     0.0000   0.0000   0.0000   0.0000   0.0000   0.0000   0.0000   0.0000
     0.0000   0.0000   0.0000   0.0000   0.0000   0.0000   0.0000   0.0000

          k = 0.0000 0.7257 0.3692 ( 50308 PWs)   bands (ev):

  -124.0404-124.0399-124.0395-124.0390-123.9764-123.9757-123.9755-123.9748
  -123.8617-123.8608-123.8605-123.8596-123.8377-123.8377-123.8369-123.8368
  -123.8196-123.8187-123.8177-123.8168-123.6678-123.6669-123.6655-123.6646
  -123.6559-123.6556-123.6550-123.6547-123.5093-123.5090-123.5085-123.5082
   -78.2041 -78.2036 -78.1918 -78.1913 -78.1895 -78.1890 -78.1884 -78.1879
   -78.1857 -78.1853 -78.1847 -78.1842 -78.1407 -78.1400 -78.1306 -78.1298
   -78.1295 -78.1288 -78.1284 -78.1277 -78.1210 -78.1202 -78.1199 -78.1192
   -78.0231 -78.0219 -78.0143 -78.0133 -78.0131 -78.0121 -78.0109 -78.0102
   -78.0097 -78.0093 -78.0090 -78.0081 -77.9999 -77.9998 -77.9991 -77.9991
   -77.9928 -77.9927 -77.9843 -77.9842 -77.9834 -77.9833 -77.9816 -77.9807
   -77.9807 -77.9797 -77.9714 -77.9705 -77.9695 -77.9695 -77.9686 -77.9676
   -77.9657 -77.9647 -77.9638 -77.9629 -77.8269 -77.8259 -77.8247 -77.8243
   -77.8238 -77.8221 -77.8199 -77.8197 -77.8190 -77.8188 -77.8165 -77.8155
   -77.8143 -77.8133 -77.8121 -77.8099 -77.8096 -77.8094 -77.8087 -77.8085
   -77.8024 -77.8022 -77.7903 -77.7900 -77.6796 -77.6793 -77.6787 -77.6784
   -77.6617 -77.6614 -77.6608 -77.6605 -77.6526 -77.6523 -77.6405 -77.6402
    -6.6111  -5.9364  -5.6952  -5.5853  -5.5454  -5.5388  -5.5211  -5.5093
    -5.4918  -5.4700  -5.4425  -5.4381  -5.4302  -5.4275  -5.4164  -5.4039
    -5.3961  -5.3634  -5.3465  -5.3258  -5.2990  -5.2908  -5.2726  -5.2716
    -5.2663  -5.2583  -5.2550  -5.2475  -5.2041  -5.1966  -5.1966  -5.1918
    -5.1640  -5.1630  -5.1476  -5.1407  -5.1347  -5.1238  -5.1079  -5.0919
    -5.0872  -5.0843  -5.0698  -5.0604  -5.0537  -5.0397  -5.0375  -5.0247
    -5.0176  -5.0170  -5.0007  -4.9897  -4.9803  -4.9786  -4.9480  -4.9444
    -4.9400  -4.9396  -4.9241  -4.9192  -4.9117  -4.8995  -4.8810  -4.8783
    -4.8682  -4.8661  -4.8447  -4.8276  -4.8193  -4.8186  -4.8143  -4.8064
    -4.7789  -4.7766  -4.7683  -4.7681  -4.7654  -4.7564  -4.7542  -4.7504
    -4.7379  -4.7099  -4.7078  -4.7018  -4.6994  -4.6957  -4.6836  -4.6777
    -4.6667  -4.6583  -4.6579  -4.6552  -4.6509  -4.6428  -4.6244  -4.6231
    -4.6159  -4.6072  -4.5993  -4.5920  -4.5855  -4.5849  -4.5758  -4.5582
    -4.5556  -4.5379  -4.5376  -4.5353  -4.5262  -4.5202  -4.5182  -4.5125
    -4.4926  -4.4905  -4.4837  -4.4697  -4.4592  -4.4500  -4.4473  -4.4427
    -4.4399  -4.4320  -4.4209  -4.4116  -4.4017  -4.3968  -4.3915  -4.3710
    -4.3697  -4.3687  -4.3615  -4.3597  -4.3584  -4.3450  -4.3437  -4.3437
    -4.3396  -4.3367  -4.3258  -4.3206  -4.3155  -4.3104  -4.3079  -4.2816
    -4.2698  -4.2615  -4.2595  -4.2501  -4.2484  -4.2408  -4.2229  -4.2158
    -4.2123  -4.2107  -4.1965  -4.1919  -4.1732  -4.1638  -4.1632  -4.1510
    -4.1389  -4.1326  -4.1022  -3.8288  -3.8074  -3.6814  -3.4842  -2.9649
    -2.9142  -2.7459  -2.4786  -1.8937  -1.7725  -1.4175  -0.9623  -0.8869
    -0.7260  -0.4373  -0.4245  -0.3719  -0.1745   0.3676   0.6069   0.6724
     1.2997   1.3762   1.4894   1.5368   1.7583   2.0966   2.3098   2.5489
     3.1710   3.3412   3.5644   3.6228   3.8270   3.8655   4.0583   4.1478
     4.4905   4.6062   4.7462   4.9066   5.0305   5.2033   5.3734   5.4311
     5.5584   5.8384   6.0065   6.0322   6.0551   6.3649   6.4955   6.7425
     6.7530   6.9365   7.0807   7.0855   7.1290   7.2580   7.2762   7.2992
     7.4437   7.4531   7.5857   7.8372   7.9903   8.1680   8.2234   8.2409
     8.3606   8.6128   8.6467   8.6752   8.9291   8.9615   9.0304   9.0778
     9.0979   9.1186   9.1498   9.2085   9.2716   9.3812   9.4088   9.6396
     9.7311   9.8400   9.8819  10.0362  10.0875  10.1263  10.2254  10.2492

     occupation numbers 
     1.0000   1.0000   1.0000   1.0000   1.0000   1.0000   1.0000   1.0000
     1.0000   1.0000   1.0000   1.0000   1.0000   1.0000   1.0000   1.0000
     1.0000   1.0000   1.0000   1.0000   1.0000   1.0000   1.0000   1.0000
     1.0000   1.0000   1.0000   1.0000   1.0000   1.0000   1.0000   1.0000
     1.0000   1.0000   1.0000   1.0000   1.0000   1.0000   1.0000   1.0000
     1.0000   1.0000   1.0000   1.0000   1.0000   1.0000   1.0000   1.0000
     1.0000   1.0000   1.0000   1.0000   1.0000   1.0000   1.0000   1.0000
     1.0000   1.0000   1.0000   1.0000   1.0000   1.0000   1.0000   1.0000
     1.0000   1.0000   1.0000   1.0000   1.0000   1.0000   1.0000   1.0000
     1.0000   1.0000   1.0000   1.0000   1.0000   1.0000   1.0000   1.0000
     1.0000   1.0000   1.0000   1.0000   1.0000   1.0000   1.0000   1.0000
     1.0000   1.0000   1.0000   1.0000   1.0000   1.0000   1.0000   1.0000
     1.0000   1.0000   1.0000   1.0000   1.0000   1.0000   1.0000   1.0000
     1.0000   1.0000   1.0000   1.0000   1.0000   1.0000   1.0000   1.0000
     1.0000   1.0000   1.0000   1.0000   1.0000   1.0000   1.0000   1.0000
     1.0000   1.0000   1.0000   1.0000   1.0000   1.0000   1.0000   1.0000
     1.0000   1.0000   1.0000   1.0000   1.0000   1.0000   1.0000   1.0000
     1.0000   1.0000   1.0000   1.0000   1.0000   1.0000   1.0000   1.0000
     1.0000   1.0000   1.0000   1.0000   1.0000   1.0000   1.0000   1.0000
     1.0000   1.0000   1.0000   1.0000   1.0000   1.0000   1.0000   1.0000
     1.0000   1.0000   1.0000   1.0000   1.0000   1.0000   1.0000   1.0000
     1.0000   1.0000   1.0000   1.0000   1.0000   1.0000   1.0000   1.0000
     1.0000   1.0000   1.0000   1.0000   1.0000   1.0000   1.0000   1.0000
     1.0000   1.0000   1.0000   1.0000   1.0000   1.0000   1.0000   1.0000
     1.0000   1.0000   1.0000   1.0000   1.0000   1.0000   1.0000   1.0000
     1.0000   1.0000   1.0000   1.0000   1.0000   1.0000   1.0000   1.0000
     1.0000   1.0000   1.0000   1.0000   1.0000   1.0000   1.0000   1.0000
     1.0000   1.0000   1.0000   1.0000   1.0000   1.0000   1.0000   1.0000
     1.0000   1.0000   1.0000   1.0000   1.0000   1.0000   1.0000   1.0000
     1.0000   1.0000   1.0000   1.0000   1.0000   1.0000   1.0000   1.0000
     1.0000   1.0000   1.0000   1.0000   1.0000   1.0000   1.0000   1.0000
     1.0000   1.0000   1.0000   1.0000   1.0000   1.0000   1.0000   1.0000
     1.0000   1.0000   1.0000   1.0000   1.0000   1.0000   1.0000   1.0000
     1.0000   1.0000   1.0000   1.0000   1.0000   1.0000   1.0000   1.0000
     1.0000   1.0000   1.0000   1.0000   1.0000   1.0000   1.0000   1.0000
     1.0000   1.0000   1.0000   1.0000   1.0000   1.0000   1.0000   1.0000
     1.0000   1.0000   1.0000   1.0000   1.0000   1.0000   1.0000   1.0000
     1.0000   1.0000   1.0000   1.0000   1.0000   1.0000   1.0000   1.0000
     1.0000   1.0000   1.0000   1.0000   1.0000   1.0000   1.0000   1.0000
     1.0000   1.0000   1.0000   1.0001   1.0029   1.0766   0.9545   0.3574
     0.0000   0.0000   0.0000   0.0000   0.0000   0.0000   0.0000   0.0000
     0.0000   0.0000   0.0000   0.0000   0.0000   0.0000   0.0000   0.0000
     0.0000   0.0000   0.0000   0.0000   0.0000   0.0000   0.0000   0.0000
     0.0000   0.0000   0.0000   0.0000   0.0000   0.0000   0.0000   0.0000
     0.0000   0.0000   0.0000   0.0000   0.0000   0.0000   0.0000   0.0000
     0.0000   0.0000   0.0000   0.0000   0.0000   0.0000   0.0000   0.0000
     0.0000   0.0000   0.0000   0.0000   0.0000   0.0000   0.0000   0.0000
     0.0000   0.0000   0.0000   0.0000   0.0000   0.0000   0.0000   0.0000

          k = 0.3333 0.0811 0.7384 ( 50232 PWs)   bands (ev):

  -124.0408-124.0403-124.0390-124.0386-123.9769-123.9761-123.9751-123.9744
  -123.8621-123.8610-123.8604-123.8592-123.8382-123.8381-123.8364-123.8364
  -123.8200-123.8182-123.8181-123.8163-123.6682-123.6664-123.6660-123.6642
  -123.6563-123.6560-123.6545-123.6543-123.5098-123.5095-123.5080-123.5077
   -78.2102 -78.2097 -78.1900 -78.1895 -78.1879 -78.1874 -78.1863 -78.1858
   -78.1856 -78.1852 -78.1841 -78.1837 -78.1468 -78.1461 -78.1311 -78.1304
   -78.1290 -78.1283 -78.1223 -78.1215 -78.1215 -78.1208 -78.1194 -78.1186
   -78.0291 -78.0279 -78.0148 -78.0136 -78.0128 -78.0116 -78.0107 -78.0095
   -78.0088 -78.0076 -78.0048 -78.0036 -78.0003 -78.0002 -77.9988 -77.9987
   -77.9987 -77.9987 -77.9876 -77.9857 -77.9848 -77.9847 -77.9829 -77.9828
   -77.9747 -77.9746 -77.9718 -77.9700 -77.9700 -77.9681 -77.9662 -77.9643
   -77.9642 -77.9634 -77.9624 -77.9615 -77.8304 -77.8281 -77.8274 -77.8254
   -77.8252 -77.8233 -77.8204 -77.8202 -77.8185 -77.8183 -77.8170 -77.8150
   -77.8148 -77.8128 -77.8101 -77.8098 -77.8084 -77.8082 -77.8082 -77.8080
   -77.8060 -77.8037 -77.7842 -77.7839 -77.6800 -77.6797 -77.6782 -77.6779
   -77.6622 -77.6619 -77.6603 -77.6600 -77.6586 -77.6583 -77.6344 -77.6341
    -7.1228  -6.7309  -6.1320  -5.8800  -5.8589  -5.7842  -5.6596  -5.6565
    -5.6369  -5.6358  -5.6278  -5.6259  -5.5664  -5.5660  -5.5275  -5.5271
    -5.4780  -5.4772  -5.4607  -5.4566  -5.4275  -5.4245  -5.3905  -5.3904
    -5.3624  -5.3586  -5.3341  -5.3334  -5.3112  -5.3109  -5.2779  -5.2594
    -5.2591  -5.2518  -5.2483  -5.1920  -5.1911  -5.1818  -5.1812  -5.1807
    -5.1314  -5.1310  -5.1229  -5.1215  -5.0964  -5.0954  -5.0927  -5.0717
    -5.0361  -5.0356  -5.0203  -5.0197  -4.9894  -4.9845  -4.9781  -4.9673
    -4.9670  -4.9203  -4.9036  -4.9034  -4.8782  -4.8639  -4.8529  -4.8527
    -4.8527  -4.8462  -4.8402  -4.8225  -4.8221  -4.8216  -4.8091  -4.7849
    -4.7706  -4.7576  -4.7571  -4.7553  -4.7472  -4.7344  -4.7281  -4.7198
    -4.7195  -4.6949  -4.6923  -4.6919  -4.6601  -4.6600  -4.6556  -4.6110
    -4.6106  -4.6106  -4.5924  -4.5893  -4.5833  -4.5628  -4.5590  -4.5589
    -4.5527  -4.5309  -4.5286  -4.5285  -4.5168  -4.5077  -4.4999  -4.4976
    -4.4952  -4.4951  -4.4722  -4.4709  -4.4547  -4.4546  -4.4345  -4.4343
    -4.4331  -4.4324  -4.4312  -4.4292  -4.3966  -4.3965  -4.3933  -4.3909
    -4.3908  -4.3878  -4.3768  -4.3764  -4.3747  -4.3702  -4.3321  -4.3320
    -4.3148  -4.3122  -4.3084  -4.3060  -4.3039  -4.3039  -4.2941  -4.2917
    -4.2639  -4.2639  -4.2420  -4.2418  -4.2316  -4.2296  -4.2237  -4.2227
    -4.2162  -4.2128  -4.2128  -4.2006  -4.1990  -4.1989  -4.1640  -4.1633
    -4.1564  -4.1541  -4.0771  -4.0762  -4.0705  -4.0689  -4.0583  -4.0582
    -4.0128  -4.0011  -3.9304  -3.9230  -3.9225  -3.2701  -3.1629  -2.7957
    -2.7500  -1.7818  -1.0986  -0.8631  -0.8630  -0.7303  -0.2436  -0.0867
    -0.0860   0.1586   0.1590   0.2436   0.7327   0.7327   0.7847   0.9180
     0.9186   1.2779   1.3623   1.6519   1.6521   2.0281   2.1824   2.2396
     2.2398   2.7760   2.9588   3.1181   3.1187   3.5228   3.5228   3.8254
     3.9168   4.2628   4.2694   4.2701   4.6039   4.6049   4.7787   4.7788
     4.8642   5.1810   5.3377   5.3382   5.5326   5.5332   5.6075   6.1715
     6.2808   6.2920   6.2927   6.5259   6.5262   6.6326   6.6811   6.7808
     7.0571   7.0574   7.1191   7.5534   7.5544   7.6513   7.8601   8.0321
     8.0525   8.3362   8.5318   8.5497   8.5502   8.6335   8.6512   8.6512
     8.9110   9.0632   9.0634   9.2780   9.3750   9.4407   9.4681   9.4682
     9.7314   9.8605   9.9880  10.0066  10.0071  10.1288  10.1681  10.2415

     occupation numbers 
     1.0000   1.0000   1.0000   1.0000   1.0000   1.0000   1.0000   1.0000
     1.0000   1.0000   1.0000   1.0000   1.0000   1.0000   1.0000   1.0000
     1.0000   1.0000   1.0000   1.0000   1.0000   1.0000   1.0000   1.0000
     1.0000   1.0000   1.0000   1.0000   1.0000   1.0000   1.0000   1.0000
     1.0000   1.0000   1.0000   1.0000   1.0000   1.0000   1.0000   1.0000
     1.0000   1.0000   1.0000   1.0000   1.0000   1.0000   1.0000   1.0000
     1.0000   1.0000   1.0000   1.0000   1.0000   1.0000   1.0000   1.0000
     1.0000   1.0000   1.0000   1.0000   1.0000   1.0000   1.0000   1.0000
     1.0000   1.0000   1.0000   1.0000   1.0000   1.0000   1.0000   1.0000
     1.0000   1.0000   1.0000   1.0000   1.0000   1.0000   1.0000   1.0000
     1.0000   1.0000   1.0000   1.0000   1.0000   1.0000   1.0000   1.0000
     1.0000   1.0000   1.0000   1.0000   1.0000   1.0000   1.0000   1.0000
     1.0000   1.0000   1.0000   1.0000   1.0000   1.0000   1.0000   1.0000
     1.0000   1.0000   1.0000   1.0000   1.0000   1.0000   1.0000   1.0000
     1.0000   1.0000   1.0000   1.0000   1.0000   1.0000   1.0000   1.0000
     1.0000   1.0000   1.0000   1.0000   1.0000   1.0000   1.0000   1.0000
     1.0000   1.0000   1.0000   1.0000   1.0000   1.0000   1.0000   1.0000
     1.0000   1.0000   1.0000   1.0000   1.0000   1.0000   1.0000   1.0000
     1.0000   1.0000   1.0000   1.0000   1.0000   1.0000   1.0000   1.0000
     1.0000   1.0000   1.0000   1.0000   1.0000   1.0000   1.0000   1.0000
     1.0000   1.0000   1.0000   1.0000   1.0000   1.0000   1.0000   1.0000
     1.0000   1.0000   1.0000   1.0000   1.0000   1.0000   1.0000   1.0000
     1.0000   1.0000   1.0000   1.0000   1.0000   1.0000   1.0000   1.0000
     1.0000   1.0000   1.0000   1.0000   1.0000   1.0000   1.0000   1.0000
     1.0000   1.0000   1.0000   1.0000   1.0000   1.0000   1.0000   1.0000
     1.0000   1.0000   1.0000   1.0000   1.0000   1.0000   1.0000   1.0000
     1.0000   1.0000   1.0000   1.0000   1.0000   1.0000   1.0000   1.0000
     1.0000   1.0000   1.0000   1.0000   1.0000   1.0000   1.0000   1.0000
     1.0000   1.0000   1.0000   1.0000   1.0000   1.0000   1.0000   1.0000
     1.0000   1.0000   1.0000   1.0000   1.0000   1.0000   1.0000   1.0000
     1.0000   1.0000   1.0000   1.0000   1.0000   1.0000   1.0000   1.0000
     1.0000   1.0000   1.0000   1.0000   1.0000   1.0000   1.0000   1.0000
     1.0000   1.0000   1.0000   1.0000   1.0000   1.0000   1.0000   1.0000
     1.0000   1.0000   1.0000   1.0000   1.0000   1.0000   1.0000   1.0000
     1.0000   1.0000   1.0000   1.0000   1.0000   1.0000   1.0000   1.0000
     1.0000   1.0000   1.0000   1.0000   1.0000   1.0000   1.0000   1.0000
     1.0000   1.0000   1.0000   1.0000   1.0000   1.0000   1.0000   1.0000
     1.0000   1.0000   1.0000   1.0000   1.0000   1.0000   1.0000   1.0000
     1.0000   1.0000   1.0000   1.0000   1.0000   1.0000   1.0000   1.0000
     1.0000   1.0000   1.0000   1.0005   1.0005   1.0551   1.0786   1.0463
     1.0461   0.0418   0.0029   0.0001   0.0001   0.0000   0.0000   0.0000
     0.0000   0.0000   0.0000   0.0000   0.0000   0.0000   0.0000   0.0000
     0.0000   0.0000   0.0000   0.0000   0.0000   0.0000   0.0000   0.0000
     0.0000   0.0000   0.0000   0.0000   0.0000   0.0000   0.0000   0.0000
     0.0000   0.0000   0.0000   0.0000   0.0000   0.0000   0.0000   0.0000
     0.0000   0.0000   0.0000   0.0000   0.0000   0.0000   0.0000   0.0000
     0.0000   0.0000   0.0000   0.0000   0.0000   0.0000   0.0000   0.0000
     0.0000   0.0000   0.0000   0.0000   0.0000   0.0000   0.0000   0.0000

          k = 0.3333 0.8068 1.1076 ( 50337 PWs)   bands (ev):

  -124.0404-124.0399-124.0395-124.0390-123.9764-123.9757-123.9755-123.9748
  -123.8617-123.8608-123.8605-123.8596-123.8377-123.8377-123.8369-123.8368
  -123.8196-123.8187-123.8177-123.8168-123.6678-123.6669-123.6655-123.6646
  -123.6559-123.6556-123.6550-123.6547-123.5093-123.5090-123.5085-123.5082
   -78.2041 -78.2036 -78.1918 -78.1913 -78.1895 -78.1890 -78.1884 -78.1879
   -78.1857 -78.1853 -78.1847 -78.1842 -78.1407 -78.1400 -78.1306 -78.1299
   -78.1295 -78.1288 -78.1284 -78.1277 -78.1210 -78.1202 -78.1199 -78.1192
   -78.0231 -78.0219 -78.0143 -78.0133 -78.0131 -78.0121 -78.0109 -78.0102
   -78.0097 -78.0092 -78.0090 -78.0081 -77.9999 -77.9998 -77.9991 -77.9991
   -77.9928 -77.9928 -77.9843 -77.9843 -77.9834 -77.9833 -77.9817 -77.9807
   -77.9807 -77.9797 -77.9714 -77.9705 -77.9695 -77.9695 -77.9686 -77.9676
   -77.9657 -77.9647 -77.9638 -77.9629 -77.8269 -77.8259 -77.8247 -77.8243
   -77.8238 -77.8221 -77.8200 -77.8197 -77.8190 -77.8188 -77.8165 -77.8155
   -77.8143 -77.8133 -77.8121 -77.8099 -77.8096 -77.8094 -77.8087 -77.8085
   -77.8024 -77.8022 -77.7903 -77.7900 -77.6796 -77.6793 -77.6787 -77.6784
   -77.6617 -77.6614 -77.6608 -77.6605 -77.6526 -77.6523 -77.6405 -77.6402
    -6.3591  -6.3573  -5.5677  -5.5518  -5.5490  -5.5476  -5.5245  -5.5240
    -5.5053  -5.4779  -5.4526  -5.4523  -5.4498  -5.4353  -5.4073  -5.4066
    -5.3947  -5.3932  -5.3384  -5.2934  -5.2825  -5.2677  -5.2672  -5.2472
    -5.2468  -5.2461  -5.2266  -5.2118  -5.2064  -5.2060  -5.2004  -5.1895
    -5.1853  -5.1840  -5.1792  -5.1419  -5.1331  -5.1327  -5.1122  -5.1048
    -5.0914  -5.0913  -5.0905  -5.0768  -5.0586  -5.0493  -5.0488  -5.0372
    -5.0197  -5.0191  -4.9959  -4.9923  -4.9588  -4.9587  -4.9583  -4.9497
    -4.9494  -4.9194  -4.9100  -4.9093  -4.9054  -4.8995  -4.8992  -4.8694
    -4.8637  -4.8634  -4.8625  -4.8483  -4.8362  -4.8141  -4.8137  -4.7863
    -4.7782  -4.7685  -4.7604  -4.7601  -4.7592  -4.7502  -4.7499  -4.7340
    -4.7291  -4.7288  -4.7267  -4.7143  -4.6941  -4.6941  -4.6795  -4.6793
    -4.6782  -4.6673  -4.6641  -4.6636  -4.6627  -4.6503  -4.6411  -4.6210
    -4.6208  -4.6125  -4.5928  -4.5829  -4.5818  -4.5817  -4.5817  -4.5694
    -4.5648  -4.5646  -4.5458  -4.5187  -4.5185  -4.5142  -4.5063  -4.4987
    -4.4986  -4.4986  -4.4966  -4.4660  -4.4658  -4.4641  -4.4450  -4.4310
    -4.4303  -4.4297  -4.4122  -4.4062  -4.4036  -4.4032  -4.3972  -4.3789
    -4.3761  -4.3693  -4.3691  -4.3546  -4.3507  -4.3438  -4.3426  -4.3423
    -4.3400  -4.3304  -4.3303  -4.3300  -4.3125  -4.2990  -4.2941  -4.2940
    -4.2709  -4.2565  -4.2523  -4.2521  -4.2444  -4.2412  -4.2211  -4.2209
    -4.2208  -4.2141  -4.2093  -4.1895  -4.1893  -4.1794  -4.1502  -4.1414
    -4.1413  -4.0748  -4.0438  -4.0437  -3.8893  -3.0567  -2.8618  -2.8503
    -2.8497  -2.7502  -2.4839  -2.4837  -1.7908  -1.7887  -1.7884  -1.6553
    -1.0246  -0.1127  -0.1108   0.1273   0.3722   0.3740   0.5267   1.0359
     1.2013   1.4674   2.1456   2.2618   2.2628   2.4753   2.4759   2.4987
     2.5722   2.8688   2.8701   3.0243   3.6156   3.6336   3.6343   3.9396
     4.4528   4.6851   4.7375   5.1023   5.1076   5.1099   5.2112   5.4175
     5.5998   5.6022   5.9281   5.9428   6.0228   6.0260   6.0915   6.5134
     6.7575   7.0843   7.2115   7.2118   7.2208   7.6016   7.6022   7.6361
     7.7016   7.8900   7.9099   7.9107   8.0447   8.2683   8.4655   8.4659
     8.5272   8.5519   8.5524   8.6421   8.7985   8.9578   9.1109   9.2637
     9.2691   9.3646   9.4803   9.4819   9.4862   9.7014   9.7020   9.7469
     9.8303   9.8308   9.9561  10.0342  10.1578  10.1790  10.2046  10.2048

     occupation numbers 
     1.0000   1.0000   1.0000   1.0000   1.0000   1.0000   1.0000   1.0000
     1.0000   1.0000   1.0000   1.0000   1.0000   1.0000   1.0000   1.0000
     1.0000   1.0000   1.0000   1.0000   1.0000   1.0000   1.0000   1.0000
     1.0000   1.0000   1.0000   1.0000   1.0000   1.0000   1.0000   1.0000
     1.0000   1.0000   1.0000   1.0000   1.0000   1.0000   1.0000   1.0000
     1.0000   1.0000   1.0000   1.0000   1.0000   1.0000   1.0000   1.0000
     1.0000   1.0000   1.0000   1.0000   1.0000   1.0000   1.0000   1.0000
     1.0000   1.0000   1.0000   1.0000   1.0000   1.0000   1.0000   1.0000
     1.0000   1.0000   1.0000   1.0000   1.0000   1.0000   1.0000   1.0000
     1.0000   1.0000   1.0000   1.0000   1.0000   1.0000   1.0000   1.0000
     1.0000   1.0000   1.0000   1.0000   1.0000   1.0000   1.0000   1.0000
     1.0000   1.0000   1.0000   1.0000   1.0000   1.0000   1.0000   1.0000
     1.0000   1.0000   1.0000   1.0000   1.0000   1.0000   1.0000   1.0000
     1.0000   1.0000   1.0000   1.0000   1.0000   1.0000   1.0000   1.0000
     1.0000   1.0000   1.0000   1.0000   1.0000   1.0000   1.0000   1.0000
     1.0000   1.0000   1.0000   1.0000   1.0000   1.0000   1.0000   1.0000
     1.0000   1.0000   1.0000   1.0000   1.0000   1.0000   1.0000   1.0000
     1.0000   1.0000   1.0000   1.0000   1.0000   1.0000   1.0000   1.0000
     1.0000   1.0000   1.0000   1.0000   1.0000   1.0000   1.0000   1.0000
     1.0000   1.0000   1.0000   1.0000   1.0000   1.0000   1.0000   1.0000
     1.0000   1.0000   1.0000   1.0000   1.0000   1.0000   1.0000   1.0000
     1.0000   1.0000   1.0000   1.0000   1.0000   1.0000   1.0000   1.0000
     1.0000   1.0000   1.0000   1.0000   1.0000   1.0000   1.0000   1.0000
     1.0000   1.0000   1.0000   1.0000   1.0000   1.0000   1.0000   1.0000
     1.0000   1.0000   1.0000   1.0000   1.0000   1.0000   1.0000   1.0000
     1.0000   1.0000   1.0000   1.0000   1.0000   1.0000   1.0000   1.0000
     1.0000   1.0000   1.0000   1.0000   1.0000   1.0000   1.0000   1.0000
     1.0000   1.0000   1.0000   1.0000   1.0000   1.0000   1.0000   1.0000
     1.0000   1.0000   1.0000   1.0000   1.0000   1.0000   1.0000   1.0000
     1.0000   1.0000   1.0000   1.0000   1.0000   1.0000   1.0000   1.0000
     1.0000   1.0000   1.0000   1.0000   1.0000   1.0000   1.0000   1.0000
     1.0000   1.0000   1.0000   1.0000   1.0000   1.0000   1.0000   1.0000
     1.0000   1.0000   1.0000   1.0000   1.0000   1.0000   1.0000   1.0000
     1.0000   1.0000   1.0000   1.0000   1.0000   1.0000   1.0000   1.0000
     1.0000   1.0000   1.0000   1.0000   1.0000   1.0000   1.0000   1.0000
     1.0000   1.0000   1.0000   1.0000   1.0000   1.0000   1.0000   1.0000
     1.0000   1.0000   1.0000   1.0000   1.0000   1.0000   1.0000   1.0000
     1.0000   1.0000   1.0000   1.0000   1.0000   1.0000   1.0000   1.0000
     1.0000   1.0000   1.0000   1.0000   1.0000   1.0000   1.0000   1.0000
     1.0000   1.0000   1.0833   1.0238   1.0226   0.5494   0.5479   0.4856
     0.3039   0.0119   0.0117   0.0009   0.0000   0.0000   0.0000   0.0000
     0.0000   0.0000   0.0000   0.0000   0.0000   0.0000   0.0000   0.0000
     0.0000   0.0000   0.0000   0.0000   0.0000   0.0000   0.0000   0.0000
     0.0000   0.0000   0.0000   0.0000   0.0000   0.0000   0.0000   0.0000
     0.0000   0.0000   0.0000   0.0000   0.0000   0.0000   0.0000   0.0000
     0.0000   0.0000   0.0000   0.0000   0.0000   0.0000   0.0000   0.0000
     0.0000   0.0000   0.0000   0.0000   0.0000   0.0000   0.0000   0.0000
     0.0000   0.0000   0.0000   0.0000   0.0000   0.0000   0.0000   0.0000

          k = 0.3333-0.6446 0.3692 ( 50308 PWs)   bands (ev):

  -124.0404-124.0399-124.0395-124.0390-123.9764-123.9757-123.9755-123.9748
  -123.8617-123.8608-123.8605-123.8596-123.8377-123.8377-123.8369-123.8368
  -123.8196-123.8187-123.8177-123.8168-123.6678-123.6669-123.6655-123.6646
  -123.6559-123.6556-123.6550-123.6547-123.5093-123.5090-123.5085-123.5082
   -78.2041 -78.2036 -78.1918 -78.1913 -78.1895 -78.1890 -78.1884 -78.1879
   -78.1857 -78.1853 -78.1847 -78.1842 -78.1407 -78.1400 -78.1306 -78.1298
   -78.1295 -78.1288 -78.1284 -78.1277 -78.1210 -78.1202 -78.1199 -78.1192
   -78.0231 -78.0219 -78.0143 -78.0133 -78.0131 -78.0121 -78.0109 -78.0102
   -78.0097 -78.0093 -78.0090 -78.0081 -77.9999 -77.9998 -77.9991 -77.9991
   -77.9928 -77.9927 -77.9843 -77.9842 -77.9834 -77.9833 -77.9816 -77.9807
   -77.9807 -77.9797 -77.9714 -77.9705 -77.9695 -77.9695 -77.9686 -77.9676
   -77.9657 -77.9647 -77.9638 -77.9629 -77.8269 -77.8259 -77.8247 -77.8243
   -77.8238 -77.8221 -77.8199 -77.8197 -77.8190 -77.8188 -77.8165 -77.8155
   -77.8143 -77.8133 -77.8121 -77.8099 -77.8096 -77.8094 -77.8087 -77.8085
   -77.8024 -77.8022 -77.7903 -77.7900 -77.6796 -77.6793 -77.6787 -77.6784
   -77.6617 -77.6614 -77.6608 -77.6605 -77.6526 -77.6523 -77.6405 -77.6402
    -6.6111  -5.9364  -5.6952  -5.5853  -5.5454  -5.5388  -5.5211  -5.5093
    -5.4918  -5.4700  -5.4425  -5.4381  -5.4302  -5.4275  -5.4164  -5.4039
    -5.3961  -5.3634  -5.3465  -5.3258  -5.2990  -5.2908  -5.2726  -5.2716
    -5.2663  -5.2583  -5.2550  -5.2475  -5.2041  -5.1966  -5.1966  -5.1918
    -5.1640  -5.1630  -5.1476  -5.1407  -5.1347  -5.1238  -5.1079  -5.0919
    -5.0872  -5.0843  -5.0698  -5.0604  -5.0537  -5.0397  -5.0375  -5.0247
    -5.0176  -5.0170  -5.0007  -4.9897  -4.9803  -4.9786  -4.9480  -4.9444
    -4.9400  -4.9396  -4.9241  -4.9192  -4.9117  -4.8995  -4.8810  -4.8783
    -4.8682  -4.8661  -4.8447  -4.8276  -4.8193  -4.8186  -4.8143  -4.8064
    -4.7789  -4.7766  -4.7683  -4.7681  -4.7654  -4.7564  -4.7542  -4.7504
    -4.7379  -4.7099  -4.7078  -4.7018  -4.6994  -4.6957  -4.6836  -4.6777
    -4.6667  -4.6583  -4.6579  -4.6551  -4.6509  -4.6428  -4.6244  -4.6231
    -4.6159  -4.6072  -4.5993  -4.5920  -4.5855  -4.5849  -4.5758  -4.5582
    -4.5556  -4.5379  -4.5376  -4.5353  -4.5262  -4.5202  -4.5182  -4.5125
    -4.4926  -4.4905  -4.4837  -4.4697  -4.4592  -4.4500  -4.4473  -4.4427
    -4.4399  -4.4320  -4.4209  -4.4116  -4.4017  -4.3968  -4.3915  -4.3710
    -4.3697  -4.3687  -4.3615  -4.3598  -4.3584  -4.3450  -4.3437  -4.3437
    -4.3396  -4.3367  -4.3258  -4.3206  -4.3155  -4.3104  -4.3079  -4.2816
    -4.2698  -4.2615  -4.2595  -4.2501  -4.2484  -4.2408  -4.2229  -4.2158
    -4.2123  -4.2107  -4.1965  -4.1920  -4.1732  -4.1638  -4.1632  -4.1510
    -4.1389  -4.1326  -4.1022  -3.8288  -3.8074  -3.6813  -3.4842  -2.9649
    -2.9142  -2.7459  -2.4786  -1.8937  -1.7725  -1.4175  -0.9623  -0.8869
    -0.7260  -0.4373  -0.4245  -0.3719  -0.1745   0.3676   0.6069   0.6725
     1.2997   1.3762   1.4894   1.5368   1.7583   2.0966   2.3098   2.5489
     3.1710   3.3412   3.5644   3.6228   3.8270   3.8655   4.0583   4.1478
     4.4905   4.6062   4.7462   4.9066   5.0305   5.2033   5.3734   5.4311
     5.5584   5.8384   6.0065   6.0322   6.0551   6.3649   6.4955   6.7426
     6.7530   6.9365   7.0807   7.0855   7.1290   7.2580   7.2762   7.2992
     7.4437   7.4531   7.5857   7.8372   7.9903   8.1680   8.2234   8.2409
     8.3606   8.6128   8.6467   8.6753   8.9291   8.9615   9.0304   9.0778
     9.0979   9.1186   9.1498   9.2085   9.2715   9.3812   9.4088   9.6396
     9.7311   9.8400   9.8819  10.0361  10.0875  10.1263  10.2254  10.2492

     occupation numbers 
     1.0000   1.0000   1.0000   1.0000   1.0000   1.0000   1.0000   1.0000
     1.0000   1.0000   1.0000   1.0000   1.0000   1.0000   1.0000   1.0000
     1.0000   1.0000   1.0000   1.0000   1.0000   1.0000   1.0000   1.0000
     1.0000   1.0000   1.0000   1.0000   1.0000   1.0000   1.0000   1.0000
     1.0000   1.0000   1.0000   1.0000   1.0000   1.0000   1.0000   1.0000
     1.0000   1.0000   1.0000   1.0000   1.0000   1.0000   1.0000   1.0000
     1.0000   1.0000   1.0000   1.0000   1.0000   1.0000   1.0000   1.0000
     1.0000   1.0000   1.0000   1.0000   1.0000   1.0000   1.0000   1.0000
     1.0000   1.0000   1.0000   1.0000   1.0000   1.0000   1.0000   1.0000
     1.0000   1.0000   1.0000   1.0000   1.0000   1.0000   1.0000   1.0000
     1.0000   1.0000   1.0000   1.0000   1.0000   1.0000   1.0000   1.0000
     1.0000   1.0000   1.0000   1.0000   1.0000   1.0000   1.0000   1.0000
     1.0000   1.0000   1.0000   1.0000   1.0000   1.0000   1.0000   1.0000
     1.0000   1.0000   1.0000   1.0000   1.0000   1.0000   1.0000   1.0000
     1.0000   1.0000   1.0000   1.0000   1.0000   1.0000   1.0000   1.0000
     1.0000   1.0000   1.0000   1.0000   1.0000   1.0000   1.0000   1.0000
     1.0000   1.0000   1.0000   1.0000   1.0000   1.0000   1.0000   1.0000
     1.0000   1.0000   1.0000   1.0000   1.0000   1.0000   1.0000   1.0000
     1.0000   1.0000   1.0000   1.0000   1.0000   1.0000   1.0000   1.0000
     1.0000   1.0000   1.0000   1.0000   1.0000   1.0000   1.0000   1.0000
     1.0000   1.0000   1.0000   1.0000   1.0000   1.0000   1.0000   1.0000
     1.0000   1.0000   1.0000   1.0000   1.0000   1.0000   1.0000   1.0000
     1.0000   1.0000   1.0000   1.0000   1.0000   1.0000   1.0000   1.0000
     1.0000   1.0000   1.0000   1.0000   1.0000   1.0000   1.0000   1.0000
     1.0000   1.0000   1.0000   1.0000   1.0000   1.0000   1.0000   1.0000
     1.0000   1.0000   1.0000   1.0000   1.0000   1.0000   1.0000   1.0000
     1.0000   1.0000   1.0000   1.0000   1.0000   1.0000   1.0000   1.0000
     1.0000   1.0000   1.0000   1.0000   1.0000   1.0000   1.0000   1.0000
     1.0000   1.0000   1.0000   1.0000   1.0000   1.0000   1.0000   1.0000
     1.0000   1.0000   1.0000   1.0000   1.0000   1.0000   1.0000   1.0000
     1.0000   1.0000   1.0000   1.0000   1.0000   1.0000   1.0000   1.0000
     1.0000   1.0000   1.0000   1.0000   1.0000   1.0000   1.0000   1.0000
     1.0000   1.0000   1.0000   1.0000   1.0000   1.0000   1.0000   1.0000
     1.0000   1.0000   1.0000   1.0000   1.0000   1.0000   1.0000   1.0000
     1.0000   1.0000   1.0000   1.0000   1.0000   1.0000   1.0000   1.0000
     1.0000   1.0000   1.0000   1.0000   1.0000   1.0000   1.0000   1.0000
     1.0000   1.0000   1.0000   1.0000   1.0000   1.0000   1.0000   1.0000
     1.0000   1.0000   1.0000   1.0000   1.0000   1.0000   1.0000   1.0000
     1.0000   1.0000   1.0000   1.0000   1.0000   1.0000   1.0000   1.0000
     1.0000   1.0000   1.0000   1.0001   1.0029   1.0766   0.9545   0.3574
     0.0000   0.0000   0.0000   0.0000   0.0000   0.0000   0.0000   0.0000
     0.0000   0.0000   0.0000   0.0000   0.0000   0.0000   0.0000   0.0000
     0.0000   0.0000   0.0000   0.0000   0.0000   0.0000   0.0000   0.0000
     0.0000   0.0000   0.0000   0.0000   0.0000   0.0000   0.0000   0.0000
     0.0000   0.0000   0.0000   0.0000   0.0000   0.0000   0.0000   0.0000
     0.0000   0.0000   0.0000   0.0000   0.0000   0.0000   0.0000   0.0000
     0.0000   0.0000   0.0000   0.0000   0.0000   0.0000   0.0000   0.0000
     0.0000   0.0000   0.0000   0.0000   0.0000   0.0000   0.0000   0.0000

     the Fermi energy is     2.5313 ev

!    total energy              =  -14769.34706131 Ry
     estimated scf accuracy    <       0.00000022 Ry
     smearing contrib. (-TS)   =       0.00391069 Ry
     internal energy E=F+TS    =  -14769.35097199 Ry

     The total energy is F=E-TS. E is the sum of the following terms:
     one-electron contribution =  -79413.77525374 Ry
     hartree contribution      =   39688.89606832 Ry
     xc contribution           =   -1348.83269017 Ry
     ewald contribution        =   26304.36090359 Ry

     convergence has been achieved in  15 iterations

     Forces acting on atoms (cartesian axes, Ry/au):

     atom    1 type  1   force =     0.00395517    0.00096220   -0.01964370
     atom    2 type  1   force =     0.00935044    0.00227464    0.02919649
     atom    3 type  1   force =    -0.00023221   -0.00005806    0.00053742
     atom    4 type  1   force =     0.00098409    0.00024353   -0.00066031
     atom    5 type  1   force =     0.00395496    0.00096225   -0.01964366
     atom    6 type  1   force =     0.00934979    0.00227532    0.02919565
     atom    7 type  1   force =    -0.00023301   -0.00005912    0.00053765
     atom    8 type  1   force =     0.00098278    0.00024160   -0.00066174
     atom    9 type  1   force =     0.00388822    0.00094610   -0.01975326
     atom   10 type  1   force =     0.00967330    0.00235334    0.02967996
     atom   11 type  1   force =    -0.00028380   -0.00006915    0.00022580
     atom   12 type  1   force =     0.00025281    0.00006664   -0.00084779
     atom   13 type  1   force =     0.00388822    0.00094580   -0.01975286
     atom   14 type  1   force =     0.00967264    0.00235382    0.02967962
     atom   15 type  1   force =    -0.00028421   -0.00007118    0.00022600
     atom   16 type  1   force =     0.00025186    0.00006403   -0.00084861
     atom   17 type  1   force =    -0.01346880   -0.00327580   -0.01752502
     atom   18 type  1   force =     0.00036140    0.00008903    0.00988662
     atom   19 type  1   force =    -0.00068613   -0.00016780   -0.00019267
     atom   20 type  1   force =     0.00023173    0.00005449   -0.00161190
     atom   21 type  1   force =    -0.01346898   -0.00327724   -0.01752570
     atom   22 type  1   force =     0.00036191    0.00008930    0.00988733
     atom   23 type  1   force =    -0.00068666   -0.00016863   -0.00019143
     atom   24 type  1   force =     0.00023080    0.00005389   -0.00161114
     atom   25 type  1   force =    -0.01357696   -0.00330221   -0.01770737
     atom   26 type  1   force =     0.00008168    0.00002102    0.01009545
     atom   27 type  1   force =     0.00034128    0.00008135   -0.00024120
     atom   28 type  1   force =    -0.00086843   -0.00021401   -0.00143893
     atom   29 type  1   force =    -0.01357701   -0.00330358   -0.01770822
     atom   30 type  1   force =     0.00008233    0.00002109    0.01009588
     atom   31 type  1   force =     0.00034047    0.00008113   -0.00024010
     atom   32 type  1   force =    -0.00086969   -0.00021376   -0.00143826
     The non-local contrib.  to forces
     atom    1 type  1   force =    -0.11575648   -0.02815746   -0.08207011
     atom    2 type  1   force =     0.02322796    0.00566056    0.11202400
     atom    3 type  1   force =    -0.05225283   -0.01273038   -0.01676185
     atom    4 type  1   force =    -0.12593082   -0.03060176    0.05531605
     atom    5 type  1   force =    -0.11575693   -0.02815679   -0.08206963
     atom    6 type  1   force =     0.02322726    0.00566107    0.11202353
     atom    7 type  1   force =    -0.05225369   -0.01273295   -0.01676092
     atom    8 type  1   force =    -0.12593218   -0.03060438    0.05531476
     atom    9 type  1   force =    -0.11583481   -0.02817652   -0.08209033
     atom   10 type  1   force =     0.02362528    0.00575933    0.11251432
     atom   11 type  1   force =    -0.05224306   -0.01271883   -0.01717339
     atom   12 type  1   force =    -0.12659382   -0.03075486    0.05567953
     atom   13 type  1   force =    -0.11583531   -0.02817608   -0.08208938
     atom   14 type  1   force =     0.02362462    0.00575953    0.11251410
     atom   15 type  1   force =    -0.05224372   -0.01272137   -0.01717280
     atom   16 type  1   force =    -0.12659472   -0.03075782    0.05567895
     atom   17 type  1   force =     0.04398001    0.01070275   -0.05953051
     atom   18 type  1   force =     0.06365516    0.01549653   -0.06028130
     atom   19 type  1   force =     0.04077699    0.00990271   -0.04363504
     atom   20 type  1   force =     0.14314922    0.03481422    0.07965971
     atom   21 type  1   force =     0.04397993    0.01070062   -0.05953015
     atom   22 type  1   force =     0.06365638    0.01549605   -0.06028052
     atom   23 type  1   force =     0.04077632    0.00990143   -0.04363310
     atom   24 type  1   force =     0.14314807    0.03481317    0.07965958
     atom   25 type  1   force =     0.04390436    0.01068358   -0.05959405
     atom   26 type  1   force =     0.06329980    0.01540921   -0.06046251
     atom   27 type  1   force =     0.04180690    0.01014711   -0.04438886
     atom   28 type  1   force =     0.14236849    0.03462048    0.08011023
     atom   29 type  1   force =     0.04390429    0.01068159   -0.05959389
     atom   30 type  1   force =     0.06330106    0.01540880   -0.06046193
     atom   31 type  1   force =     0.04180609    0.01014549   -0.04438702
     atom   32 type  1   force =     0.14236676    0.03462025    0.08011085
     The ionic contribution  to forces
     atom    1 type  1   force =    -5.40152328   -1.31401464 -347.89447397
     atom    2 type  1   force =     1.54553074    0.37611716  -94.70427777
     atom    3 type  1   force =    -2.98883026   -0.72742657  149.63066119
     atom    4 type  1   force =   -10.52302945   -2.55953571  372.32284576
     atom    5 type  1   force =    -5.40152349   -1.31401386 -347.89446969
     atom    6 type  1   force =     1.54552696    0.37613133  -94.70427822
     atom    7 type  1   force =    -2.98883550   -0.72744715  149.63057240
     atom    8 type  1   force =   -10.52303191   -2.55953658  372.32280494
     atom    9 type  1   force =    -5.38770076   -1.31065142 -347.92911020
     atom   10 type  1   force =     1.45353000    0.35375957  -94.65815338
     atom   11 type  1   force =    -2.88647151   -0.70238058  149.64785975
     atom   12 type  1   force =   -10.49616384   -2.55288798  372.27371671
     atom   13 type  1   force =    -5.38770105   -1.31065107 -347.92910850
     atom   14 type  1   force =     1.45352390    0.35379902  -94.65816013
     atom   15 type  1   force =    -2.88645393   -0.70238201  149.64783879
     atom   16 type  1   force =   -10.49615641   -2.55292451  372.27365204
     atom   17 type  1   force =     1.72044959    0.41852771 -376.46551230
     atom   18 type  1   force =     0.17094493    0.04176988 -138.37773617
     atom   19 type  1   force =     3.57763096    0.87015921   95.01521540
     atom   20 type  1   force =    11.87672149    2.88900101  340.50261193
     atom   21 type  1   force =     1.72044961    0.41852931 -376.46551201
     atom   22 type  1   force =     0.17093954    0.04178172 -138.37774300
     atom   23 type  1   force =     3.57762845    0.87013766   95.01517233
     atom   24 type  1   force =    11.87673908    2.88899246  340.50260792
     atom   25 type  1   force =     1.74853753    0.42536087 -376.45768580
     atom   26 type  1   force =     0.09298267    0.02277389 -138.43810347
     atom   27 type  1   force =     3.67192026    0.89300405   95.17004836
     atom   28 type  1   force =    11.82548196    2.87645823  340.36228897
     atom   29 type  1   force =     1.74853790    0.42536162 -376.45768536
     atom   30 type  1   force =     0.09298702    0.02278564 -138.43811440
     atom   31 type  1   force =     3.67190503    0.89296845   95.16996605
     atom   32 type  1   force =    11.82545376    2.87643327  340.36226183
     The local contribution  to forces
     atom    1 type  1   force =     5.52114535    1.34311281  347.95602875
     atom    2 type  1   force =    -1.55902914   -0.37941069   94.62112489
     atom    3 type  1   force =     3.04074097    0.74007270 -149.61347741
     atom    4 type  1   force =    10.64916363    2.59019144 -372.37829379
     atom    5 type  1   force =     5.52114612    1.34311103  347.95602386
     atom    6 type  1   force =    -1.55902548   -0.37942493   94.62112542
     atom    7 type  1   force =     3.04074638    0.74009396 -149.61338885
     atom    8 type  1   force =    10.64916644    2.59019260 -372.37825260
     atom    9 type  1   force =     5.50746406    1.33978385  347.99073850
     atom   10 type  1   force =    -1.46787464   -0.35726099   94.57406369
     atom   11 type  1   force =     2.93857081    0.71506396 -149.62997436
     atom   12 type  1   force =    10.62364937    2.58386470 -372.32929260
     atom   13 type  1   force =     5.50746466    1.33978296  347.99073593
     atom   14 type  1   force =    -1.46786855   -0.35730020   94.57406996
     atom   15 type  1   force =     2.93855299    0.71506674 -149.62995363
     atom   16 type  1   force =    10.62364195    2.58390221 -372.32922838
     atom   17 type  1   force =    -1.77799089   -0.43252841  376.50667345
     atom   18 type  1   force =    -0.23444103   -0.05722599  138.44737006
     atom   19 type  1   force =    -3.61810662   -0.87998969  -94.97188881
     atom   20 type  1   force =   -12.02068269   -2.92401537 -340.58313843
     atom   21 type  1   force =    -1.77799096   -0.43252982  376.50667186
     atom   22 type  1   force =    -0.23443604   -0.05723812  138.44737642
     atom   23 type  1   force =    -3.61810419   -0.87996722  -94.97184639
     atom   24 type  1   force =   -12.02070048   -2.92400491 -340.58313379
     atom   25 type  1   force =    -1.80590058   -0.43931754  376.49909521
     atom   26 type  1   force =    -0.15594839   -0.03810020  138.50746433
     atom   27 type  1   force =    -3.71441857   -0.90332046  -95.12603267
     atom   28 type  1   force =   -11.96756146   -2.91101127 -340.44320716
     atom   29 type  1   force =    -1.80590097   -0.43931817  376.49909355
     atom   30 type  1   force =    -0.15595314   -0.03811216  138.50747502
     atom   31 type  1   force =    -3.71440305   -0.90328433  -95.12595098
     atom   32 type  1   force =   -11.96753245   -2.91098529 -340.44317943
     The core correction contribution to forces
     atom    1 type  1   force =     0.00000000    0.00000000    0.00000000
     atom    2 type  1   force =     0.00000000    0.00000000    0.00000000
     atom    3 type  1   force =     0.00000000    0.00000000    0.00000000
     atom    4 type  1   force =     0.00000000    0.00000000    0.00000000
     atom    5 type  1   force =     0.00000000    0.00000000    0.00000000
     atom    6 type  1   force =     0.00000000    0.00000000    0.00000000
     atom    7 type  1   force =     0.00000000    0.00000000    0.00000000
     atom    8 type  1   force =     0.00000000    0.00000000    0.00000000
     atom    9 type  1   force =     0.00000000    0.00000000    0.00000000
     atom   10 type  1   force =     0.00000000    0.00000000    0.00000000
     atom   11 type  1   force =     0.00000000    0.00000000    0.00000000
     atom   12 type  1   force =     0.00000000    0.00000000    0.00000000
     atom   13 type  1   force =     0.00000000    0.00000000    0.00000000
     atom   14 type  1   force =     0.00000000    0.00000000    0.00000000
     atom   15 type  1   force =     0.00000000    0.00000000    0.00000000
     atom   16 type  1   force =     0.00000000    0.00000000    0.00000000
     atom   17 type  1   force =     0.00000000    0.00000000    0.00000000
     atom   18 type  1   force =     0.00000000    0.00000000    0.00000000
     atom   19 type  1   force =     0.00000000    0.00000000    0.00000000
     atom   20 type  1   force =     0.00000000    0.00000000    0.00000000
     atom   21 type  1   force =     0.00000000    0.00000000    0.00000000
     atom   22 type  1   force =     0.00000000    0.00000000    0.00000000
     atom   23 type  1   force =     0.00000000    0.00000000    0.00000000
     atom   24 type  1   force =     0.00000000    0.00000000    0.00000000
     atom   25 type  1   force =     0.00000000    0.00000000    0.00000000
     atom   26 type  1   force =     0.00000000    0.00000000    0.00000000
     atom   27 type  1   force =     0.00000000    0.00000000    0.00000000
     atom   28 type  1   force =     0.00000000    0.00000000    0.00000000
     atom   29 type  1   force =     0.00000000    0.00000000    0.00000000
     atom   30 type  1   force =     0.00000000    0.00000000    0.00000000
     atom   31 type  1   force =     0.00000000    0.00000000    0.00000000
     atom   32 type  1   force =     0.00000000    0.00000000    0.00000000
     The Hubbard contrib.    to forces
     atom    1 type  1   force =     0.00000000    0.00000000    0.00000000
     atom    2 type  1   force =     0.00000000    0.00000000    0.00000000
     atom    3 type  1   force =     0.00000000    0.00000000    0.00000000
     atom    4 type  1   force =     0.00000000    0.00000000    0.00000000
     atom    5 type  1   force =     0.00000000    0.00000000    0.00000000
     atom    6 type  1   force =     0.00000000    0.00000000    0.00000000
     atom    7 type  1   force =     0.00000000    0.00000000    0.00000000
     atom    8 type  1   force =     0.00000000    0.00000000    0.00000000
     atom    9 type  1   force =     0.00000000    0.00000000    0.00000000
     atom   10 type  1   force =     0.00000000    0.00000000    0.00000000
     atom   11 type  1   force =     0.00000000    0.00000000    0.00000000
     atom   12 type  1   force =     0.00000000    0.00000000    0.00000000
     atom   13 type  1   force =     0.00000000    0.00000000    0.00000000
     atom   14 type  1   force =     0.00000000    0.00000000    0.00000000
     atom   15 type  1   force =     0.00000000    0.00000000    0.00000000
     atom   16 type  1   force =     0.00000000    0.00000000    0.00000000
     atom   17 type  1   force =     0.00000000    0.00000000    0.00000000
     atom   18 type  1   force =     0.00000000    0.00000000    0.00000000
     atom   19 type  1   force =     0.00000000    0.00000000    0.00000000
     atom   20 type  1   force =     0.00000000    0.00000000    0.00000000
     atom   21 type  1   force =     0.00000000    0.00000000    0.00000000
     atom   22 type  1   force =     0.00000000    0.00000000    0.00000000
     atom   23 type  1   force =     0.00000000    0.00000000    0.00000000
     atom   24 type  1   force =     0.00000000    0.00000000    0.00000000
     atom   25 type  1   force =     0.00000000    0.00000000    0.00000000
     atom   26 type  1   force =     0.00000000    0.00000000    0.00000000
     atom   27 type  1   force =     0.00000000    0.00000000    0.00000000
     atom   28 type  1   force =     0.00000000    0.00000000    0.00000000
     atom   29 type  1   force =     0.00000000    0.00000000    0.00000000
     atom   30 type  1   force =     0.00000000    0.00000000    0.00000000
     atom   31 type  1   force =     0.00000000    0.00000000    0.00000000
     atom   32 type  1   force =     0.00000000    0.00000000    0.00000000
     The SCF correction term to forces
     atom    1 type  1   force =     0.00009121    0.00002197    0.00106427
     atom    2 type  1   force =    -0.00037749   -0.00009191    0.00051801
     atom    3 type  1   force =     0.00011153    0.00002666    0.00030813
     atom    4 type  1   force =     0.00078235    0.00019005   -0.00033569
     atom    5 type  1   force =     0.00009089    0.00002235    0.00106444
     atom    6 type  1   force =    -0.00037732   -0.00009167    0.00051756
     atom    7 type  1   force =     0.00011143    0.00002749    0.00030765
     atom    8 type  1   force =     0.00078205    0.00019043   -0.00033620
     atom    9 type  1   force =    -0.00003866   -0.00000934    0.00090141
     atom   10 type  1   force =     0.00039428    0.00009591    0.00144796
     atom   11 type  1   force =    -0.00013842   -0.00003323   -0.00029357
     atom   12 type  1   force =    -0.00063727   -0.00015474   -0.00075881
     atom   13 type  1   force =    -0.00003845   -0.00000954    0.00090173
     atom   14 type  1   force =     0.00039429    0.00009594    0.00144832
     atom   15 type  1   force =    -0.00013792   -0.00003406   -0.00029373
     atom   16 type  1   force =    -0.00063734   -0.00015537   -0.00075858
     atom   17 type  1   force =     0.00009412    0.00002262    0.00103697
     atom   18 type  1   force =     0.00020396    0.00004909    0.00072666
     atom   19 type  1   force =    -0.00098585   -0.00023955    0.00030841
     atom   20 type  1   force =     0.00104534    0.00025510   -0.00055247
     atom   21 type  1   force =     0.00009406    0.00002312    0.00103723
     atom   22 type  1   force =     0.00020365    0.00005012    0.00072706
     atom   23 type  1   force =    -0.00098563   -0.00024003    0.00030836
     atom   24 type  1   force =     0.00104575    0.00025363   -0.00055222
     atom   25 type  1   force =    -0.00011665   -0.00002865    0.00066990
     atom   26 type  1   force =    -0.00025077   -0.00006141    0.00138973
     atom   27 type  1   force =     0.00103431    0.00025112    0.00032461
     atom   28 type  1   force =    -0.00115581   -0.00028098   -0.00043834
     atom   29 type  1   force =    -0.00011661   -0.00002815    0.00067012
     atom   30 type  1   force =    -0.00025099   -0.00006071    0.00138982
     atom   31 type  1   force =     0.00103403    0.00025199    0.00032449
     atom   32 type  1   force =    -0.00115614   -0.00028151   -0.00043887

     Total force =     0.088888     Total SCF correction =     0.005687


     Computing stress (Cartesian axis) and pressure

          total   stress  (Ry/bohr**3)                   (kbar)     P=      -10.66
  -0.00014302  -0.00000696   0.00002220          -21.04       -1.02        3.27
  -0.00000696  -0.00011614   0.00000540           -1.02      -17.08        0.79
   0.00002220   0.00000540   0.00004178            3.27        0.79        6.15

     kinetic stress (kbar)  14987.38      9.38     -4.41
                                9.38  14951.09     -1.07
                               -4.41     -1.07  15022.99

     local   stress (kbar)**********   3539.13  -1789.13
                             3539.13**********   -435.16
                            -1789.13   -435.161184848.18

     nonloc. stress (kbar)  -1615.17     -6.66      4.24
                               -6.66  -1589.43      1.03
                                4.24      1.03  -1620.64

     hartree stress (kbar) 619011.23  -1524.59    745.22
                            -1524.59 624907.24    181.25
                              745.22    181.25-550795.13

     exc-cor stress (kbar)  -7546.80     -0.94      0.57
                               -0.94  -7543.17      0.14
                                0.57      0.14  -7550.11

     corecor stress (kbar)      0.00      0.00      0.00
                                0.00      0.00      0.00
                                0.00      0.00      0.00

     ewald   stress (kbar) 545737.26  -2017.35   1046.78
                            -2017.35 553538.90    254.61
                             1046.78    254.61-639899.14

     hubbard stress (kbar)      0.00      0.00      0.00
                                0.00      0.00      0.00
                                0.00      0.00      0.00

     DFT-D   stress (kbar)      0.00      0.00      0.00
                                0.00      0.00      0.00
                                0.00      0.00      0.00

     XDM     stress (kbar)      0.00      0.00      0.00
                                0.00      0.00      0.00
                                0.00      0.00      0.00

     dft-nl  stress (kbar)      0.00      0.00      0.00
                                0.00      0.00      0.00
                                0.00      0.00      0.00

     TS-vdW  stress (kbar)      0.00      0.00      0.00
                                0.00      0.00      0.00
                                0.00      0.00      0.00

     MDB     stress (kbar)      0.00      0.00      0.00
                                0.00      0.00      0.00
                                0.00      0.00      0.00

     3D-RISM stress (kbar)      0.00      0.00      0.00
                                0.00      0.00      0.00
                                0.00      0.00      0.00


     Writing all to output data dir ./tmp/Zn002_2x2x4_scf.save/ :
     XML data file, charge density, pseudopotentials, collected wavefunctions

     init_run     :     21.73s CPU     22.31s WALL (       1 calls)
     electrons    :   1293.22s CPU   1318.58s WALL (       1 calls)
     forces       :     18.11s CPU     18.23s WALL (       1 calls)
     stress       :     50.07s CPU     50.31s WALL (       1 calls)

     Called by init_run:
     wfcinit      :     21.37s CPU     21.92s WALL (       1 calls)
     wfcinit:atom :      0.03s CPU      0.04s WALL (       5 calls)
     wfcinit:wfcr :     21.04s CPU     21.54s WALL (       5 calls)
     potinit      :      0.05s CPU      0.06s WALL (       1 calls)
     hinit0       :      0.02s CPU      0.02s WALL (       1 calls)

     Called by electrons:
     c_bands      :   1187.09s CPU   1208.62s WALL (      16 calls)
     sum_band     :    101.83s CPU    105.46s WALL (      16 calls)
     v_of_rho     :      0.78s CPU      0.81s WALL (      16 calls)
     v_h          :      0.04s CPU      0.05s WALL (      16 calls)
     v_xc         :      0.73s CPU      0.76s WALL (      16 calls)
     newd         :      3.67s CPU      3.81s WALL (      16 calls)
     mix_rho      :      0.08s CPU      0.09s WALL (      16 calls)

     Called by c_bands:
     init_us_2    :      2.15s CPU      2.17s WALL (     175 calls)
     cegterg      :   1182.87s CPU   1204.34s WALL (      80 calls)

     Called by sum_band:
     sum_band:wei :      0.03s CPU      0.03s WALL (      16 calls)
     sum_band:loo :     98.82s CPU    102.31s WALL (      16 calls)
     sum_band:buf :      0.36s CPU      0.38s WALL (      80 calls)
     sum_band:ini :      0.96s CPU      0.97s WALL (      80 calls)
     sum_band:cal :     67.83s CPU     68.20s WALL (      80 calls)
     sum_band:bec :      0.71s CPU      0.71s WALL (      80 calls)
     addusdens    :      2.84s CPU      2.98s WALL (      16 calls)
                                        0.00s GPU  (      16 calls)
     addusd:skk   :      0.04s CPU      0.04s WALL (      16 calls)
                                        0.00s GPU  (      16 calls)

     Called by *egterg:
     cdiaghg      :    107.17s CPU    109.56s WALL (     489 calls)
     cegterg:over :    179.52s CPU    180.21s WALL (     414 calls)
     cegterg:upda :     66.55s CPU     66.81s WALL (     414 calls)
     cegterg:last :    233.22s CPU    234.22s WALL (     154 calls)
     cdiaghg:chol :      6.48s CPU      6.50s WALL (     489 calls)
     cdiaghg:inve :      1.51s CPU      1.52s WALL (     489 calls)
     cdiaghg:para :     28.82s CPU     29.63s WALL (     978 calls)
     h_psi        :    432.62s CPU    449.28s WALL (     499 calls)
     s_psi        :    138.91s CPU    139.25s WALL (     499 calls)
     g_psi        :      0.31s CPU      0.31s WALL (     414 calls)

     Called by h_psi:
     h_psi:calbec :    160.92s CPU    161.80s WALL (     499 calls)
     vloc_psi     :    131.02s CPU    145.97s WALL (     499 calls)
     add_vuspsi   :    140.02s CPU    140.43s WALL (     499 calls)

     General routines
     calbec       :    249.94s CPU    251.30s WALL (     604 calls)
     fft          :      0.42s CPU      0.47s WALL (     185 calls)
     ffts         :      0.03s CPU      0.04s WALL (      16 calls)
     fftw         :    148.99s CPU    165.79s WALL (  176592 calls)

     Parallel routines

     PWSCF        :  23m 3.84s CPU  23m32.59s WALL


   This run was terminated on:  22:10:15  15Mar2025            

=------------------------------------------------------------------------------=
   JOB DONE.
=------------------------------------------------------------------------------=
Note: The following floating-point exceptions are signalling: IEEE_DENORMAL
Note: The following floating-point exceptions are signalling: IEEE_DENORMAL
Note: The following floating-point exceptions are signalling: IEEE_DENORMAL
Note: The following floating-point exceptions are signalling: IEEE_DENORMAL
Note: The following floating-point exceptions are signalling: IEEE_DENORMAL
Note: The following floating-point exceptions are signalling: IEEE_DENORMAL
Note: The following floating-point exceptions are signalling: IEEE_DENORMAL
