--------------------------------------------------------------------------
By default, for Open MPI 4.0 and later, infiniband ports on a device
are not used by default.  The intent is to use UCX for these devices.
You can override this policy by setting the btl_openib_allow_ib MCA parameter
to true.

  Local host:              psid05
  Local adapter:           mlx4_0
  Local port:              1

--------------------------------------------------------------------------
--------------------------------------------------------------------------
WARNING: There was an error initializing an OpenFabrics device.

  Local host:   psid05
  Local device: mlx4_0
--------------------------------------------------------------------------

     Program PWSCF v.7.3.1 starts on 16Mar2025 at  0:36: 5 

     This program is part of the open-source Quantum ESPRESSO suite
     for quantum simulation of materials; please cite
         "P. Giannozzi et al., J. Phys.:Condens. Matter 21 395502 (2009);
         "P. Giannozzi et al., J. Phys.:Condens. Matter 29 465901 (2017);
         "P. Giannozzi et al., J. Chem. Phys. 152 154105 (2020);
          URL http://www.quantum-espresso.org", 
     in publications or presentations arising from this work. More details at
     http://www.quantum-espresso.org/quote

     Parallel version (MPI), running on    30 processors

     MPI processes distributed on     1 nodes
     107659 MiB available memory on the printing compute node when the environment starts

     Waiting for input...
     Reading input from standard input

     Current dimensions of program PWSCF are:
     Max number of different atomic species (ntypx) = 10
     Max number of k-points (npk) =  40000
     Max angular momentum in pseudopotentials (lmaxx) =  4
     Found identity + (  0.0000 -0.5000  0.0000) symmetry
     This is a supercell, fractional translations are disabled

     R & G space division:  proc/nbgrp/npool/nimage =      30
     Subspace diagonalization in iterative solution of the eigenvalue problem:
     one sub-group per band group will be used
     custom distributed-memory algorithm (size of sub-group:  4*  4 procs)


     Parallelization info
     --------------------
     sticks:   dense  smooth     PW     G-vecs:    dense   smooth      PW
     Min          96      96     26                12619    12619    1765
     Max          97      97     27                12634    12634    1778
     Sum        2903    2903    785               378759   378759   53071

     Using Slab Decomposition



     bravais-lattice index     =            0
     lattice parameter (alat)  =      18.4179  a.u.
     unit-cell volume          =    7929.1084 (a.u.)^3
     number of atoms/cell      =           32
     number of atomic types    =            1
     number of electrons       =       640.00
     number of Kohn-Sham states=          384
     kinetic-energy cutoff     =      50.0000  Ry
     charge density cutoff     =     200.0000  Ry
     scf convergence threshold =      7.3E-07
     mixing beta               =       0.7000
     number of iterations used =            8  plain     mixing
     Exchange-correlation= SLA  PW   PBE  PBE
                           (   1   4   3   4   0   0   0)

     celldm(1)=  18.417879  celldm(2)=   0.000000  celldm(3)=   0.000000
     celldm(4)=   0.000000  celldm(5)=   0.000000  celldm(6)=   0.000000

     crystal axes: (cart. coord. in units of alat)
               a(1) = (   1.000000   0.000000   0.000000 )  
               a(2) = (   0.000000   0.536481   0.000000 )  
               a(3) = (   0.000000  -1.365810   2.365652 )  

     reciprocal axes: (cart. coord. in units 2 pi/alat)
               b(1) = (  1.000000  0.000000 -0.000000 )  
               b(2) = ( -0.000000  1.863998  1.076180 )  
               b(3) = (  0.000000  0.000000  0.422716 )  


     PseudoPot. # 1 for Zn read from file:
     /home/ys/qepseudo/SSSP_1.3.0_PBE_efficiency/Zn_pbe_v1.uspp.F.UPF
     MD5 check sum: df62231357ef9e81f77b2b3087fa5675
     Pseudo is Ultrasoft, Zval = 20.0
     Generated by new atomic code, or converted to UPF format
     Using radial grid of  943 points,  6 beta functions with: 
                l(1) =   0
                l(2) =   0
                l(3) =   1
                l(4) =   1
                l(5) =   2
                l(6) =   2
     Q(r) pseudized with  8 coefficients,  rinner =    1.100   1.100   1.100
                                                       1.100   1.100

     atomic species   valence    mass     pseudopotential
     Zn               20.00    65.38000     Zn( 1.00)

     No symmetry found


                                    s                        frac. trans.

      isym =  1     identity                                     

 cryst.   s( 1) = (     1          0          0      )
                  (     0          1          0      )
                  (     0          0          1      )

 cart.    s( 1) = (  1.0000000  0.0000000  0.0000000 )
                  (  0.0000000  1.0000000 -0.0000000 )
                  (  0.0000000  0.0000000  1.0000000 )


   Cartesian axes

     site n.     atom                  positions (alat units)
         1        Zn     tau(   1) = (   0.1250000   0.1341203   0.0774344  )
         2        Zn     tau(   2) = (   0.1250000   0.0000000   0.3097376  )
         3        Zn     tau(   3) = (   0.1252274  -0.1341230   0.5810209  )
         4        Zn     tau(   4) = (   0.1252343  -0.2682335   0.8536748  )
         5        Zn     tau(   5) = (   0.1250000   0.4023610   0.0774344  )
         6        Zn     tau(   6) = (   0.1250000   0.2682407   0.3097376  )
         7        Zn     tau(   7) = (   0.1252273   0.1341177   0.5810211  )
         8        Zn     tau(   8) = (   0.1252343   0.0000071   0.8536747  )
         9        Zn     tau(   9) = (   0.6250000   0.1341203   0.0774344  )
        10        Zn     tau(  10) = (   0.6250000   0.0000000   0.3097376  )
        11        Zn     tau(  11) = (   0.6247544  -0.1341232   0.5808336  )
        12        Zn     tau(  12) = (   0.6247716  -0.2682336   0.8536785  )
        13        Zn     tau(  13) = (   0.6250000   0.4023610   0.0774344  )
        14        Zn     tau(  14) = (   0.6250000   0.2682407   0.3097376  )
        15        Zn     tau(  15) = (   0.6247545   0.1341174   0.5808334  )
        16        Zn     tau(  16) = (   0.6247717   0.0000071   0.8536785  )
        17        Zn     tau(  17) = (   0.3750000  -0.0000000   0.1548688  )
        18        Zn     tau(  18) = (   0.3750000  -0.1341203   0.3871721  )
        19        Zn     tau(  19) = (   0.3749045  -0.2682370   0.6231456  )
        20        Zn     tau(  20) = (   0.3748936  -0.4023530   0.8690866  )
        21        Zn     tau(  21) = (   0.3750000   0.2682407   0.1548688  )
        22        Zn     tau(  22) = (   0.3750000   0.1341203   0.3871721  )
        23        Zn     tau(  23) = (   0.3749046   0.0000037   0.6231455  )
        24        Zn     tau(  24) = (   0.3748935  -0.1341123   0.8690865  )
        25        Zn     tau(  25) = (   0.8750000  -0.0000000   0.1548688  )
        26        Zn     tau(  26) = (   0.8750000  -0.1341203   0.3871721  )
        27        Zn     tau(  27) = (   0.8750648  -0.2682369   0.6230150  )
        28        Zn     tau(  28) = (   0.8751138  -0.4023527   0.8691801  )
        29        Zn     tau(  29) = (   0.8750000   0.2682407   0.1548688  )
        30        Zn     tau(  30) = (   0.8750000   0.1341203   0.3871721  )
        31        Zn     tau(  31) = (   0.8750650   0.0000037   0.6230149  )
        32        Zn     tau(  32) = (   0.8751139  -0.1341120   0.8691802  )

   Crystallographic axes

     site n.     atom                  positions (cryst. coord.)
         1        Zn     tau(   1) = (  0.1250000  0.3333333  0.0327328  )
         2        Zn     tau(   2) = (  0.1250000  0.3333333  0.1309312  )
         3        Zn     tau(   3) = (  0.1252274  0.3752778  0.2456071  )
         4        Zn     tau(   4) = (  0.1252343  0.4187207  0.3608623  )
         5        Zn     tau(   5) = (  0.1250000  0.8333333  0.0327328  )
         6        Zn     tau(   6) = (  0.1250000  0.8333333  0.1309312  )
         7        Zn     tau(   7) = (  0.1252273  0.8752780  0.2456071  )
         8        Zn     tau(   8) = (  0.1252343  0.9187206  0.3608623  )
         9        Zn     tau(   9) = (  0.6250000  0.3333333  0.0327328  )
        10        Zn     tau(  10) = (  0.6250000  0.3333333  0.1309312  )
        11        Zn     tau(  11) = (  0.6247544  0.3750759  0.2455279  )
        12        Zn     tau(  12) = (  0.6247716  0.4187246  0.3608639  )
        13        Zn     tau(  13) = (  0.6250000  0.8333333  0.0327328  )
        14        Zn     tau(  14) = (  0.6250000  0.8333333  0.1309312  )
        15        Zn     tau(  15) = (  0.6247545  0.8750757  0.2455278  )
        16        Zn     tau(  16) = (  0.6247717  0.9187247  0.3608639  )
        17        Zn     tau(  17) = (  0.3750000  0.1666667  0.0654656  )
        18        Zn     tau(  18) = (  0.3750000  0.1666667  0.1636640  )
        19        Zn     tau(  19) = (  0.3749045  0.1706234  0.2634138  )
        20        Zn     tau(  20) = (  0.3748936  0.1853081  0.3673772  )
        21        Zn     tau(  21) = (  0.3750000  0.6666667  0.0654656  )
        22        Zn     tau(  22) = (  0.3750000  0.6666667  0.1636640  )
        23        Zn     tau(  23) = (  0.3749046  0.6706233  0.2634138  )
        24        Zn     tau(  24) = (  0.3748935  0.6853081  0.3673771  )
        25        Zn     tau(  25) = (  0.8750000  0.1666667  0.0654656  )
        26        Zn     tau(  26) = (  0.8750000  0.1666667  0.1636640  )
        27        Zn     tau(  27) = (  0.8750648  0.1704831  0.2633587  )
        28        Zn     tau(  28) = (  0.8751138  0.1854093  0.3674167  )
        29        Zn     tau(  29) = (  0.8750000  0.6666667  0.0654656  )
        30        Zn     tau(  30) = (  0.8750000  0.6666667  0.1636640  )
        31        Zn     tau(  31) = (  0.8750650  0.6704828  0.2633586  )
        32        Zn     tau(  32) = (  0.8751139  0.6854095  0.3674167  )

     number of k points=     5  Marzari-Vanderbilt smearing, width (Ry)=  0.0200
                       cart. coord. in units 2pi/alat
        k(    1) = (   0.0000000   0.0000000   0.0000000), wk =   0.2222222
        k(    2) = (   0.0000000   0.6213326   0.3587265), wk =   0.4444444
        k(    3) = (   0.3333333   0.0000000   0.0000000), wk =   0.4444444
        k(    4) = (   0.3333333   0.6213326   0.3587265), wk =   0.4444444
        k(    5) = (   0.3333333  -0.6213326  -0.3587265), wk =   0.4444444

                       cryst. coord.
        k(    1) = (   0.0000000   0.0000000   0.0000000), wk =   0.2222222
        k(    2) = (   0.0000000   0.3333333   0.0000000), wk =   0.4444444
        k(    3) = (   0.3333333   0.0000000   0.0000000), wk =   0.4444444
        k(    4) = (   0.3333333   0.3333333   0.0000000), wk =   0.4444444
        k(    5) = (   0.3333333  -0.3333333   0.0000000), wk =   0.4444444

     Dense  grid:   378759 G-vectors     FFT dimensions: (  90,  45, 240)

     Dynamical RAM for                 wfc:       9.25 MB

     Dynamical RAM for     wfc (w. buffer):      55.48 MB

     Dynamical RAM for           str. fact:       0.19 MB

     Dynamical RAM for           local pot:       0.00 MB

     Dynamical RAM for          nlocal pot:      13.87 MB

     Dynamical RAM for                qrad:       1.14 MB

     Dynamical RAM for          rho,v,vnew:       1.32 MB

     Dynamical RAM for               rhoin:       0.44 MB

     Dynamical RAM for            rho*nmix:       3.08 MB

     Dynamical RAM for           G-vectors:       0.82 MB

     Dynamical RAM for          h,s,v(r/c):       1.69 MB

     Dynamical RAM for          <psi|beta>:       3.38 MB

     Dynamical RAM for                 psi:      18.49 MB

     Dynamical RAM for                hpsi:      18.49 MB

     Dynamical RAM for                spsi:      18.49 MB

     Dynamical RAM for      wfcinit/wfcrot:      24.00 MB

     Dynamical RAM for           addusdens:      42.00 MB

     Dynamical RAM for          addusforce:      54.16 MB

     Dynamical RAM for         addusstress:      38.72 MB

     Estimated static dynamical RAM per process >      74.87 MB

     Estimated max dynamical RAM per process >     138.49 MB

     Estimated total dynamical RAM >       4.06 GB

     Initial potential from superposition of free atoms

     starting charge     639.9955, renormalised to     640.0000

     negative rho (up, down):  4.934E-03 0.000E+00
     Starting wfcs are  416 randomized atomic wfcs
[psid05:235656] 29 more processes have sent help message help-mpi-btl-openib.txt / ib port not selected
[psid05:235656] Set MCA parameter "orte_base_help_aggregate" to 0 to see all help / error messages
[psid05:235656] 29 more processes have sent help message help-mpi-btl-openib.txt / error in device init

     total cpu time spent up to now is       18.5 secs

     Self-consistent Calculation

     iteration #  1     ecut=    50.00 Ry     beta= 0.70
     Davidson diagonalization with overlap

---- Real-time Memory Report at c_bands before calling an iterative solver
           122 MiB given to the printing process from OS
             0 MiB allocation reported by mallinfo(arena+hblkhd)
        105127 MiB available memory on the node where the printing process lives
------------------
     ethr =  1.00E-02,  avg # of iterations =  7.8

     Threshold (ethr) on eigenvalues was too large:
     Diagonalizing with lowered threshold

     Davidson diagonalization with overlap

---- Real-time Memory Report at c_bands before calling an iterative solver
           168 MiB given to the printing process from OS
             0 MiB allocation reported by mallinfo(arena+hblkhd)
        104427 MiB available memory on the node where the printing process lives
------------------
     ethr =  1.41E-04,  avg # of iterations =  5.8

     negative rho (up, down):  4.339E-03 0.000E+00

     total cpu time spent up to now is      156.7 secs

     total energy              =  -14769.01860581 Ry
     estimated scf accuracy    <       0.91416070 Ry

     iteration #  2     ecut=    50.00 Ry     beta= 0.70
     Davidson diagonalization with overlap

---- Real-time Memory Report at c_bands before calling an iterative solver
           169 MiB given to the printing process from OS
             0 MiB allocation reported by mallinfo(arena+hblkhd)
        104431 MiB available memory on the node where the printing process lives
------------------
     ethr =  1.43E-04,  avg # of iterations =  3.4

     negative rho (up, down):  4.300E-03 0.000E+00

     total cpu time spent up to now is      248.7 secs

     total energy              =  -14768.48732531 Ry
     estimated scf accuracy    <       4.62092797 Ry

     iteration #  3     ecut=    50.00 Ry     beta= 0.70
     Davidson diagonalization with overlap

---- Real-time Memory Report at c_bands before calling an iterative solver
           171 MiB given to the printing process from OS
             0 MiB allocation reported by mallinfo(arena+hblkhd)
        104316 MiB available memory on the node where the printing process lives
------------------
     ethr =  1.43E-04,  avg # of iterations =  9.2

     negative rho (up, down):  4.209E-03 0.000E+00

     total cpu time spent up to now is      338.5 secs

     total energy              =  -14767.69265645 Ry
     estimated scf accuracy    <      41.93573179 Ry

     iteration #  4     ecut=    50.00 Ry     beta= 0.70
     Davidson diagonalization with overlap

---- Real-time Memory Report at c_bands before calling an iterative solver
           171 MiB given to the printing process from OS
             0 MiB allocation reported by mallinfo(arena+hblkhd)
        104306 MiB available memory on the node where the printing process lives
------------------
     ethr =  1.43E-04,  avg # of iterations =  9.2

     negative rho (up, down):  4.119E-03 0.000E+00

     total cpu time spent up to now is      418.3 secs

     total energy              =  -14769.45072186 Ry
     estimated scf accuracy    <       0.01719991 Ry

     iteration #  5     ecut=    50.00 Ry     beta= 0.70
     Davidson diagonalization with overlap

---- Real-time Memory Report at c_bands before calling an iterative solver
           172 MiB given to the printing process from OS
             0 MiB allocation reported by mallinfo(arena+hblkhd)
        104294 MiB available memory on the node where the printing process lives
------------------
     ethr =  2.69E-06,  avg # of iterations = 12.0

     negative rho (up, down):  4.126E-03 0.000E+00

     total cpu time spent up to now is      509.5 secs

     total energy              =  -14769.44978851 Ry
     estimated scf accuracy    <       0.01719603 Ry

     iteration #  6     ecut=    50.00 Ry     beta= 0.70
     Davidson diagonalization with overlap

---- Real-time Memory Report at c_bands before calling an iterative solver
           172 MiB given to the printing process from OS
             0 MiB allocation reported by mallinfo(arena+hblkhd)
        104280 MiB available memory on the node where the printing process lives
------------------
     ethr =  2.69E-06,  avg # of iterations =  8.2

     negative rho (up, down):  4.121E-03 0.000E+00

     total cpu time spent up to now is      575.9 secs

     total energy              =  -14769.45168098 Ry
     estimated scf accuracy    <       0.01395279 Ry

     iteration #  7     ecut=    50.00 Ry     beta= 0.70
     Davidson diagonalization with overlap

---- Real-time Memory Report at c_bands before calling an iterative solver
           173 MiB given to the printing process from OS
             0 MiB allocation reported by mallinfo(arena+hblkhd)
        104268 MiB available memory on the node where the printing process lives
------------------
     ethr =  2.18E-06,  avg # of iterations =  2.6

     negative rho (up, down):  4.120E-03 0.000E+00

     total cpu time spent up to now is      636.8 secs

     total energy              =  -14769.45291270 Ry
     estimated scf accuracy    <       0.00064612 Ry

     iteration #  8     ecut=    50.00 Ry     beta= 0.70
     Davidson diagonalization with overlap

---- Real-time Memory Report at c_bands before calling an iterative solver
           173 MiB given to the printing process from OS
             0 MiB allocation reported by mallinfo(arena+hblkhd)
        104255 MiB available memory on the node where the printing process lives
------------------
     ethr =  1.01E-07,  avg # of iterations =  2.0

     negative rho (up, down):  4.119E-03 0.000E+00

     total cpu time spent up to now is      698.3 secs

     total energy              =  -14769.45299573 Ry
     estimated scf accuracy    <       0.00022337 Ry

     iteration #  9     ecut=    50.00 Ry     beta= 0.70
     Davidson diagonalization with overlap

---- Real-time Memory Report at c_bands before calling an iterative solver
           173 MiB given to the printing process from OS
             0 MiB allocation reported by mallinfo(arena+hblkhd)
        104245 MiB available memory on the node where the printing process lives
------------------
     ethr =  3.49E-08,  avg # of iterations =  2.0

     negative rho (up, down):  4.120E-03 0.000E+00

     total cpu time spent up to now is      757.6 secs

     total energy              =  -14769.45302311 Ry
     estimated scf accuracy    <       0.00008465 Ry

     iteration # 10     ecut=    50.00 Ry     beta= 0.70
     Davidson diagonalization with overlap

---- Real-time Memory Report at c_bands before calling an iterative solver
           174 MiB given to the printing process from OS
             0 MiB allocation reported by mallinfo(arena+hblkhd)
        104231 MiB available memory on the node where the printing process lives
------------------
     ethr =  1.32E-08,  avg # of iterations =  2.0

     negative rho (up, down):  4.121E-03 0.000E+00

     total cpu time spent up to now is      816.5 secs

     total energy              =  -14769.45303676 Ry
     estimated scf accuracy    <       0.00001229 Ry

     iteration # 11     ecut=    50.00 Ry     beta= 0.70
     Davidson diagonalization with overlap

---- Real-time Memory Report at c_bands before calling an iterative solver
           174 MiB given to the printing process from OS
             0 MiB allocation reported by mallinfo(arena+hblkhd)
        104220 MiB available memory on the node where the printing process lives
------------------
     ethr =  1.92E-09,  avg # of iterations =  2.0

     negative rho (up, down):  4.121E-03 0.000E+00

     total cpu time spent up to now is      877.6 secs

     total energy              =  -14769.45303853 Ry
     estimated scf accuracy    <       0.00000174 Ry

     iteration # 12     ecut=    50.00 Ry     beta= 0.70
     Davidson diagonalization with overlap

---- Real-time Memory Report at c_bands before calling an iterative solver
           174 MiB given to the printing process from OS
             0 MiB allocation reported by mallinfo(arena+hblkhd)
        104209 MiB available memory on the node where the printing process lives
------------------
     ethr =  2.71E-10,  avg # of iterations =  2.0

     negative rho (up, down):  4.121E-03 0.000E+00

     total cpu time spent up to now is      946.5 secs

     End of self-consistent calculation

          k = 0.0000 0.0000 0.0000 ( 47357 PWs)   bands (ev):

  -123.4956-123.4942-123.4938-123.4924-123.4406-123.4388-123.4358-123.4340
  -123.4304-123.4299-123.4287-123.4281-123.2559-123.2553-123.2541-123.2536
  -123.2475-123.2460-123.2458-123.2442-123.2337-123.2333-123.2319-123.2315
  -123.1297-123.1279-123.1252-123.1234-123.0171-123.0154-123.0151-123.0134
   -77.6615 -77.6601 -77.6506 -77.6491 -77.6480 -77.6465 -77.6390 -77.6375
   -77.6368 -77.6367 -77.6353 -77.6353 -77.6073 -77.6025 -77.5949 -77.5943
   -77.5906 -77.5893 -77.5860 -77.5852 -77.5846 -77.5837 -77.5834 -77.5832
   -77.5831 -77.5815 -77.5810 -77.5809 -77.5804 -77.5802 -77.5791 -77.5785
   -77.5785 -77.5783 -77.5705 -77.5699 -77.4185 -77.4180 -77.4141 -77.4135
   -77.4122 -77.4116 -77.4104 -77.4099 -77.4091 -77.4083 -77.4079 -77.4065
   -77.4021 -77.4015 -77.4009 -77.4001 -77.3998 -77.3996 -77.3990 -77.3990
   -77.3983 -77.3980 -77.3973 -77.3965 -77.3943 -77.3938 -77.3890 -77.3881
   -77.3840 -77.3825 -77.3724 -77.3714 -77.3706 -77.3701 -77.3650 -77.3646
   -77.2979 -77.2961 -77.2936 -77.2917 -77.2885 -77.2839 -77.2698 -77.2676
   -77.2654 -77.2641 -77.2632 -77.2595 -77.1797 -77.1778 -77.1778 -77.1759
   -77.1704 -77.1704 -77.1686 -77.1684 -77.1682 -77.1666 -77.1462 -77.1442
    -6.8166  -5.8676  -5.7417  -5.4510  -5.2818  -5.2110  -5.1781  -5.1366
    -5.1054  -5.1010  -5.1005  -5.0819  -5.0783  -5.0767  -5.0710  -5.0298
    -5.0263  -4.9424  -4.9324  -4.9300  -4.9257  -4.9224  -4.8970  -4.8875
    -4.8821  -4.8744  -4.8338  -4.8191  -4.8170  -4.7888  -4.7657  -4.7470
    -4.7452  -4.7306  -4.7112  -4.6913  -4.6503  -4.6458  -4.6336  -4.6290
    -4.5978  -4.5971  -4.5898  -4.5792  -4.5552  -4.5523  -4.5464  -4.5306
    -4.5178  -4.5163  -4.5150  -4.5063  -4.4727  -4.4697  -4.4572  -4.3922
    -4.3918  -4.3778  -4.3736  -4.3733  -4.3724  -4.3664  -4.3451  -4.3430
    -4.3230  -4.3216  -4.3147  -4.3084  -4.2790  -4.2774  -4.2626  -4.2485
    -4.2406  -4.2377  -4.2300  -4.2158  -4.2068  -4.1964  -4.1959  -4.1927
    -4.1884  -4.1865  -4.1756  -4.1742  -4.1640  -4.1476  -4.1364  -4.1118
    -4.1021  -4.0959  -4.0923  -4.0627  -4.0509  -4.0508  -4.0458  -4.0342
    -4.0285  -4.0207  -4.0151  -4.0094  -4.0033  -4.0011  -3.9829  -3.9754
    -3.9733  -3.9685  -3.9612  -3.9601  -3.9559  -3.9485  -3.9340  -3.9115
    -3.9053  -3.9043  -3.9023  -3.9015  -3.8855  -3.8823  -3.8776  -3.8714
    -3.8696  -3.8684  -3.8648  -3.8618  -3.8381  -3.8379  -3.8317  -3.8217
    -3.8198  -3.8146  -3.8067  -3.7865  -3.7865  -3.7852  -3.7506  -3.7477
    -3.7452  -3.7442  -3.7342  -3.7319  -3.7245  -3.7227  -3.7150  -3.7145
    -3.6951  -3.6930  -3.6914  -3.6745  -3.6676  -3.6643  -3.6582  -3.6577
    -3.6497  -3.6273  -3.6199  -3.6108  -3.5993  -3.5893  -3.5837  -3.5810
    -3.5148  -3.4155  -3.4096  -3.4066  -3.3613  -3.3479  -3.2995  -2.0138
    -1.9120  -1.2330  -0.4261  -0.4257   0.1593   0.1994   0.2982   0.3971
     0.6403   0.7341   0.7540   0.8586   0.9407   1.0909   1.2021   1.3605
     1.5313   1.6740   1.7571   1.8140   1.8321   2.1247   2.2568   2.6461
     2.6900   2.9450   2.9509   3.7243   3.7643   4.0740   4.1087   4.1612
     4.2477   4.3365   4.7951   5.1014   5.2861   5.4729   5.6825   5.7612
     5.7887   6.0194   6.0320   6.0413   6.1278   6.4021   6.4137   6.6693
     6.8099   6.8925   7.0213   7.0964   7.1302   7.3424   7.3670   7.7674
     7.8174   8.1434   8.1623   8.3927   8.4767   8.5104   8.5887   8.6589
     8.6922   8.6923   8.7189   8.7664   8.8074   8.8216   8.8784   8.9029
     9.1335   9.3525   9.4276   9.5583   9.5623   9.5670   9.6830  10.2367
    10.2435  10.3697  10.5870  10.6158  10.6308  10.7611  10.7649  10.7796

     occupation numbers 
     1.0000   1.0000   1.0000   1.0000   1.0000   1.0000   1.0000   1.0000
     1.0000   1.0000   1.0000   1.0000   1.0000   1.0000   1.0000   1.0000
     1.0000   1.0000   1.0000   1.0000   1.0000   1.0000   1.0000   1.0000
     1.0000   1.0000   1.0000   1.0000   1.0000   1.0000   1.0000   1.0000
     1.0000   1.0000   1.0000   1.0000   1.0000   1.0000   1.0000   1.0000
     1.0000   1.0000   1.0000   1.0000   1.0000   1.0000   1.0000   1.0000
     1.0000   1.0000   1.0000   1.0000   1.0000   1.0000   1.0000   1.0000
     1.0000   1.0000   1.0000   1.0000   1.0000   1.0000   1.0000   1.0000
     1.0000   1.0000   1.0000   1.0000   1.0000   1.0000   1.0000   1.0000
     1.0000   1.0000   1.0000   1.0000   1.0000   1.0000   1.0000   1.0000
     1.0000   1.0000   1.0000   1.0000   1.0000   1.0000   1.0000   1.0000
     1.0000   1.0000   1.0000   1.0000   1.0000   1.0000   1.0000   1.0000
     1.0000   1.0000   1.0000   1.0000   1.0000   1.0000   1.0000   1.0000
     1.0000   1.0000   1.0000   1.0000   1.0000   1.0000   1.0000   1.0000
     1.0000   1.0000   1.0000   1.0000   1.0000   1.0000   1.0000   1.0000
     1.0000   1.0000   1.0000   1.0000   1.0000   1.0000   1.0000   1.0000
     1.0000   1.0000   1.0000   1.0000   1.0000   1.0000   1.0000   1.0000
     1.0000   1.0000   1.0000   1.0000   1.0000   1.0000   1.0000   1.0000
     1.0000   1.0000   1.0000   1.0000   1.0000   1.0000   1.0000   1.0000
     1.0000   1.0000   1.0000   1.0000   1.0000   1.0000   1.0000   1.0000
     1.0000   1.0000   1.0000   1.0000   1.0000   1.0000   1.0000   1.0000
     1.0000   1.0000   1.0000   1.0000   1.0000   1.0000   1.0000   1.0000
     1.0000   1.0000   1.0000   1.0000   1.0000   1.0000   1.0000   1.0000
     1.0000   1.0000   1.0000   1.0000   1.0000   1.0000   1.0000   1.0000
     1.0000   1.0000   1.0000   1.0000   1.0000   1.0000   1.0000   1.0000
     1.0000   1.0000   1.0000   1.0000   1.0000   1.0000   1.0000   1.0000
     1.0000   1.0000   1.0000   1.0000   1.0000   1.0000   1.0000   1.0000
     1.0000   1.0000   1.0000   1.0000   1.0000   1.0000   1.0000   1.0000
     1.0000   1.0000   1.0000   1.0000   1.0000   1.0000   1.0000   1.0000
     1.0000   1.0000   1.0000   1.0000   1.0000   1.0000   1.0000   1.0000
     1.0000   1.0000   1.0000   1.0000   1.0000   1.0000   1.0000   1.0000
     1.0000   1.0000   1.0000   1.0000   1.0000   1.0000   1.0000   1.0000
     1.0000   1.0000   1.0000   1.0000   1.0000   1.0000   1.0000   1.0000
     1.0000   1.0000   1.0000   1.0000   1.0000   1.0000   1.0000   1.0000
     1.0000   1.0000   1.0000   1.0000   1.0000   1.0000   1.0000   1.0000
     1.0000   1.0000   1.0000   1.0000   1.0000   1.0000   1.0000   1.0000
     1.0000   1.0000   1.0000   1.0000   1.0000   1.0000   1.0000   1.0000
     1.0000   1.0000   1.0000   1.0000   1.0000   1.0000   1.0000   1.0000
     1.0000   1.0000   1.0000   1.0000   1.0000   1.0000   1.0000   1.0000
     1.0000   1.0000   1.0000   1.0000   1.0000   1.0000   1.0000   1.0073
     1.0126   1.0815   1.0822   0.0073   0.0039   0.0000   0.0000   0.0000
     0.0000   0.0000   0.0000   0.0000   0.0000   0.0000   0.0000   0.0000
     0.0000   0.0000   0.0000   0.0000   0.0000   0.0000   0.0000   0.0000
     0.0000   0.0000   0.0000   0.0000   0.0000   0.0000   0.0000   0.0000
     0.0000   0.0000   0.0000   0.0000   0.0000   0.0000   0.0000   0.0000
     0.0000   0.0000   0.0000   0.0000   0.0000   0.0000   0.0000   0.0000
     0.0000   0.0000   0.0000   0.0000   0.0000   0.0000   0.0000   0.0000
     0.0000   0.0000   0.0000   0.0000   0.0000   0.0000   0.0000   0.0000

          k = 0.0000 0.6213 0.3587 ( 47360 PWs)   bands (ev):

  -123.4952-123.4943-123.4937-123.4928-123.4402-123.4393-123.4354-123.4345
  -123.4300-123.4294-123.4291-123.4286-123.2554-123.2549-123.2545-123.2540
  -123.2471-123.2462-123.2456-123.2447-123.2333-123.2328-123.2324-123.2319
  -123.1292-123.1283-123.1247-123.1239-123.0167-123.0158-123.0147-123.0138
   -77.6554 -77.6539 -77.6499 -77.6486 -77.6484 -77.6471 -77.6429 -77.6415
   -77.6384 -77.6373 -77.6369 -77.6359 -77.6014 -77.5966 -77.5903 -77.5896
   -77.5894 -77.5889 -77.5883 -77.5856 -77.5849 -77.5846 -77.5845 -77.5836
   -77.5832 -77.5826 -77.5821 -77.5815 -77.5804 -77.5798 -77.5798 -77.5795
   -77.5789 -77.5788 -77.5766 -77.5761 -77.4136 -77.4130 -77.4127 -77.4125
   -77.4121 -77.4120 -77.4099 -77.4094 -77.4090 -77.4086 -77.4022 -77.4016
   -77.4010 -77.4008 -77.4006 -77.4004 -77.4002 -77.4001 -77.3998 -77.3993
   -77.3992 -77.3986 -77.3985 -77.3978 -77.3977 -77.3969 -77.3901 -77.3887
   -77.3831 -77.3825 -77.3718 -77.3711 -77.3711 -77.3709 -77.3707 -77.3705
   -77.2975 -77.2965 -77.2931 -77.2922 -77.2825 -77.2779 -77.2703 -77.2692
   -77.2681 -77.2657 -77.2649 -77.2638 -77.1792 -77.1782 -77.1773 -77.1763
   -77.1699 -77.1690 -77.1678 -77.1670 -77.1644 -77.1624 -77.1523 -77.1503
    -6.1983  -5.3121  -5.2800  -5.0976  -5.0457  -5.0282  -5.0163  -5.0145
    -4.9829  -4.9610  -4.9544  -4.9525  -4.9293  -4.8986  -4.8749  -4.8539
    -4.8538  -4.8413  -4.8234  -4.8118  -4.7986  -4.7980  -4.7918  -4.7608
    -4.7488  -4.7445  -4.7310  -4.7153  -4.7035  -4.6963  -4.6842  -4.6728
    -4.6649  -4.6363  -4.6214  -4.6062  -4.5886  -4.5820  -4.5731  -4.5695
    -4.5470  -4.5446  -4.5443  -4.5333  -4.5184  -4.5149  -4.5102  -4.5026
    -4.4785  -4.4688  -4.4499  -4.4491  -4.4438  -4.4423  -4.4393  -4.4331
    -4.4127  -4.3902  -4.3766  -4.3671  -4.3625  -4.3556  -4.3548  -4.3448
    -4.3393  -4.3302  -4.3300  -4.3238  -4.3199  -4.3107  -4.2879  -4.2820
    -4.2814  -4.2772  -4.2764  -4.2706  -4.2534  -4.2497  -4.2475  -4.2355
    -4.2335  -4.2329  -4.2046  -4.1990  -4.1962  -4.1844  -4.1763  -4.1732
    -4.1722  -4.1520  -4.1482  -4.1241  -4.1152  -4.1132  -4.1099  -4.0917
    -4.0840  -4.0767  -4.0760  -4.0706  -4.0692  -4.0683  -4.0644  -4.0492
    -4.0395  -4.0391  -4.0389  -4.0305  -4.0207  -3.9883  -3.9847  -3.9828
    -3.9744  -3.9708  -3.9681  -3.9636  -3.9480  -3.9356  -3.9329  -3.9277
    -3.9216  -3.9205  -3.9128  -3.9087  -3.8810  -3.8779  -3.8715  -3.8647
    -3.8566  -3.8510  -3.8490  -3.8406  -3.8304  -3.8266  -3.8213  -3.8209
    -3.8169  -3.8161  -3.8079  -3.7989  -3.7886  -3.7834  -3.7736  -3.7728
    -3.7652  -3.7621  -3.7587  -3.7566  -3.7517  -3.7399  -3.7308  -3.7302
    -3.7166  -3.7136  -3.6939  -3.6816  -3.6748  -3.6735  -3.6615  -3.6388
    -3.5745  -3.5396  -3.4709  -3.4136  -3.3998  -2.8353  -2.7595  -2.7360
    -2.6463  -2.1887  -1.9444  -1.3471  -1.2762  -1.1773  -1.0800  -1.0355
    -0.6989   0.4558   0.5173   0.7256   0.9267   0.9603   1.1088   1.1334
     1.6936   1.9998   2.2052   2.3872   2.5393   2.6361   3.3799   3.4236
     3.4265   3.4293   3.4899   3.7337   3.7509   4.0942   4.3825   4.4019
     4.7330   5.4291   5.5108   5.5520   5.5669   5.6713   5.7282   5.8897
     5.9279   5.9380   6.3128   6.6026   6.7301   6.7327   6.7371   6.8512
     7.4324   7.4554   7.6419   7.7003   7.7417   8.0580   8.1666   8.3670
     8.4080   8.4241   8.4291   8.5008   8.6898   9.0880   9.1174   9.1390
     9.2150   9.2643   9.2682   9.4683   9.4850   9.5533   9.5982   9.9082
     9.9705  10.0062  10.0615  10.1310  10.1487  10.2067  10.2466  10.3031
    10.4530  10.5996  10.6435  10.7210  10.7989  10.8089  10.8361  10.8702

     occupation numbers 
     1.0000   1.0000   1.0000   1.0000   1.0000   1.0000   1.0000   1.0000
     1.0000   1.0000   1.0000   1.0000   1.0000   1.0000   1.0000   1.0000
     1.0000   1.0000   1.0000   1.0000   1.0000   1.0000   1.0000   1.0000
     1.0000   1.0000   1.0000   1.0000   1.0000   1.0000   1.0000   1.0000
     1.0000   1.0000   1.0000   1.0000   1.0000   1.0000   1.0000   1.0000
     1.0000   1.0000   1.0000   1.0000   1.0000   1.0000   1.0000   1.0000
     1.0000   1.0000   1.0000   1.0000   1.0000   1.0000   1.0000   1.0000
     1.0000   1.0000   1.0000   1.0000   1.0000   1.0000   1.0000   1.0000
     1.0000   1.0000   1.0000   1.0000   1.0000   1.0000   1.0000   1.0000
     1.0000   1.0000   1.0000   1.0000   1.0000   1.0000   1.0000   1.0000
     1.0000   1.0000   1.0000   1.0000   1.0000   1.0000   1.0000   1.0000
     1.0000   1.0000   1.0000   1.0000   1.0000   1.0000   1.0000   1.0000
     1.0000   1.0000   1.0000   1.0000   1.0000   1.0000   1.0000   1.0000
     1.0000   1.0000   1.0000   1.0000   1.0000   1.0000   1.0000   1.0000
     1.0000   1.0000   1.0000   1.0000   1.0000   1.0000   1.0000   1.0000
     1.0000   1.0000   1.0000   1.0000   1.0000   1.0000   1.0000   1.0000
     1.0000   1.0000   1.0000   1.0000   1.0000   1.0000   1.0000   1.0000
     1.0000   1.0000   1.0000   1.0000   1.0000   1.0000   1.0000   1.0000
     1.0000   1.0000   1.0000   1.0000   1.0000   1.0000   1.0000   1.0000
     1.0000   1.0000   1.0000   1.0000   1.0000   1.0000   1.0000   1.0000
     1.0000   1.0000   1.0000   1.0000   1.0000   1.0000   1.0000   1.0000
     1.0000   1.0000   1.0000   1.0000   1.0000   1.0000   1.0000   1.0000
     1.0000   1.0000   1.0000   1.0000   1.0000   1.0000   1.0000   1.0000
     1.0000   1.0000   1.0000   1.0000   1.0000   1.0000   1.0000   1.0000
     1.0000   1.0000   1.0000   1.0000   1.0000   1.0000   1.0000   1.0000
     1.0000   1.0000   1.0000   1.0000   1.0000   1.0000   1.0000   1.0000
     1.0000   1.0000   1.0000   1.0000   1.0000   1.0000   1.0000   1.0000
     1.0000   1.0000   1.0000   1.0000   1.0000   1.0000   1.0000   1.0000
     1.0000   1.0000   1.0000   1.0000   1.0000   1.0000   1.0000   1.0000
     1.0000   1.0000   1.0000   1.0000   1.0000   1.0000   1.0000   1.0000
     1.0000   1.0000   1.0000   1.0000   1.0000   1.0000   1.0000   1.0000
     1.0000   1.0000   1.0000   1.0000   1.0000   1.0000   1.0000   1.0000
     1.0000   1.0000   1.0000   1.0000   1.0000   1.0000   1.0000   1.0000
     1.0000   1.0000   1.0000   1.0000   1.0000   1.0000   1.0000   1.0000
     1.0000   1.0000   1.0000   1.0000   1.0000   1.0000   1.0000   1.0000
     1.0000   1.0000   1.0000   1.0000   1.0000   1.0000   1.0000   1.0000
     1.0000   1.0000   1.0000   1.0000   1.0000   1.0000   1.0000   1.0000
     1.0000   1.0000   1.0000   1.0000   1.0000   1.0000   1.0000   1.0000
     1.0000   1.0000   1.0000   1.0000   1.0000   1.0000   1.0000   1.0000
     1.0000   1.0000   1.0000   1.0001   1.0015   1.0064   0.3392   0.2457
     0.2401   0.2348   0.1378   0.0063   0.0048   0.0000   0.0000   0.0000
     0.0000   0.0000   0.0000   0.0000   0.0000   0.0000   0.0000   0.0000
     0.0000   0.0000   0.0000   0.0000   0.0000   0.0000   0.0000   0.0000
     0.0000   0.0000   0.0000   0.0000   0.0000   0.0000   0.0000   0.0000
     0.0000   0.0000   0.0000   0.0000   0.0000   0.0000   0.0000   0.0000
     0.0000   0.0000   0.0000   0.0000   0.0000   0.0000   0.0000   0.0000
     0.0000   0.0000   0.0000   0.0000   0.0000   0.0000   0.0000   0.0000
     0.0000   0.0000   0.0000   0.0000   0.0000   0.0000   0.0000   0.0000

          k = 0.3333 0.0000 0.0000 ( 47282 PWs)   bands (ev):

  -123.4956-123.4942-123.4938-123.4924-123.4406-123.4388-123.4358-123.4340
  -123.4304-123.4299-123.4287-123.4281-123.2559-123.2553-123.2541-123.2536
  -123.2475-123.2460-123.2458-123.2442-123.2337-123.2333-123.2319-123.2315
  -123.1297-123.1279-123.1252-123.1234-123.0171-123.0153-123.0151-123.0134
   -77.6615 -77.6601 -77.6506 -77.6491 -77.6480 -77.6465 -77.6389 -77.6375
   -77.6368 -77.6366 -77.6354 -77.6352 -77.6073 -77.6025 -77.5949 -77.5943
   -77.5906 -77.5893 -77.5860 -77.5852 -77.5846 -77.5837 -77.5834 -77.5832
   -77.5831 -77.5815 -77.5810 -77.5808 -77.5804 -77.5802 -77.5791 -77.5785
   -77.5785 -77.5783 -77.5705 -77.5699 -77.4185 -77.4180 -77.4140 -77.4134
   -77.4122 -77.4116 -77.4104 -77.4099 -77.4090 -77.4085 -77.4077 -77.4065
   -77.4020 -77.4015 -77.4007 -77.4001 -77.3998 -77.3996 -77.3991 -77.3989
   -77.3983 -77.3981 -77.3974 -77.3965 -77.3943 -77.3938 -77.3888 -77.3882
   -77.3840 -77.3825 -77.3722 -77.3716 -77.3706 -77.3701 -77.3650 -77.3646
   -77.2979 -77.2961 -77.2936 -77.2917 -77.2885 -77.2839 -77.2698 -77.2676
   -77.2654 -77.2641 -77.2632 -77.2595 -77.1797 -77.1778 -77.1778 -77.1759
   -77.1704 -77.1703 -77.1686 -77.1684 -77.1683 -77.1666 -77.1462 -77.1442
    -6.6493  -6.1876  -5.7259  -5.4189  -5.2735  -5.2588  -5.1586  -5.1346
    -5.1345  -5.1246  -5.1041  -5.0967  -5.0865  -5.0823  -5.0296  -5.0147
    -5.0020  -4.9944  -4.9513  -4.9497  -4.9453  -4.9088  -4.9013  -4.8669
    -4.8548  -4.8526  -4.8294  -4.8277  -4.8081  -4.7965  -4.7855  -4.7468
    -4.7169  -4.6909  -4.6830  -4.6520  -4.6495  -4.6395  -4.6378  -4.6244
    -4.6094  -4.5978  -4.5864  -4.5843  -4.5693  -4.5450  -4.5422  -4.5393
    -4.5287  -4.5209  -4.5095  -4.5093  -4.4996  -4.4934  -4.4913  -4.4859
    -4.4613  -4.4281  -4.4192  -4.4001  -4.3762  -4.3705  -4.3415  -4.3412
    -4.3315  -4.3285  -4.3150  -4.2936  -4.2754  -4.2738  -4.2700  -4.2642
    -4.2544  -4.2340  -4.2273  -4.2225  -4.2218  -4.2116  -4.1996  -4.1892
    -4.1786  -4.1754  -4.1750  -4.1661  -4.1634  -4.1457  -4.1140  -4.1128
    -4.1042  -4.1014  -4.0583  -4.0482  -4.0444  -4.0440  -4.0346  -4.0209
    -4.0196  -4.0191  -4.0070  -3.9974  -3.9958  -3.9951  -3.9841  -3.9810
    -3.9699  -3.9687  -3.9582  -3.9537  -3.9418  -3.9250  -3.9153  -3.9130
    -3.9075  -3.9049  -3.9005  -3.8923  -3.8903  -3.8831  -3.8710  -3.8684
    -3.8666  -3.8636  -3.8542  -3.8482  -3.8447  -3.8180  -3.8175  -3.8169
    -3.8129  -3.8119  -3.8029  -3.7857  -3.7766  -3.7761  -3.7692  -3.7570
    -3.7559  -3.7555  -3.7415  -3.7354  -3.7321  -3.7229  -3.7218  -3.7113
    -3.7085  -3.6981  -3.6836  -3.6819  -3.6746  -3.6619  -3.6610  -3.6574
    -3.6445  -3.6339  -3.6188  -3.6112  -3.5902  -3.5836  -3.5620  -3.5404
    -3.4889  -3.4707  -3.4501  -3.4027  -3.1992  -3.1363  -2.7564  -2.2274
    -1.5715  -1.1160  -0.8772  -0.5280  -0.4190  -0.2825  -0.2703   0.1625
     0.2060   0.5440   0.7594   0.8195   0.9674   1.1272   1.3171   1.3915
     1.7931   1.8803   1.9075   2.3544   2.3619   2.3642   2.5313   2.8050
     2.9811   3.4285   3.6061   3.7238   3.7689   3.9237   3.9791   4.1727
     4.6860   4.8553   4.9836   4.9939   5.0077   5.0249   5.2256   5.2767
     5.3060   5.3266   5.5839   6.0933   6.3022   6.4327   6.5863   6.6124
     6.7391   6.8082   7.0421   7.0821   7.0863   7.2400   7.3096   7.4411
     7.5244   7.8240   7.8838   7.9664   8.0741   8.1292   8.4797   8.4914
     8.5965   8.7336   8.7479   9.1630   9.2380   9.2715   9.3100   9.3702
     9.4286   9.6043   9.6590   9.7931   9.8071   9.8182   9.9122  10.0467
    10.1082  10.2922  10.5482  10.5590  10.7966  10.9672  11.1400  11.1444

     occupation numbers 
     1.0000   1.0000   1.0000   1.0000   1.0000   1.0000   1.0000   1.0000
     1.0000   1.0000   1.0000   1.0000   1.0000   1.0000   1.0000   1.0000
     1.0000   1.0000   1.0000   1.0000   1.0000   1.0000   1.0000   1.0000
     1.0000   1.0000   1.0000   1.0000   1.0000   1.0000   1.0000   1.0000
     1.0000   1.0000   1.0000   1.0000   1.0000   1.0000   1.0000   1.0000
     1.0000   1.0000   1.0000   1.0000   1.0000   1.0000   1.0000   1.0000
     1.0000   1.0000   1.0000   1.0000   1.0000   1.0000   1.0000   1.0000
     1.0000   1.0000   1.0000   1.0000   1.0000   1.0000   1.0000   1.0000
     1.0000   1.0000   1.0000   1.0000   1.0000   1.0000   1.0000   1.0000
     1.0000   1.0000   1.0000   1.0000   1.0000   1.0000   1.0000   1.0000
     1.0000   1.0000   1.0000   1.0000   1.0000   1.0000   1.0000   1.0000
     1.0000   1.0000   1.0000   1.0000   1.0000   1.0000   1.0000   1.0000
     1.0000   1.0000   1.0000   1.0000   1.0000   1.0000   1.0000   1.0000
     1.0000   1.0000   1.0000   1.0000   1.0000   1.0000   1.0000   1.0000
     1.0000   1.0000   1.0000   1.0000   1.0000   1.0000   1.0000   1.0000
     1.0000   1.0000   1.0000   1.0000   1.0000   1.0000   1.0000   1.0000
     1.0000   1.0000   1.0000   1.0000   1.0000   1.0000   1.0000   1.0000
     1.0000   1.0000   1.0000   1.0000   1.0000   1.0000   1.0000   1.0000
     1.0000   1.0000   1.0000   1.0000   1.0000   1.0000   1.0000   1.0000
     1.0000   1.0000   1.0000   1.0000   1.0000   1.0000   1.0000   1.0000
     1.0000   1.0000   1.0000   1.0000   1.0000   1.0000   1.0000   1.0000
     1.0000   1.0000   1.0000   1.0000   1.0000   1.0000   1.0000   1.0000
     1.0000   1.0000   1.0000   1.0000   1.0000   1.0000   1.0000   1.0000
     1.0000   1.0000   1.0000   1.0000   1.0000   1.0000   1.0000   1.0000
     1.0000   1.0000   1.0000   1.0000   1.0000   1.0000   1.0000   1.0000
     1.0000   1.0000   1.0000   1.0000   1.0000   1.0000   1.0000   1.0000
     1.0000   1.0000   1.0000   1.0000   1.0000   1.0000   1.0000   1.0000
     1.0000   1.0000   1.0000   1.0000   1.0000   1.0000   1.0000   1.0000
     1.0000   1.0000   1.0000   1.0000   1.0000   1.0000   1.0000   1.0000
     1.0000   1.0000   1.0000   1.0000   1.0000   1.0000   1.0000   1.0000
     1.0000   1.0000   1.0000   1.0000   1.0000   1.0000   1.0000   1.0000
     1.0000   1.0000   1.0000   1.0000   1.0000   1.0000   1.0000   1.0000
     1.0000   1.0000   1.0000   1.0000   1.0000   1.0000   1.0000   1.0000
     1.0000   1.0000   1.0000   1.0000   1.0000   1.0000   1.0000   1.0000
     1.0000   1.0000   1.0000   1.0000   1.0000   1.0000   1.0000   1.0000
     1.0000   1.0000   1.0000   1.0000   1.0000   1.0000   1.0000   1.0000
     1.0000   1.0000   1.0000   1.0000   1.0000   1.0000   1.0000   1.0000
     1.0000   1.0000   1.0000   1.0000   1.0000   1.0000   1.0000   1.0000
     1.0000   1.0000   1.0000   1.0000   1.0000   1.0000   1.0000   1.0000
     1.0000   1.0000   1.0000   1.0000   1.0001   1.0001   1.0013   1.0395
     1.0829   0.2363   0.0384   0.0074   0.0036   0.0002   0.0001   0.0000
     0.0000   0.0000   0.0000   0.0000   0.0000   0.0000   0.0000   0.0000
     0.0000   0.0000   0.0000   0.0000   0.0000   0.0000   0.0000   0.0000
     0.0000   0.0000   0.0000   0.0000   0.0000   0.0000   0.0000   0.0000
     0.0000   0.0000   0.0000   0.0000   0.0000   0.0000   0.0000   0.0000
     0.0000   0.0000   0.0000   0.0000   0.0000   0.0000   0.0000   0.0000
     0.0000   0.0000   0.0000   0.0000   0.0000   0.0000   0.0000   0.0000
     0.0000   0.0000   0.0000   0.0000   0.0000   0.0000   0.0000   0.0000

          k = 0.3333 0.6213 0.3587 ( 47356 PWs)   bands (ev):

  -123.4952-123.4943-123.4937-123.4928-123.4402-123.4393-123.4354-123.4345
  -123.4300-123.4294-123.4291-123.4286-123.2554-123.2549-123.2545-123.2540
  -123.2471-123.2462-123.2456-123.2447-123.2333-123.2328-123.2324-123.2319
  -123.1292-123.1283-123.1247-123.1239-123.0167-123.0158-123.0147-123.0138
   -77.6554 -77.6539 -77.6499 -77.6486 -77.6484 -77.6471 -77.6429 -77.6415
   -77.6384 -77.6373 -77.6369 -77.6359 -77.6014 -77.5966 -77.5903 -77.5896
   -77.5894 -77.5889 -77.5883 -77.5856 -77.5849 -77.5847 -77.5845 -77.5836
   -77.5832 -77.5826 -77.5820 -77.5815 -77.5804 -77.5799 -77.5798 -77.5795
   -77.5789 -77.5788 -77.5766 -77.5761 -77.4136 -77.4130 -77.4127 -77.4125
   -77.4121 -77.4120 -77.4099 -77.4095 -77.4090 -77.4086 -77.4022 -77.4016
   -77.4010 -77.4008 -77.4006 -77.4004 -77.4002 -77.4001 -77.3999 -77.3994
   -77.3991 -77.3986 -77.3985 -77.3978 -77.3977 -77.3969 -77.3901 -77.3887
   -77.3830 -77.3826 -77.3717 -77.3713 -77.3710 -77.3709 -77.3706 -77.3705
   -77.2975 -77.2965 -77.2931 -77.2922 -77.2825 -77.2779 -77.2703 -77.2692
   -77.2681 -77.2657 -77.2649 -77.2638 -77.1792 -77.1782 -77.1773 -77.1763
   -77.1698 -77.1690 -77.1679 -77.1670 -77.1644 -77.1624 -77.1523 -77.1503
    -6.0428  -5.6295  -5.2081  -5.0936  -5.0659  -5.0334  -5.0138  -5.0084
    -5.0056  -4.9789  -4.9360  -4.9211  -4.9016  -4.8988  -4.8981  -4.8950
    -4.8860  -4.8727  -4.7960  -4.7830  -4.7693  -4.7680  -4.7642  -4.7547
    -4.7496  -4.7468  -4.7184  -4.7080  -4.6964  -4.6946  -4.6779  -4.6748
    -4.6506  -4.6374  -4.6362  -4.6130  -4.6075  -4.5987  -4.5839  -4.5728
    -4.5708  -4.5627  -4.5503  -4.5263  -4.5177  -4.5131  -4.5098  -4.5053
    -4.5031  -4.4807  -4.4704  -4.4665  -4.4489  -4.4343  -4.4314  -4.4276
    -4.4269  -4.4188  -4.4013  -4.3953  -4.3854  -4.3688  -4.3619  -4.3525
    -4.3410  -4.3351  -4.3248  -4.3224  -4.3208  -4.3119  -4.3070  -4.3054
    -4.2954  -4.2868  -4.2671  -4.2614  -4.2377  -4.2337  -4.2322  -4.2218
    -4.2138  -4.2070  -4.2060  -4.1980  -4.1757  -4.1754  -4.1587  -4.1438
    -4.1320  -4.1312  -4.1312  -4.1131  -4.1069  -4.0995  -4.0884  -4.0801
    -4.0770  -4.0616  -4.0596  -4.0578  -4.0477  -4.0454  -4.0379  -4.0334
    -4.0285  -4.0176  -4.0155  -4.0126  -4.0004  -3.9900  -3.9801  -3.9788
    -3.9772  -3.9676  -3.9501  -3.9359  -3.9356  -3.9333  -3.9300  -3.9214
    -3.9207  -3.9086  -3.9079  -3.9036  -3.8989  -3.8963  -3.8771  -3.8767
    -3.8748  -3.8678  -3.8591  -3.8505  -3.8463  -3.8363  -3.8322  -3.8302
    -3.8282  -3.8151  -3.8148  -3.8088  -3.8040  -3.7990  -3.7962  -3.7864
    -3.7795  -3.7757  -3.7679  -3.7605  -3.7601  -3.7499  -3.7413  -3.7402
    -3.7385  -3.7285  -3.7064  -3.6936  -3.6799  -3.6591  -3.6502  -3.6255
    -3.6106  -3.6056  -3.5744  -3.4801  -3.3283  -2.9371  -2.6152  -2.5162
    -2.5056  -2.1272  -2.0428  -1.5688  -0.9330  -0.9070  -0.8124  -0.5464
    -0.3677  -0.2367   0.1224   0.1716   0.2214   0.8558   1.1563   1.5013
     1.5259   1.9047   1.9140   2.0031   2.0644   2.5803   3.2834   3.4476
     3.5656   3.6270   4.0113   4.2048   4.3572   4.4097   4.5962   4.6524
     5.1226   5.3166   5.4212   5.6229   5.6893   5.6972   5.9085   6.1889
     6.2463   6.3984   6.5046   6.6959   6.9106   6.9516   6.9577   7.0559
     7.3264   7.4315   7.4618   7.6284   7.6519   7.7711   7.8438   7.8855
     8.1309   8.2249   8.2908   8.3286   8.6269   8.6740   8.7732   8.8629
     8.8688   8.8715   9.1545   9.2476   9.3061   9.4072   9.4606   9.5806
     9.5929   9.6871   9.7398   9.8046   9.8862   9.9733   9.9807  10.2172
    10.2311  10.3287  10.3714  10.5615  10.6291  10.7206  10.7806  10.8153

     occupation numbers 
     1.0000   1.0000   1.0000   1.0000   1.0000   1.0000   1.0000   1.0000
     1.0000   1.0000   1.0000   1.0000   1.0000   1.0000   1.0000   1.0000
     1.0000   1.0000   1.0000   1.0000   1.0000   1.0000   1.0000   1.0000
     1.0000   1.0000   1.0000   1.0000   1.0000   1.0000   1.0000   1.0000
     1.0000   1.0000   1.0000   1.0000   1.0000   1.0000   1.0000   1.0000
     1.0000   1.0000   1.0000   1.0000   1.0000   1.0000   1.0000   1.0000
     1.0000   1.0000   1.0000   1.0000   1.0000   1.0000   1.0000   1.0000
     1.0000   1.0000   1.0000   1.0000   1.0000   1.0000   1.0000   1.0000
     1.0000   1.0000   1.0000   1.0000   1.0000   1.0000   1.0000   1.0000
     1.0000   1.0000   1.0000   1.0000   1.0000   1.0000   1.0000   1.0000
     1.0000   1.0000   1.0000   1.0000   1.0000   1.0000   1.0000   1.0000
     1.0000   1.0000   1.0000   1.0000   1.0000   1.0000   1.0000   1.0000
     1.0000   1.0000   1.0000   1.0000   1.0000   1.0000   1.0000   1.0000
     1.0000   1.0000   1.0000   1.0000   1.0000   1.0000   1.0000   1.0000
     1.0000   1.0000   1.0000   1.0000   1.0000   1.0000   1.0000   1.0000
     1.0000   1.0000   1.0000   1.0000   1.0000   1.0000   1.0000   1.0000
     1.0000   1.0000   1.0000   1.0000   1.0000   1.0000   1.0000   1.0000
     1.0000   1.0000   1.0000   1.0000   1.0000   1.0000   1.0000   1.0000
     1.0000   1.0000   1.0000   1.0000   1.0000   1.0000   1.0000   1.0000
     1.0000   1.0000   1.0000   1.0000   1.0000   1.0000   1.0000   1.0000
     1.0000   1.0000   1.0000   1.0000   1.0000   1.0000   1.0000   1.0000
     1.0000   1.0000   1.0000   1.0000   1.0000   1.0000   1.0000   1.0000
     1.0000   1.0000   1.0000   1.0000   1.0000   1.0000   1.0000   1.0000
     1.0000   1.0000   1.0000   1.0000   1.0000   1.0000   1.0000   1.0000
     1.0000   1.0000   1.0000   1.0000   1.0000   1.0000   1.0000   1.0000
     1.0000   1.0000   1.0000   1.0000   1.0000   1.0000   1.0000   1.0000
     1.0000   1.0000   1.0000   1.0000   1.0000   1.0000   1.0000   1.0000
     1.0000   1.0000   1.0000   1.0000   1.0000   1.0000   1.0000   1.0000
     1.0000   1.0000   1.0000   1.0000   1.0000   1.0000   1.0000   1.0000
     1.0000   1.0000   1.0000   1.0000   1.0000   1.0000   1.0000   1.0000
     1.0000   1.0000   1.0000   1.0000   1.0000   1.0000   1.0000   1.0000
     1.0000   1.0000   1.0000   1.0000   1.0000   1.0000   1.0000   1.0000
     1.0000   1.0000   1.0000   1.0000   1.0000   1.0000   1.0000   1.0000
     1.0000   1.0000   1.0000   1.0000   1.0000   1.0000   1.0000   1.0000
     1.0000   1.0000   1.0000   1.0000   1.0000   1.0000   1.0000   1.0000
     1.0000   1.0000   1.0000   1.0000   1.0000   1.0000   1.0000   1.0000
     1.0000   1.0000   1.0000   1.0000   1.0000   1.0000   1.0000   1.0000
     1.0000   1.0000   1.0000   1.0000   1.0000   1.0000   1.0000   1.0000
     1.0000   1.0000   1.0000   1.0000   1.0000   1.0000   1.0000   1.0000
     1.0000   1.0000   1.0000   1.0000   1.0000   1.0029   0.5916   0.2018
     0.0623   0.0294   0.0000   0.0000   0.0000   0.0000   0.0000   0.0000
     0.0000   0.0000   0.0000   0.0000   0.0000   0.0000   0.0000   0.0000
     0.0000   0.0000   0.0000   0.0000   0.0000   0.0000   0.0000   0.0000
     0.0000   0.0000   0.0000   0.0000   0.0000   0.0000   0.0000   0.0000
     0.0000   0.0000   0.0000   0.0000   0.0000   0.0000   0.0000   0.0000
     0.0000   0.0000   0.0000   0.0000   0.0000   0.0000   0.0000   0.0000
     0.0000   0.0000   0.0000   0.0000   0.0000   0.0000   0.0000   0.0000
     0.0000   0.0000   0.0000   0.0000   0.0000   0.0000   0.0000   0.0000

          k = 0.3333-0.6213-0.3587 ( 47356 PWs)   bands (ev):

  -123.4952-123.4943-123.4937-123.4928-123.4402-123.4393-123.4354-123.4345
  -123.4300-123.4294-123.4291-123.4286-123.2554-123.2549-123.2545-123.2540
  -123.2471-123.2462-123.2456-123.2447-123.2333-123.2328-123.2324-123.2319
  -123.1292-123.1283-123.1247-123.1239-123.0167-123.0158-123.0147-123.0138
   -77.6554 -77.6539 -77.6499 -77.6486 -77.6484 -77.6471 -77.6429 -77.6415
   -77.6384 -77.6373 -77.6369 -77.6359 -77.6014 -77.5966 -77.5903 -77.5896
   -77.5894 -77.5889 -77.5883 -77.5856 -77.5849 -77.5847 -77.5845 -77.5836
   -77.5832 -77.5826 -77.5820 -77.5815 -77.5804 -77.5799 -77.5798 -77.5795
   -77.5789 -77.5788 -77.5766 -77.5761 -77.4136 -77.4130 -77.4127 -77.4125
   -77.4121 -77.4120 -77.4099 -77.4095 -77.4090 -77.4086 -77.4022 -77.4016
   -77.4010 -77.4008 -77.4006 -77.4004 -77.4002 -77.4001 -77.3999 -77.3994
   -77.3991 -77.3986 -77.3985 -77.3978 -77.3977 -77.3969 -77.3901 -77.3887
   -77.3830 -77.3826 -77.3717 -77.3713 -77.3710 -77.3709 -77.3706 -77.3705
   -77.2975 -77.2965 -77.2931 -77.2922 -77.2825 -77.2779 -77.2703 -77.2692
   -77.2681 -77.2657 -77.2649 -77.2638 -77.1792 -77.1782 -77.1773 -77.1763
   -77.1698 -77.1690 -77.1679 -77.1670 -77.1644 -77.1624 -77.1523 -77.1503
    -6.0428  -5.6295  -5.2081  -5.0936  -5.0659  -5.0334  -5.0138  -5.0084
    -5.0056  -4.9789  -4.9360  -4.9211  -4.9016  -4.8988  -4.8981  -4.8950
    -4.8860  -4.8727  -4.7960  -4.7830  -4.7693  -4.7680  -4.7642  -4.7547
    -4.7496  -4.7468  -4.7184  -4.7080  -4.6964  -4.6946  -4.6779  -4.6748
    -4.6506  -4.6374  -4.6362  -4.6130  -4.6075  -4.5987  -4.5839  -4.5728
    -4.5708  -4.5627  -4.5503  -4.5263  -4.5177  -4.5131  -4.5098  -4.5053
    -4.5031  -4.4807  -4.4704  -4.4665  -4.4489  -4.4343  -4.4314  -4.4276
    -4.4269  -4.4188  -4.4013  -4.3953  -4.3854  -4.3688  -4.3619  -4.3525
    -4.3410  -4.3351  -4.3248  -4.3224  -4.3208  -4.3119  -4.3070  -4.3054
    -4.2954  -4.2868  -4.2671  -4.2614  -4.2377  -4.2337  -4.2322  -4.2218
    -4.2138  -4.2070  -4.2060  -4.1980  -4.1757  -4.1754  -4.1587  -4.1438
    -4.1320  -4.1312  -4.1312  -4.1131  -4.1069  -4.0995  -4.0884  -4.0801
    -4.0770  -4.0616  -4.0596  -4.0578  -4.0477  -4.0454  -4.0379  -4.0334
    -4.0285  -4.0176  -4.0155  -4.0126  -4.0004  -3.9900  -3.9801  -3.9788
    -3.9772  -3.9676  -3.9501  -3.9359  -3.9356  -3.9333  -3.9300  -3.9214
    -3.9207  -3.9086  -3.9079  -3.9036  -3.8989  -3.8963  -3.8771  -3.8767
    -3.8748  -3.8678  -3.8591  -3.8505  -3.8463  -3.8363  -3.8322  -3.8302
    -3.8282  -3.8151  -3.8148  -3.8088  -3.8040  -3.7990  -3.7962  -3.7864
    -3.7795  -3.7757  -3.7679  -3.7605  -3.7601  -3.7499  -3.7413  -3.7402
    -3.7385  -3.7285  -3.7064  -3.6936  -3.6800  -3.6591  -3.6502  -3.6255
    -3.6106  -3.6056  -3.5744  -3.4801  -3.3283  -2.9371  -2.6152  -2.5162
    -2.5056  -2.1272  -2.0428  -1.5688  -0.9330  -0.9070  -0.8124  -0.5464
    -0.3677  -0.2367   0.1224   0.1716   0.2214   0.8558   1.1563   1.5013
     1.5259   1.9047   1.9140   2.0031   2.0644   2.5803   3.2834   3.4476
     3.5656   3.6270   4.0113   4.2048   4.3572   4.4097   4.5962   4.6524
     5.1226   5.3166   5.4212   5.6229   5.6893   5.6972   5.9085   6.1889
     6.2463   6.3984   6.5046   6.6959   6.9106   6.9516   6.9577   7.0559
     7.3264   7.4315   7.4618   7.6284   7.6519   7.7711   7.8438   7.8855
     8.1309   8.2249   8.2908   8.3286   8.6269   8.6740   8.7732   8.8629
     8.8688   8.8715   9.1545   9.2476   9.3061   9.4072   9.4606   9.5806
     9.5929   9.6871   9.7398   9.8046   9.8862   9.9733   9.9807  10.2172
    10.2312  10.3287  10.3714  10.5615  10.6292  10.7206  10.7806  10.8152

     occupation numbers 
     1.0000   1.0000   1.0000   1.0000   1.0000   1.0000   1.0000   1.0000
     1.0000   1.0000   1.0000   1.0000   1.0000   1.0000   1.0000   1.0000
     1.0000   1.0000   1.0000   1.0000   1.0000   1.0000   1.0000   1.0000
     1.0000   1.0000   1.0000   1.0000   1.0000   1.0000   1.0000   1.0000
     1.0000   1.0000   1.0000   1.0000   1.0000   1.0000   1.0000   1.0000
     1.0000   1.0000   1.0000   1.0000   1.0000   1.0000   1.0000   1.0000
     1.0000   1.0000   1.0000   1.0000   1.0000   1.0000   1.0000   1.0000
     1.0000   1.0000   1.0000   1.0000   1.0000   1.0000   1.0000   1.0000
     1.0000   1.0000   1.0000   1.0000   1.0000   1.0000   1.0000   1.0000
     1.0000   1.0000   1.0000   1.0000   1.0000   1.0000   1.0000   1.0000
     1.0000   1.0000   1.0000   1.0000   1.0000   1.0000   1.0000   1.0000
     1.0000   1.0000   1.0000   1.0000   1.0000   1.0000   1.0000   1.0000
     1.0000   1.0000   1.0000   1.0000   1.0000   1.0000   1.0000   1.0000
     1.0000   1.0000   1.0000   1.0000   1.0000   1.0000   1.0000   1.0000
     1.0000   1.0000   1.0000   1.0000   1.0000   1.0000   1.0000   1.0000
     1.0000   1.0000   1.0000   1.0000   1.0000   1.0000   1.0000   1.0000
     1.0000   1.0000   1.0000   1.0000   1.0000   1.0000   1.0000   1.0000
     1.0000   1.0000   1.0000   1.0000   1.0000   1.0000   1.0000   1.0000
     1.0000   1.0000   1.0000   1.0000   1.0000   1.0000   1.0000   1.0000
     1.0000   1.0000   1.0000   1.0000   1.0000   1.0000   1.0000   1.0000
     1.0000   1.0000   1.0000   1.0000   1.0000   1.0000   1.0000   1.0000
     1.0000   1.0000   1.0000   1.0000   1.0000   1.0000   1.0000   1.0000
     1.0000   1.0000   1.0000   1.0000   1.0000   1.0000   1.0000   1.0000
     1.0000   1.0000   1.0000   1.0000   1.0000   1.0000   1.0000   1.0000
     1.0000   1.0000   1.0000   1.0000   1.0000   1.0000   1.0000   1.0000
     1.0000   1.0000   1.0000   1.0000   1.0000   1.0000   1.0000   1.0000
     1.0000   1.0000   1.0000   1.0000   1.0000   1.0000   1.0000   1.0000
     1.0000   1.0000   1.0000   1.0000   1.0000   1.0000   1.0000   1.0000
     1.0000   1.0000   1.0000   1.0000   1.0000   1.0000   1.0000   1.0000
     1.0000   1.0000   1.0000   1.0000   1.0000   1.0000   1.0000   1.0000
     1.0000   1.0000   1.0000   1.0000   1.0000   1.0000   1.0000   1.0000
     1.0000   1.0000   1.0000   1.0000   1.0000   1.0000   1.0000   1.0000
     1.0000   1.0000   1.0000   1.0000   1.0000   1.0000   1.0000   1.0000
     1.0000   1.0000   1.0000   1.0000   1.0000   1.0000   1.0000   1.0000
     1.0000   1.0000   1.0000   1.0000   1.0000   1.0000   1.0000   1.0000
     1.0000   1.0000   1.0000   1.0000   1.0000   1.0000   1.0000   1.0000
     1.0000   1.0000   1.0000   1.0000   1.0000   1.0000   1.0000   1.0000
     1.0000   1.0000   1.0000   1.0000   1.0000   1.0000   1.0000   1.0000
     1.0000   1.0000   1.0000   1.0000   1.0000   1.0000   1.0000   1.0000
     1.0000   1.0000   1.0000   1.0000   1.0000   1.0029   0.5916   0.2018
     0.0623   0.0294   0.0000   0.0000   0.0000   0.0000   0.0000   0.0000
     0.0000   0.0000   0.0000   0.0000   0.0000   0.0000   0.0000   0.0000
     0.0000   0.0000   0.0000   0.0000   0.0000   0.0000   0.0000   0.0000
     0.0000   0.0000   0.0000   0.0000   0.0000   0.0000   0.0000   0.0000
     0.0000   0.0000   0.0000   0.0000   0.0000   0.0000   0.0000   0.0000
     0.0000   0.0000   0.0000   0.0000   0.0000   0.0000   0.0000   0.0000
     0.0000   0.0000   0.0000   0.0000   0.0000   0.0000   0.0000   0.0000
     0.0000   0.0000   0.0000   0.0000   0.0000   0.0000   0.0000   0.0000

     the Fermi energy is     3.3546 ev

!    total energy              =  -14769.45303863 Ry
     estimated scf accuracy    <       0.00000042 Ry
     smearing contrib. (-TS)   =      -0.01105144 Ry
     internal energy E=F+TS    =  -14769.44198719 Ry

     The total energy is F=E-TS. E is the sum of the following terms:
     one-electron contribution =  -82723.30267070 Ry
     hartree contribution      =   41355.81412738 Ry
     xc contribution           =   -1348.92927447 Ry
     ewald contribution        =   27946.97583060 Ry

     convergence has been achieved in  12 iterations

     Forces acting on atoms (cartesian axes, Ry/au):

     atom    1 type  1   force =    -0.00074374    0.00000146   -0.00746740
     atom    2 type  1   force =    -0.00067502   -0.00000077    0.03255041
     atom    3 type  1   force =    -0.00033028    0.00000397    0.00006841
     atom    4 type  1   force =     0.00006692   -0.00000071   -0.00021641
     atom    5 type  1   force =    -0.00074439    0.00000039   -0.00746420
     atom    6 type  1   force =    -0.00067516   -0.00000206    0.03255160
     atom    7 type  1   force =    -0.00032967    0.00000610    0.00006910
     atom    8 type  1   force =     0.00006757    0.00000084   -0.00021583
     atom    9 type  1   force =     0.00076925    0.00000073   -0.00782941
     atom   10 type  1   force =     0.00068016   -0.00000028    0.03183980
     atom   11 type  1   force =     0.00025684    0.00000415    0.00000776
     atom   12 type  1   force =    -0.00007609   -0.00000023    0.00020418
     atom   13 type  1   force =     0.00076895    0.00000178   -0.00782797
     atom   14 type  1   force =     0.00067958   -0.00000292    0.03184205
     atom   15 type  1   force =     0.00025690    0.00000629    0.00000776
     atom   16 type  1   force =    -0.00007519    0.00000036    0.00020517
     atom   17 type  1   force =    -0.00005095   -0.00000190   -0.03033323
     atom   18 type  1   force =    -0.00047663    0.00000351    0.00609745
     atom   19 type  1   force =    -0.00068146   -0.00000330    0.00043156
     atom   20 type  1   force =    -0.00046310   -0.00000441   -0.00004406
     atom   21 type  1   force =    -0.00005030   -0.00000419   -0.03033379
     atom   22 type  1   force =    -0.00047448    0.00000324    0.00609570
     atom   23 type  1   force =    -0.00068002   -0.00000079    0.00043107
     atom   24 type  1   force =    -0.00046209   -0.00000121   -0.00004703
     atom   25 type  1   force =     0.00005370   -0.00000264   -0.03014054
     atom   26 type  1   force =     0.00049373    0.00000321    0.00521868
     atom   27 type  1   force =     0.00071010   -0.00000285   -0.00005923
     atom   28 type  1   force =     0.00046225   -0.00000409   -0.00032800
     atom   29 type  1   force =     0.00005538   -0.00000384   -0.03014178
     atom   30 type  1   force =     0.00049366    0.00000316    0.00521829
     atom   31 type  1   force =     0.00071165   -0.00000119   -0.00005991
     atom   32 type  1   force =     0.00046192   -0.00000180   -0.00033023
     The non-local contrib.  to forces
     atom    1 type  1   force =    -0.00014252    0.00000121   -0.15827708
     atom    2 type  1   force =    -0.00035540   -0.00000232    0.06877051
     atom    3 type  1   force =    -0.00052801    0.00003721   -0.05697686
     atom    4 type  1   force =    -0.00083857   -0.00001339   -0.07310953
     atom    5 type  1   force =    -0.00014240    0.00000085   -0.15827316
     atom    6 type  1   force =    -0.00035569   -0.00000387    0.06877194
     atom    7 type  1   force =    -0.00052781    0.00003943   -0.05697690
     atom    8 type  1   force =    -0.00083788   -0.00001242   -0.07310853
     atom    9 type  1   force =     0.00012925    0.00000096   -0.15841031
     atom   10 type  1   force =     0.00034991   -0.00000228    0.06787614
     atom   11 type  1   force =     0.00042826    0.00003798   -0.05690619
     atom   12 type  1   force =     0.00087740   -0.00001285   -0.07251180
     atom   13 type  1   force =     0.00012951    0.00000125   -0.15840606
     atom   14 type  1   force =     0.00034972   -0.00000431    0.06787742
     atom   15 type  1   force =     0.00042758    0.00004048   -0.05690499
     atom   16 type  1   force =     0.00087726   -0.00001295   -0.07251064
     atom   17 type  1   force =    -0.00008422    0.00000122    0.01887473
     atom   18 type  1   force =    -0.00040154    0.00000972   -0.00394779
     atom   19 type  1   force =    -0.00042207   -0.00001926   -0.00320587
     atom   20 type  1   force =    -0.00003228   -0.00002164    0.08345950
     atom   21 type  1   force =    -0.00008294   -0.00000232    0.01887460
     atom   22 type  1   force =    -0.00040040    0.00001074   -0.00394806
     atom   23 type  1   force =    -0.00042100   -0.00001689   -0.00320638
     atom   24 type  1   force =    -0.00003152   -0.00001975    0.08345601
     atom   25 type  1   force =     0.00008151    0.00000091    0.01881312
     atom   26 type  1   force =     0.00043017    0.00000976   -0.00567583
     atom   27 type  1   force =     0.00044122   -0.00001958   -0.00359586
     atom   28 type  1   force =     0.00003221   -0.00002360    0.08406344
     atom   29 type  1   force =     0.00008320   -0.00000219    0.01881259
     atom   30 type  1   force =     0.00043166    0.00001087   -0.00567580
     atom   31 type  1   force =     0.00044258   -0.00001652   -0.00359545
     atom   32 type  1   force =     0.00003128   -0.00002191    0.08406030
     The ionic contribution  to forces
     atom    1 type  1   force =    -0.01393235    0.00000026 -416.27095719
     atom    2 type  1   force =    -0.06576138   -0.00003368 -160.82027926
     atom    3 type  1   force =    -0.31110267    0.00047402  106.49197395
     atom    4 type  1   force =    -0.32338098   -0.00009235  369.57888004
     atom    5 type  1   force =    -0.01393253   -0.00000011 -416.27095871
     atom    6 type  1   force =    -0.06576521   -0.00006418 -160.82027827
     atom    7 type  1   force =    -0.31104806    0.00047424  106.49212947
     atom    8 type  1   force =    -0.32337032   -0.00006727  369.57878932
     atom    9 type  1   force =     0.01393716    0.00000028 -416.27269765
     atom   10 type  1   force =     0.06595914   -0.00006510 -160.83033438
     atom   11 type  1   force =     0.30548171    0.00049109  106.49762481
     atom   12 type  1   force =     0.32128453   -0.00007347  369.50054223
     atom   13 type  1   force =     0.01393730   -0.00000011 -416.27269646
     atom   14 type  1   force =     0.06595871   -0.00003993 -160.83033276
     atom   15 type  1   force =     0.30545111    0.00048151  106.49749221
     atom   16 type  1   force =     0.32125641   -0.00008916  369.50055589
     atom   17 type  1   force =    -0.00113620   -0.00000024 -352.13407453
     atom   18 type  1   force =     0.00651934    0.00016714  -87.21504916
     atom   19 type  1   force =     0.12213751   -0.00038279  152.38619931
     atom   20 type  1   force =     0.14726324   -0.00016469  387.97345994
     atom   21 type  1   force =    -0.00113602   -0.00000131 -352.13407375
     atom   22 type  1   force =     0.00649455    0.00018373  -87.21503891
     atom   23 type  1   force =     0.12211922   -0.00033624  152.38615175
     atom   24 type  1   force =     0.14728639   -0.00014943  387.97338757
     atom   25 type  1   force =     0.00112958   -0.00000094 -352.08985648
     atom   26 type  1   force =    -0.00588400    0.00015736  -87.06365641
     atom   27 type  1   force =    -0.11770056   -0.00034112  152.44049713
     atom   28 type  1   force =    -0.14479157   -0.00017106  387.82782422
     atom   29 type  1   force =     0.00112973   -0.00000061 -352.08985457
     atom   30 type  1   force =    -0.00586584    0.00019748  -87.06365959
     atom   31 type  1   force =    -0.11772561   -0.00036400  152.44038278
     atom   32 type  1   force =    -0.14481236   -0.00018929  387.82790747
     The local contribution  to forces
     atom    1 type  1   force =     0.01479580   -0.00000116  416.42118761
     atom    2 type  1   force =     0.06682920    0.00003437  160.78359888
     atom    3 type  1   force =     0.31144872   -0.00050714 -106.43490086
     atom    4 type  1   force =     0.32363466    0.00010467 -369.50526765
     atom    5 type  1   force =     0.01479580    0.00000152  416.42118771
     atom    6 type  1   force =     0.06683287    0.00006601  160.78359796
     atom    7 type  1   force =     0.31139362   -0.00050625 -106.43505600
     atom    8 type  1   force =     0.32362405    0.00008016 -369.50517669
     atom    9 type  1   force =    -0.01480216    0.00000005  416.42338397
     atom   10 type  1   force =    -0.06701941    0.00006560  160.79521154
     atom   11 type  1   force =    -0.30568930   -0.00052477 -106.44022384
     atom   12 type  1   force =    -0.32157049    0.00008463 -369.42814224
     atom   13 type  1   force =    -0.01480288   -0.00000008  416.42338205
     atom   14 type  1   force =    -0.06701922    0.00004282  160.79520884
     atom   15 type  1   force =    -0.30565869   -0.00051475 -106.44009121
     atom   16 type  1   force =    -0.32154182    0.00010297 -369.42815626
     atom   17 type  1   force =     0.00129490   -0.00000231  352.08499939
     atom   18 type  1   force =    -0.00561415   -0.00017416   87.22494765
     atom   19 type  1   force =    -0.12077750    0.00040013 -152.38303286
     atom   20 type  1   force =    -0.14647081    0.00018336 -388.05682119
     atom   21 type  1   force =     0.00129539   -0.00000042  352.08499873
     atom   22 type  1   force =    -0.00558986   -0.00018944   87.22493783
     atom   23 type  1   force =    -0.12075935    0.00035199 -152.38298597
     atom   24 type  1   force =    -0.14649578    0.00016606 -388.05674674
     atom   25 type  1   force =    -0.00128243   -0.00000082  352.04059393
     atom   26 type  1   force =     0.00493506   -0.00016435   87.07612868
     atom   27 type  1   force =     0.11632232    0.00035838 -152.43588171
     atom   28 type  1   force =     0.14400907    0.00019140 -387.91213401
     atom   29 type  1   force =    -0.00128344   -0.00000166  352.04059244
     atom   30 type  1   force =     0.00491737   -0.00020323   87.07613137
     atom   31 type  1   force =     0.11634689    0.00037957 -152.43576825
     atom   32 type  1   force =     0.14403100    0.00020792 -387.91221659
     The core correction contribution to forces
     atom    1 type  1   force =     0.00000000    0.00000000    0.00000000
     atom    2 type  1   force =     0.00000000    0.00000000    0.00000000
     atom    3 type  1   force =     0.00000000    0.00000000    0.00000000
     atom    4 type  1   force =     0.00000000    0.00000000    0.00000000
     atom    5 type  1   force =     0.00000000    0.00000000    0.00000000
     atom    6 type  1   force =     0.00000000    0.00000000    0.00000000
     atom    7 type  1   force =     0.00000000    0.00000000    0.00000000
     atom    8 type  1   force =     0.00000000    0.00000000    0.00000000
     atom    9 type  1   force =     0.00000000    0.00000000    0.00000000
     atom   10 type  1   force =     0.00000000    0.00000000    0.00000000
     atom   11 type  1   force =     0.00000000    0.00000000    0.00000000
     atom   12 type  1   force =     0.00000000    0.00000000    0.00000000
     atom   13 type  1   force =     0.00000000    0.00000000    0.00000000
     atom   14 type  1   force =     0.00000000    0.00000000    0.00000000
     atom   15 type  1   force =     0.00000000    0.00000000    0.00000000
     atom   16 type  1   force =     0.00000000    0.00000000    0.00000000
     atom   17 type  1   force =     0.00000000    0.00000000    0.00000000
     atom   18 type  1   force =     0.00000000    0.00000000    0.00000000
     atom   19 type  1   force =     0.00000000    0.00000000    0.00000000
     atom   20 type  1   force =     0.00000000    0.00000000    0.00000000
     atom   21 type  1   force =     0.00000000    0.00000000    0.00000000
     atom   22 type  1   force =     0.00000000    0.00000000    0.00000000
     atom   23 type  1   force =     0.00000000    0.00000000    0.00000000
     atom   24 type  1   force =     0.00000000    0.00000000    0.00000000
     atom   25 type  1   force =     0.00000000    0.00000000    0.00000000
     atom   26 type  1   force =     0.00000000    0.00000000    0.00000000
     atom   27 type  1   force =     0.00000000    0.00000000    0.00000000
     atom   28 type  1   force =     0.00000000    0.00000000    0.00000000
     atom   29 type  1   force =     0.00000000    0.00000000    0.00000000
     atom   30 type  1   force =     0.00000000    0.00000000    0.00000000
     atom   31 type  1   force =     0.00000000    0.00000000    0.00000000
     atom   32 type  1   force =     0.00000000    0.00000000    0.00000000
     The Hubbard contrib.    to forces
     atom    1 type  1   force =     0.00000000    0.00000000    0.00000000
     atom    2 type  1   force =     0.00000000    0.00000000    0.00000000
     atom    3 type  1   force =     0.00000000    0.00000000    0.00000000
     atom    4 type  1   force =     0.00000000    0.00000000    0.00000000
     atom    5 type  1   force =     0.00000000    0.00000000    0.00000000
     atom    6 type  1   force =     0.00000000    0.00000000    0.00000000
     atom    7 type  1   force =     0.00000000    0.00000000    0.00000000
     atom    8 type  1   force =     0.00000000    0.00000000    0.00000000
     atom    9 type  1   force =     0.00000000    0.00000000    0.00000000
     atom   10 type  1   force =     0.00000000    0.00000000    0.00000000
     atom   11 type  1   force =     0.00000000    0.00000000    0.00000000
     atom   12 type  1   force =     0.00000000    0.00000000    0.00000000
     atom   13 type  1   force =     0.00000000    0.00000000    0.00000000
     atom   14 type  1   force =     0.00000000    0.00000000    0.00000000
     atom   15 type  1   force =     0.00000000    0.00000000    0.00000000
     atom   16 type  1   force =     0.00000000    0.00000000    0.00000000
     atom   17 type  1   force =     0.00000000    0.00000000    0.00000000
     atom   18 type  1   force =     0.00000000    0.00000000    0.00000000
     atom   19 type  1   force =     0.00000000    0.00000000    0.00000000
     atom   20 type  1   force =     0.00000000    0.00000000    0.00000000
     atom   21 type  1   force =     0.00000000    0.00000000    0.00000000
     atom   22 type  1   force =     0.00000000    0.00000000    0.00000000
     atom   23 type  1   force =     0.00000000    0.00000000    0.00000000
     atom   24 type  1   force =     0.00000000    0.00000000    0.00000000
     atom   25 type  1   force =     0.00000000    0.00000000    0.00000000
     atom   26 type  1   force =     0.00000000    0.00000000    0.00000000
     atom   27 type  1   force =     0.00000000    0.00000000    0.00000000
     atom   28 type  1   force =     0.00000000    0.00000000    0.00000000
     atom   29 type  1   force =     0.00000000    0.00000000    0.00000000
     atom   30 type  1   force =     0.00000000    0.00000000    0.00000000
     atom   31 type  1   force =     0.00000000    0.00000000    0.00000000
     atom   32 type  1   force =     0.00000000    0.00000000    0.00000000
     The SCF correction term to forces
     atom    1 type  1   force =    -0.00146901    0.00000119    0.00040338
     atom    2 type  1   force =    -0.00139176    0.00000090    0.00028439
     atom    3 type  1   force =    -0.00015265   -0.00000009   -0.00020371
     atom    4 type  1   force =     0.00064747    0.00000039   -0.00089515
     atom    5 type  1   force =    -0.00146959   -0.00000184    0.00040407
     atom    6 type  1   force =    -0.00139147    0.00000002    0.00028408
     atom    7 type  1   force =    -0.00015175   -0.00000127   -0.00020337
     atom    8 type  1   force =     0.00064738    0.00000041   -0.00089583
     atom    9 type  1   force =     0.00150065   -0.00000052   -0.00028131
     atom   10 type  1   force =     0.00138619    0.00000154   -0.00108940
     atom   11 type  1   force =     0.00003184   -0.00000012   -0.00066290
     atom   12 type  1   force =    -0.00067186    0.00000150    0.00014010
     atom   13 type  1   force =     0.00150069    0.00000076   -0.00028339
     atom   14 type  1   force =     0.00138603   -0.00000147   -0.00108733
     atom   15 type  1   force =     0.00003256   -0.00000091   -0.00066413
     atom   16 type  1   force =    -0.00067138   -0.00000047    0.00014030
     atom   17 type  1   force =    -0.00012977   -0.00000054   -0.00030872
     atom   18 type  1   force =    -0.00098462    0.00000084   -0.00002914
     atom   19 type  1   force =    -0.00162373   -0.00000133    0.00029510
     atom   20 type  1   force =    -0.00122758   -0.00000140   -0.00031820
     atom   21 type  1   force =    -0.00013107   -0.00000010   -0.00030926
     atom   22 type  1   force =    -0.00098310   -0.00000176   -0.00003104
     atom   23 type  1   force =    -0.00162324    0.00000038    0.00029578
     atom   24 type  1   force =    -0.00122551    0.00000195   -0.00031976
     atom   25 type  1   force =     0.00012069   -0.00000175    0.00013301
     atom   26 type  1   force =     0.00100816    0.00000047   -0.00175365
     atom   27 type  1   force =     0.00164279   -0.00000050   -0.00125468
     atom   28 type  1   force =     0.00120820   -0.00000079   -0.00025754
     atom   29 type  1   force =     0.00012156    0.00000066    0.00013187
     atom   30 type  1   force =     0.00100613   -0.00000192   -0.00175358
     atom   31 type  1   force =     0.00164345   -0.00000021   -0.00125488
     atom   32 type  1   force =     0.00120766    0.00000151   -0.00025729

     Total force =     0.090421     Total SCF correction =     0.007390


     Computing stress (Cartesian axis) and pressure

          total   stress  (Ry/bohr**3)                   (kbar)     P=      -10.65
  -0.00010055  -0.00000000   0.00000000          -14.79       -0.00        0.00
  -0.00000000  -0.00015436  -0.00000002           -0.00      -22.71       -0.00
   0.00000000  -0.00000002   0.00003776            0.00       -0.00        5.55

     kinetic stress (kbar)  15937.26      0.00     -0.00
                                0.00  15873.49      0.00
                               -0.00      0.00  15954.81

     local   stress (kbar)**********      0.00     -0.10
                                0.00**********      0.25
                               -0.10      0.251322301.05

     nonloc. stress (kbar)  -1708.77     -0.00      0.00
                               -0.00  -1679.89     -0.00
                                0.00     -0.00  -1723.66

     hartree stress (kbar) 688530.49     -0.00      0.04
                               -0.00 695759.07     -0.10
                                0.04     -0.10-617034.28

     exc-cor stress (kbar)  -8017.79      0.00      0.00
                                0.00  -8013.48     -0.00
                                0.00     -0.00  -8021.43

     corecor stress (kbar)      0.00      0.00      0.00
                                0.00      0.00      0.00
                                0.00      0.00      0.00

     ewald   stress (kbar) 610157.56     -0.00      0.06
                               -0.00 619800.69     -0.14
                                0.06     -0.14-711470.94

     hubbard stress (kbar)      0.00      0.00      0.00
                                0.00      0.00      0.00
                                0.00      0.00      0.00

     DFT-D   stress (kbar)      0.00      0.00      0.00
                                0.00      0.00      0.00
                                0.00      0.00      0.00

     XDM     stress (kbar)      0.00      0.00      0.00
                                0.00      0.00      0.00
                                0.00      0.00      0.00

     dft-nl  stress (kbar)      0.00      0.00      0.00
                                0.00      0.00      0.00
                                0.00      0.00      0.00

     TS-vdW  stress (kbar)      0.00      0.00      0.00
                                0.00      0.00      0.00
                                0.00      0.00      0.00

     MDB     stress (kbar)      0.00      0.00      0.00
                                0.00      0.00      0.00
                                0.00      0.00      0.00

     3D-RISM stress (kbar)      0.00      0.00      0.00
                                0.00      0.00      0.00
                                0.00      0.00      0.00


     Writing all to output data dir ./tmp/Zn100_2x2x4_scf.save/ :
     XML data file, charge density, pseudopotentials, collected wavefunctions

     init_run     :     18.21s CPU     18.37s WALL (       1 calls)
     electrons    :    921.37s CPU    928.06s WALL (       1 calls)
     forces       :     16.60s CPU     16.70s WALL (       1 calls)
     stress       :     46.57s CPU     46.78s WALL (       1 calls)

     Called by init_run:
     wfcinit      :     17.88s CPU     18.02s WALL (       1 calls)
     wfcinit:atom :      0.02s CPU      0.03s WALL (       5 calls)
     wfcinit:wfcr :     17.59s CPU     17.69s WALL (       5 calls)
     potinit      :      0.02s CPU      0.03s WALL (       1 calls)
     hinit0       :      0.02s CPU      0.02s WALL (       1 calls)

     Called by electrons:
     c_bands      :    855.68s CPU    861.75s WALL (      13 calls)
     sum_band     :     62.81s CPU     63.27s WALL (      13 calls)
     v_of_rho     :      0.28s CPU      0.29s WALL (      13 calls)
     v_h          :      0.01s CPU      0.02s WALL (      13 calls)
     v_xc         :      0.26s CPU      0.28s WALL (      13 calls)
     newd         :      2.79s CPU      2.90s WALL (      13 calls)
     mix_rho      :      0.04s CPU      0.04s WALL (      13 calls)

     Called by c_bands:
     init_us_2    :      1.26s CPU      1.26s WALL (     145 calls)
     cegterg      :    853.11s CPU    859.15s WALL (      65 calls)

     Called by sum_band:
     sum_band:wei :      0.03s CPU      0.03s WALL (      13 calls)
     sum_band:loo :     60.63s CPU     60.97s WALL (      13 calls)
     sum_band:buf :      0.24s CPU      0.24s WALL (      65 calls)
     sum_band:ini :      0.56s CPU      0.57s WALL (      65 calls)
     sum_band:cal :     48.72s CPU     48.98s WALL (      65 calls)
     sum_band:bec :      0.57s CPU      0.57s WALL (      65 calls)
     addusdens    :      1.78s CPU      1.89s WALL (      13 calls)
                                        0.00s GPU  (      13 calls)
     addusd:skk   :      0.02s CPU      0.02s WALL (      13 calls)
                                        0.00s GPU  (      13 calls)

     Called by *egterg:
     cdiaghg      :     90.24s CPU     92.42s WALL (     401 calls)
     cegterg:over :    137.28s CPU    137.80s WALL (     341 calls)
     cegterg:upda :     53.48s CPU     53.69s WALL (     341 calls)
     cegterg:last :    179.00s CPU    179.83s WALL (     133 calls)
     cdiaghg:chol :      5.39s CPU      5.41s WALL (     401 calls)
     cdiaghg:inve :      1.23s CPU      1.23s WALL (     401 calls)
     cdiaghg:para :     24.10s CPU     24.77s WALL (     802 calls)
     h_psi        :    272.51s CPU    274.14s WALL (     411 calls)
     s_psi        :    101.93s CPU    102.17s WALL (     411 calls)
     g_psi        :      0.19s CPU      0.19s WALL (     341 calls)

     Called by h_psi:
     h_psi:calbec :    118.93s CPU    119.60s WALL (     411 calls)
     vloc_psi     :     50.13s CPU     50.50s WALL (     411 calls)
     add_vuspsi   :    102.98s CPU    103.31s WALL (     411 calls)

     General routines
     calbec       :    187.47s CPU    188.50s WALL (     501 calls)
     fft          :      0.49s CPU      0.53s WALL (     152 calls)
     ffts         :      0.01s CPU      0.01s WALL (      13 calls)
     fftw         :     56.76s CPU     57.18s WALL (  146738 calls)

     Parallel routines

     PWSCF        :  16m43.43s CPU  16m52.47s WALL


   This run was terminated on:   0:52:57  16Mar2025            

=------------------------------------------------------------------------------=
   JOB DONE.
=------------------------------------------------------------------------------=
Note: The following floating-point exceptions are signalling: IEEE_DENORMAL
Note: The following floating-point exceptions are signalling: IEEE_DENORMAL
Note: The following floating-point exceptions are signalling: IEEE_DENORMAL
Note: The following floating-point exceptions are signalling: IEEE_DENORMAL
Note: The following floating-point exceptions are signalling: IEEE_DENORMAL
Note: The following floating-point exceptions are signalling: IEEE_DENORMAL
