--------------------------------------------------------------------------
By default, for Open MPI 4.0 and later, infiniband ports on a device
are not used by default.  The intent is to use UCX for these devices.
You can override this policy by setting the btl_openib_allow_ib MCA parameter
to true.

  Local host:              psid04
  Local adapter:           mlx5_0
  Local port:              1

--------------------------------------------------------------------------
--------------------------------------------------------------------------
WARNING: There was an error initializing an OpenFabrics device.

  Local host:   psid04
  Local device: mlx5_0
--------------------------------------------------------------------------

     Program PWSCF v.7.3.1 starts on 16Mar2025 at 13:45:16 

     This program is part of the open-source Quantum ESPRESSO suite
     for quantum simulation of materials; please cite
         "P. Giannozzi et al., J. Phys.:Condens. Matter 21 395502 (2009);
         "P. Giannozzi et al., J. Phys.:Condens. Matter 29 465901 (2017);
         "P. Giannozzi et al., J. Chem. Phys. 152 154105 (2020);
          URL http://www.quantum-espresso.org", 
     in publications or presentations arising from this work. More details at
     http://www.quantum-espresso.org/quote

     Parallel version (MPI), running on    30 processors

     MPI processes distributed on     1 nodes
     114795 MiB available memory on the printing compute node when the environment starts

     Waiting for input...
     Reading input from standard input
Warning: card &CELL ignored
Warning: card   CELL_DOFREE = 'ALL' ignored
Warning: card / ignored

     Current dimensions of program PWSCF are:
     Max number of different atomic species (ntypx) = 10
     Max number of k-points (npk) =  40000
     Max angular momentum in pseudopotentials (lmaxx) =  4
     Found identity + (  0.0000  0.2500  0.0000) symmetry
     This is a supercell, fractional translations are disabled

     R & G space division:  proc/nbgrp/npool/nimage =      30
     Subspace diagonalization in iterative solution of the eigenvalue problem:
     one sub-group per band group will be used
     custom distributed-memory algorithm (size of sub-group:  4*  4 procs)


     Parallelization info
     --------------------
     sticks:   dense  smooth     PW     G-vecs:    dense   smooth      PW
     Min          53      53     15                 5607     5607     829
     Max          54      54     16                 5626     5626     841
     Sum        1617    1617    453               168549   168549   25031

     Using Slab Decomposition



     bravais-lattice index     =            0
     lattice parameter (alat)  =       9.8808  a.u.
     unit-cell volume          =    7588.2966 (a.u.)^3
     number of atoms/cell      =           32
     number of atomic types    =            1
     number of electrons       =       640.00
     number of Kohn-Sham states=          384
     kinetic-energy cutoff     =      30.0000  Ry
     charge density cutoff     =     120.0000  Ry
     scf convergence threshold =      7.3E-07
     mixing beta               =       0.7000
     number of iterations used =            8  plain     mixing
     energy convergence thresh.=      1.0E-05
     force convergence thresh. =      5.0E-04
     Exchange-correlation= SLA  PW   PBE  PBE
                           (   1   4   3   4   0   0   0)
     nstep                     =          100


     celldm(1)=   9.880848  celldm(2)=   0.000000  celldm(3)=   0.000000
     celldm(4)=   0.000000  celldm(5)=   0.000000  celldm(6)=   0.000000

     crystal axes: (cart. coord. in units of alat)
               a(1) = (   1.000000   0.000000   0.000000 )  
               a(2) = (  -1.000000   1.732051   0.000000 )  
               a(3) = (   0.000000   0.000000   4.541517 )  

     reciprocal axes: (cart. coord. in units 2 pi/alat)
               b(1) = (  1.000000  0.577350 -0.000000 )  
               b(2) = (  0.000000  0.577350  0.000000 )  
               b(3) = (  0.000000 -0.000000  0.220191 )  


     PseudoPot. # 1 for Zn read from file:
     /home/ys/qepseudo/SSSP_1.3.0_PBE_efficiency/Zn_pbe_v1.uspp.F.UPF
     MD5 check sum: df62231357ef9e81f77b2b3087fa5675
     Pseudo is Ultrasoft, Zval = 20.0
     Generated by new atomic code, or converted to UPF format
     Using radial grid of  943 points,  6 beta functions with: 
                l(1) =   0
                l(2) =   0
                l(3) =   1
                l(4) =   1
                l(5) =   2
                l(6) =   2
     Q(r) pseudized with  8 coefficients,  rinner =    1.100   1.100   1.100
                                                       1.100   1.100

     atomic species   valence    mass     pseudopotential
     Zn               20.00    65.38000     Zn( 1.00)

     No symmetry found


                                    s                        frac. trans.

      isym =  1     identity                                     

 cryst.   s( 1) = (     1          0          0      )
                  (     0          1          0      )
                  (     0          0          1      )

 cart.    s( 1) = (  1.0000000  0.0000000  0.0000000 )
                  (  0.0000000  1.0000000  0.0000000 )
                  (  0.0000000  0.0000000  1.0000000 )


   Cartesian axes

     site n.     atom                  positions (alat units)
         1        Zn     tau(   1) = (  -0.0000000   0.2886751   0.2329997  )
         2        Zn     tau(   2) = (  -0.0000000   0.2886751   1.1649986  )
         3        Zn     tau(   3) = (  -0.2500000   0.7216878   0.2329997  )
         4        Zn     tau(   4) = (  -0.2500000   0.7216878   1.1649986  )
         5        Zn     tau(   5) = (  -0.5000000   1.1547005   0.2329997  )
         6        Zn     tau(   6) = (  -0.5000000   1.1547005   1.1649986  )
         7        Zn     tau(   7) = (  -0.7500000   1.5877132   0.2329997  )
         8        Zn     tau(   8) = (  -0.7500000   1.5877132   1.1649986  )
         9        Zn     tau(   9) = (   0.5000000   0.2886751   0.2329997  )
        10        Zn     tau(  10) = (   0.5000000   0.2886751   1.1649986  )
        11        Zn     tau(  11) = (   0.2500000   0.7216878   0.2329997  )
        12        Zn     tau(  12) = (   0.2500000   0.7216878   1.1649986  )
        13        Zn     tau(  13) = (  -0.0000000   1.1547005   0.2329997  )
        14        Zn     tau(  14) = (  -0.0000000   1.1547005   1.1649986  )
        15        Zn     tau(  15) = (  -0.2500000   1.5877132   0.2329997  )
        16        Zn     tau(  16) = (  -0.2500000   1.5877132   1.1649986  )
        17        Zn     tau(  17) = (   0.2500000   0.1443376   0.6989991  )
        18        Zn     tau(  18) = (   0.2500000   0.1443376   1.6309980  )
        19        Zn     tau(  19) = (   0.0000000   0.5773503   0.6989991  )
        20        Zn     tau(  20) = (   0.0000000   0.5773503   1.6309980  )
        21        Zn     tau(  21) = (  -0.2500000   1.0103630   0.6989991  )
        22        Zn     tau(  22) = (  -0.2500000   1.0103630   1.6309980  )
        23        Zn     tau(  23) = (  -0.5000000   1.4433757   0.6989991  )
        24        Zn     tau(  24) = (  -0.5000000   1.4433757   1.6309980  )
        25        Zn     tau(  25) = (   0.7500000   0.1443376   0.6989991  )
        26        Zn     tau(  26) = (   0.7500000   0.1443376   1.6309980  )
        27        Zn     tau(  27) = (   0.5000000   0.5773503   0.6989991  )
        28        Zn     tau(  28) = (   0.5000000   0.5773503   1.6309980  )
        29        Zn     tau(  29) = (   0.2500000   1.0103630   0.6989991  )
        30        Zn     tau(  30) = (   0.2500000   1.0103630   1.6309980  )
        31        Zn     tau(  31) = (   0.0000000   1.4433757   0.6989991  )
        32        Zn     tau(  32) = (   0.0000000   1.4433757   1.6309980  )

   Crystallographic axes

     site n.     atom                  positions (cryst. coord.)
         1        Zn     tau(   1) = (  0.1666667  0.1666667  0.0513044  )
         2        Zn     tau(   2) = (  0.1666667  0.1666667  0.2565219  )
         3        Zn     tau(   3) = (  0.1666667  0.4166667  0.0513044  )
         4        Zn     tau(   4) = (  0.1666667  0.4166667  0.2565219  )
         5        Zn     tau(   5) = (  0.1666667  0.6666667  0.0513044  )
         6        Zn     tau(   6) = (  0.1666667  0.6666667  0.2565219  )
         7        Zn     tau(   7) = (  0.1666667  0.9166667  0.0513044  )
         8        Zn     tau(   8) = (  0.1666667  0.9166667  0.2565219  )
         9        Zn     tau(   9) = (  0.6666667  0.1666667  0.0513044  )
        10        Zn     tau(  10) = (  0.6666667  0.1666667  0.2565219  )
        11        Zn     tau(  11) = (  0.6666667  0.4166667  0.0513044  )
        12        Zn     tau(  12) = (  0.6666667  0.4166667  0.2565219  )
        13        Zn     tau(  13) = (  0.6666667  0.6666667  0.0513044  )
        14        Zn     tau(  14) = (  0.6666667  0.6666667  0.2565219  )
        15        Zn     tau(  15) = (  0.6666667  0.9166667  0.0513044  )
        16        Zn     tau(  16) = (  0.6666667  0.9166667  0.2565219  )
        17        Zn     tau(  17) = (  0.3333333  0.0833333  0.1539131  )
        18        Zn     tau(  18) = (  0.3333333  0.0833333  0.3591306  )
        19        Zn     tau(  19) = (  0.3333333  0.3333333  0.1539131  )
        20        Zn     tau(  20) = (  0.3333333  0.3333333  0.3591306  )
        21        Zn     tau(  21) = (  0.3333333  0.5833333  0.1539131  )
        22        Zn     tau(  22) = (  0.3333333  0.5833333  0.3591306  )
        23        Zn     tau(  23) = (  0.3333333  0.8333333  0.1539131  )
        24        Zn     tau(  24) = (  0.3333333  0.8333333  0.3591306  )
        25        Zn     tau(  25) = (  0.8333333  0.0833333  0.1539131  )
        26        Zn     tau(  26) = (  0.8333333  0.0833333  0.3591306  )
        27        Zn     tau(  27) = (  0.8333333  0.3333333  0.1539131  )
        28        Zn     tau(  28) = (  0.8333333  0.3333333  0.3591306  )
        29        Zn     tau(  29) = (  0.8333333  0.5833333  0.1539131  )
        30        Zn     tau(  30) = (  0.8333333  0.5833333  0.3591306  )
        31        Zn     tau(  31) = (  0.8333333  0.8333333  0.1539131  )
        32        Zn     tau(  32) = (  0.8333333  0.8333333  0.3591306  )

     number of k points=     5  Marzari-Vanderbilt smearing, width (Ry)=  0.0200
                       cart. coord. in units 2pi/alat
        k(    1) = (   0.0000000   0.0000000   0.0000000), wk =   0.2222222
        k(    2) = (   0.0000000   0.1924501   0.0000000), wk =   0.4444444
        k(    3) = (   0.3333333   0.1924501   0.0000000), wk =   0.4444444
        k(    4) = (   0.3333333   0.3849002   0.0000000), wk =   0.4444444
        k(    5) = (   0.3333333  -0.0000000   0.0000000), wk =   0.4444444

                       cryst. coord.
        k(    1) = (   0.0000000   0.0000000   0.0000000), wk =   0.2222222
        k(    2) = (   0.0000000   0.3333333   0.0000000), wk =   0.4444444
        k(    3) = (   0.3333333   0.0000000   0.0000000), wk =   0.4444444
        k(    4) = (   0.3333333   0.3333333   0.0000000), wk =   0.4444444
        k(    5) = (   0.3333333  -0.3333333   0.0000000), wk =   0.4444444

     Dense  grid:   168549 G-vectors     FFT dimensions: (  36,  72, 160)

     Dynamical RAM for                 wfc:       4.11 MB

     Dynamical RAM for     wfc (w. buffer):      24.64 MB

     Dynamical RAM for           str. fact:       0.09 MB

     Dynamical RAM for           local pot:       0.00 MB

     Dynamical RAM for          nlocal pot:       6.16 MB

     Dynamical RAM for                qrad:       0.88 MB

     Dynamical RAM for          rho,v,vnew:       0.61 MB

     Dynamical RAM for               rhoin:       0.20 MB

     Dynamical RAM for            rho*nmix:       1.37 MB

     Dynamical RAM for           G-vectors:       0.36 MB

     Dynamical RAM for          h,s,v(r/c):       1.69 MB

     Dynamical RAM for          <psi|beta>:       3.38 MB

     Dynamical RAM for                 psi:       8.21 MB

     Dynamical RAM for                hpsi:       8.21 MB

     Dynamical RAM for                spsi:       8.21 MB

     Dynamical RAM for      wfcinit/wfcrot:      12.86 MB

     Dynamical RAM for           addusdens:      18.71 MB

     Dynamical RAM for          addusforce:      24.20 MB

     Dynamical RAM for         addusstress:      17.25 MB

     Estimated static dynamical RAM per process >      33.72 MB

     Estimated max dynamical RAM per process >      64.80 MB

     Estimated total dynamical RAM >       1.90 GB

     Initial potential from superposition of free atoms

     starting charge     639.9955, renormalised to     640.0000

     negative rho (up, down):  8.211E-04 0.000E+00
     Starting wfcs are  416 randomized atomic wfcs
[psid04:54673] 29 more processes have sent help message help-mpi-btl-openib.txt / ib port not selected
[psid04:54673] Set MCA parameter "orte_base_help_aggregate" to 0 to see all help / error messages
[psid04:54673] 29 more processes have sent help message help-mpi-btl-openib.txt / error in device init

     total cpu time spent up to now is        8.4 secs

     Self-consistent Calculation

     iteration #  1     ecut=    30.00 Ry     beta= 0.70
     Davidson diagonalization with overlap

---- Real-time Memory Report at c_bands before calling an iterative solver
            74 MiB given to the printing process from OS
             0 MiB allocation reported by mallinfo(arena+hblkhd)
        113131 MiB available memory on the node where the printing process lives
------------------
     ethr =  1.00E-02,  avg # of iterations =  8.4

     Threshold (ethr) on eigenvalues was too large:
     Diagonalizing with lowered threshold

     Davidson diagonalization with overlap

---- Real-time Memory Report at c_bands before calling an iterative solver
            95 MiB given to the printing process from OS
             0 MiB allocation reported by mallinfo(arena+hblkhd)
        112932 MiB available memory on the node where the printing process lives
------------------
     ethr =  2.18E-04,  avg # of iterations =  4.0

     negative rho (up, down):  3.048E-03 0.000E+00

     total cpu time spent up to now is       70.0 secs

     total energy              =  -14766.96298912 Ry
     estimated scf accuracy    <       1.49248389 Ry

     iteration #  2     ecut=    30.00 Ry     beta= 0.70
     Davidson diagonalization with overlap

---- Real-time Memory Report at c_bands before calling an iterative solver
            95 MiB given to the printing process from OS
             0 MiB allocation reported by mallinfo(arena+hblkhd)
        112920 MiB available memory on the node where the printing process lives
------------------
     ethr =  2.33E-04,  avg # of iterations =  3.0

     negative rho (up, down):  3.756E-03 0.000E+00

     total cpu time spent up to now is      108.5 secs

     total energy              =  -14767.22145477 Ry
     estimated scf accuracy    <       2.79850162 Ry

     iteration #  3     ecut=    30.00 Ry     beta= 0.70
     Davidson diagonalization with overlap

---- Real-time Memory Report at c_bands before calling an iterative solver
            95 MiB given to the printing process from OS
             0 MiB allocation reported by mallinfo(arena+hblkhd)
        112913 MiB available memory on the node where the printing process lives
------------------
     ethr =  2.33E-04,  avg # of iterations =  8.8

     negative rho (up, down):  3.858E-03 0.000E+00

     total cpu time spent up to now is      152.8 secs

     total energy              =  -14767.59453081 Ry
     estimated scf accuracy    <       1.39687949 Ry

     iteration #  4     ecut=    30.00 Ry     beta= 0.70
     Davidson diagonalization with overlap

---- Real-time Memory Report at c_bands before calling an iterative solver
            96 MiB given to the printing process from OS
             0 MiB allocation reported by mallinfo(arena+hblkhd)
        112911 MiB available memory on the node where the printing process lives
------------------
     ethr =  2.18E-04,  avg # of iterations =  3.0

     negative rho (up, down):  4.964E-03 0.000E+00

     total cpu time spent up to now is      181.0 secs

     total energy              =  -14767.75708066 Ry
     estimated scf accuracy    <       0.04305449 Ry

     iteration #  5     ecut=    30.00 Ry     beta= 0.70
     Davidson diagonalization with overlap

---- Real-time Memory Report at c_bands before calling an iterative solver
            96 MiB given to the printing process from OS
             0 MiB allocation reported by mallinfo(arena+hblkhd)
        112903 MiB available memory on the node where the printing process lives
------------------
     ethr =  6.73E-06,  avg # of iterations =  6.0

     negative rho (up, down):  5.087E-03 0.000E+00

     total cpu time spent up to now is      210.6 secs

     total energy              =  -14767.76141894 Ry
     estimated scf accuracy    <       0.00292789 Ry

     iteration #  6     ecut=    30.00 Ry     beta= 0.70
     Davidson diagonalization with overlap

---- Real-time Memory Report at c_bands before calling an iterative solver
            96 MiB given to the printing process from OS
             0 MiB allocation reported by mallinfo(arena+hblkhd)
        112894 MiB available memory on the node where the printing process lives
------------------
     ethr =  4.57E-07,  avg # of iterations =  3.4

     negative rho (up, down):  5.114E-03 0.000E+00

     total cpu time spent up to now is      243.3 secs

     total energy              =  -14767.76179194 Ry
     estimated scf accuracy    <       0.00086785 Ry

     iteration #  7     ecut=    30.00 Ry     beta= 0.70
     Davidson diagonalization with overlap

---- Real-time Memory Report at c_bands before calling an iterative solver
            96 MiB given to the printing process from OS
             0 MiB allocation reported by mallinfo(arena+hblkhd)
        112893 MiB available memory on the node where the printing process lives
------------------
     ethr =  1.36E-07,  avg # of iterations =  2.4

     negative rho (up, down):  5.157E-03 0.000E+00

     total cpu time spent up to now is      269.4 secs

     total energy              =  -14767.76174149 Ry
     estimated scf accuracy    <       0.00440652 Ry

     iteration #  8     ecut=    30.00 Ry     beta= 0.70
     Davidson diagonalization with overlap

---- Real-time Memory Report at c_bands before calling an iterative solver
            96 MiB given to the printing process from OS
             0 MiB allocation reported by mallinfo(arena+hblkhd)
        112887 MiB available memory on the node where the printing process lives
------------------
     ethr =  1.36E-07,  avg # of iterations =  4.6

     negative rho (up, down):  5.180E-03 0.000E+00

     total cpu time spent up to now is      294.8 secs

     total energy              =  -14767.76197548 Ry
     estimated scf accuracy    <       0.00002197 Ry

     iteration #  9     ecut=    30.00 Ry     beta= 0.70
     Davidson diagonalization with overlap

---- Real-time Memory Report at c_bands before calling an iterative solver
            97 MiB given to the printing process from OS
             0 MiB allocation reported by mallinfo(arena+hblkhd)
        112881 MiB available memory on the node where the printing process lives
------------------
     ethr =  3.43E-09,  avg # of iterations =  2.0

     negative rho (up, down):  5.186E-03 0.000E+00

     total cpu time spent up to now is      325.0 secs

     total energy              =  -14767.76198046 Ry
     estimated scf accuracy    <       0.00000244 Ry

     iteration # 10     ecut=    30.00 Ry     beta= 0.70
     Davidson diagonalization with overlap

---- Real-time Memory Report at c_bands before calling an iterative solver
            97 MiB given to the printing process from OS
             0 MiB allocation reported by mallinfo(arena+hblkhd)
        112876 MiB available memory on the node where the printing process lives
------------------
     ethr =  3.81E-10,  avg # of iterations =  2.0

     negative rho (up, down):  5.184E-03 0.000E+00

     total cpu time spent up to now is      355.2 secs

     total energy              =  -14767.76198065 Ry
     estimated scf accuracy    <       0.00000094 Ry

     iteration # 11     ecut=    30.00 Ry     beta= 0.70
     Davidson diagonalization with overlap

---- Real-time Memory Report at c_bands before calling an iterative solver
            97 MiB given to the printing process from OS
             0 MiB allocation reported by mallinfo(arena+hblkhd)
        112872 MiB available memory on the node where the printing process lives
------------------
     ethr =  1.47E-10,  avg # of iterations =  2.0

     negative rho (up, down):  5.184E-03 0.000E+00

     total cpu time spent up to now is      382.0 secs

     End of self-consistent calculation

          k = 0.0000 0.0000 0.0000 ( 21087 PWs)   bands (ev):

  -123.3816-123.3766-123.3762-123.3762-123.3754-123.3752-123.3750-123.3747
  -123.3746-123.3745-123.3739-123.3737-123.3736-123.3736-123.3732-123.3731
  -123.1056-123.1049-123.1019-123.1016-123.1014-123.1014-123.1013-123.1011
  -123.1010-123.1009-123.1008-123.1007-123.1004-123.1003-123.1002-123.1001
   -77.4887 -77.4886 -77.4881 -77.4880 -77.4840 -77.4834 -77.4813 -77.4813
   -77.4792 -77.4792 -77.4731 -77.4650 -77.4648 -77.4635 -77.4631 -77.4622
   -77.4622 -77.4616 -77.4608 -77.4601 -77.4601 -77.4596 -77.4591 -77.4585
   -77.4581 -77.4576 -77.4568 -77.4553 -77.4551 -77.4533 -77.4533 -77.4524
   -77.4509 -77.4489 -77.4489 -77.4487 -77.4486 -77.4484 -77.4478 -77.4476
   -77.4474 -77.4463 -77.4460 -77.4437 -77.4436 -77.4436 -77.4436 -77.4415
   -77.2120 -77.2120 -77.2114 -77.2114 -77.2078 -77.2071 -77.2038 -77.2038
   -77.2028 -77.2028 -77.2001 -77.1977 -77.1969 -77.1968 -77.1967 -77.1965
   -77.1965 -77.1964 -77.1962 -77.1960 -77.1959 -77.1952 -77.1952 -77.1951
   -77.1950 -77.1949 -77.1767 -77.1756 -77.1756 -77.1750 -77.1735 -77.1734
   -77.1734 -77.1733 -77.1731 -77.1720 -77.1719 -77.1719 -77.1712 -77.1711
   -77.1709 -77.1708 -77.1708 -77.1693 -77.1688 -77.1687 -77.1677 -77.1677
    -6.9650  -6.0642  -5.3611  -5.3611  -5.3163  -5.2629  -5.1241  -5.1220
    -5.1220  -5.0985  -5.0976  -5.0976  -4.9594  -4.9594  -4.9296  -4.9296
    -4.9284  -4.7904  -4.7886  -4.7886  -4.7623  -4.7623  -4.7439  -4.7439
    -4.7122  -4.7109  -4.7109  -4.7051  -4.7051  -4.7042  -4.6842  -4.6842
    -4.6838  -4.6838  -4.6420  -4.6420  -4.5384  -4.5384  -4.5372  -4.5360
    -4.5360  -4.4637  -4.4637  -4.4556  -4.4556  -4.4253  -4.4253  -4.4233
    -4.3953  -4.3953  -4.3555  -4.3555  -4.3448  -4.3445  -4.3322  -4.3322
    -4.3250  -4.3248  -4.2856  -4.2856  -4.2850  -4.2850  -4.2835  -4.2814
    -4.2513  -4.2513  -4.2418  -4.2418  -4.1776  -4.1776  -4.1722  -4.1722
    -4.1078  -4.1049  -4.1049  -4.0911  -4.0911  -4.0575  -4.0575  -4.0539
    -4.0537  -4.0194  -4.0194  -4.0069  -4.0069  -4.0043  -4.0043  -3.9786
    -3.9786  -3.9776  -3.9547  -3.9547  -3.9373  -3.9373  -3.9248  -3.9248
    -3.9172  -3.9172  -3.9133  -3.9133  -3.9061  -3.9051  -3.9051  -3.9033
    -3.9033  -3.8725  -3.8690  -3.8528  -3.8528  -3.8174  -3.8173  -3.7778
    -3.7778  -3.7717  -3.7717  -3.7579  -3.7543  -3.7543  -3.7542  -3.7139
    -3.7138  -3.7116  -3.6473  -3.6445  -3.6444  -3.6410  -3.6410  -3.6392
    -3.6390  -3.6390  -3.6342  -3.6342  -3.6254  -3.6254  -3.6128  -3.6099
    -3.6099  -3.5753  -3.5753  -3.5607  -3.5607  -3.5506  -3.5506  -3.5484
    -3.5256  -3.5218  -3.5179  -3.5141  -3.5034  -3.5034  -3.5034  -3.4959
    -3.4959  -3.4958  -3.4903  -3.4903  -3.4691  -3.4691  -3.3559  -3.2233
    -3.2233  -3.2232  -3.2214  -3.2214  -3.2213  -3.2145  -3.2145  -1.7852
    -1.7852  -1.1980  -0.4567  -0.4567   0.2635   0.2635   0.4792   0.4792
     0.8295   0.8295   0.8306   0.9012   1.4081   1.4081   1.4096   1.8556
     1.8556   1.8568   1.9399   1.9399   2.0855   2.0855   2.0873   3.2087
     3.2087   3.7680   3.7680   4.0806   4.2443   4.2451   4.2451   4.5075
     4.5076   4.5076   5.4782   5.4787   5.4787   5.9173   5.9173   6.3755
     6.3755   6.3755   6.4605   7.0732   7.0732   7.0969   7.0969   7.2651
     7.2651   7.2854   7.2992   8.0895   8.0895   8.1802   8.1802   8.2216
     8.2216   8.2562   8.2564   8.2564   8.9303   9.0896   9.0896   9.1050
     9.1316   9.1316   9.3717   9.3717   9.6757   9.6757   9.7596   9.7596
     9.9189   9.9189   9.9192  10.6915  10.6915  10.8733  10.8733  10.9788
    10.9788  11.2581  11.2582  11.2582  11.4424  11.4835  11.4835  11.6682

     occupation numbers 
     1.0000   1.0000   1.0000   1.0000   1.0000   1.0000   1.0000   1.0000
     1.0000   1.0000   1.0000   1.0000   1.0000   1.0000   1.0000   1.0000
     1.0000   1.0000   1.0000   1.0000   1.0000   1.0000   1.0000   1.0000
     1.0000   1.0000   1.0000   1.0000   1.0000   1.0000   1.0000   1.0000
     1.0000   1.0000   1.0000   1.0000   1.0000   1.0000   1.0000   1.0000
     1.0000   1.0000   1.0000   1.0000   1.0000   1.0000   1.0000   1.0000
     1.0000   1.0000   1.0000   1.0000   1.0000   1.0000   1.0000   1.0000
     1.0000   1.0000   1.0000   1.0000   1.0000   1.0000   1.0000   1.0000
     1.0000   1.0000   1.0000   1.0000   1.0000   1.0000   1.0000   1.0000
     1.0000   1.0000   1.0000   1.0000   1.0000   1.0000   1.0000   1.0000
     1.0000   1.0000   1.0000   1.0000   1.0000   1.0000   1.0000   1.0000
     1.0000   1.0000   1.0000   1.0000   1.0000   1.0000   1.0000   1.0000
     1.0000   1.0000   1.0000   1.0000   1.0000   1.0000   1.0000   1.0000
     1.0000   1.0000   1.0000   1.0000   1.0000   1.0000   1.0000   1.0000
     1.0000   1.0000   1.0000   1.0000   1.0000   1.0000   1.0000   1.0000
     1.0000   1.0000   1.0000   1.0000   1.0000   1.0000   1.0000   1.0000
     1.0000   1.0000   1.0000   1.0000   1.0000   1.0000   1.0000   1.0000
     1.0000   1.0000   1.0000   1.0000   1.0000   1.0000   1.0000   1.0000
     1.0000   1.0000   1.0000   1.0000   1.0000   1.0000   1.0000   1.0000
     1.0000   1.0000   1.0000   1.0000   1.0000   1.0000   1.0000   1.0000
     1.0000   1.0000   1.0000   1.0000   1.0000   1.0000   1.0000   1.0000
     1.0000   1.0000   1.0000   1.0000   1.0000   1.0000   1.0000   1.0000
     1.0000   1.0000   1.0000   1.0000   1.0000   1.0000   1.0000   1.0000
     1.0000   1.0000   1.0000   1.0000   1.0000   1.0000   1.0000   1.0000
     1.0000   1.0000   1.0000   1.0000   1.0000   1.0000   1.0000   1.0000
     1.0000   1.0000   1.0000   1.0000   1.0000   1.0000   1.0000   1.0000
     1.0000   1.0000   1.0000   1.0000   1.0000   1.0000   1.0000   1.0000
     1.0000   1.0000   1.0000   1.0000   1.0000   1.0000   1.0000   1.0000
     1.0000   1.0000   1.0000   1.0000   1.0000   1.0000   1.0000   1.0000
     1.0000   1.0000   1.0000   1.0000   1.0000   1.0000   1.0000   1.0000
     1.0000   1.0000   1.0000   1.0000   1.0000   1.0000   1.0000   1.0000
     1.0000   1.0000   1.0000   1.0000   1.0000   1.0000   1.0000   1.0000
     1.0000   1.0000   1.0000   1.0000   1.0000   1.0000   1.0000   1.0000
     1.0000   1.0000   1.0000   1.0000   1.0000   1.0000   1.0000   1.0000
     1.0000   1.0000   1.0000   1.0000   1.0000   1.0000   1.0000   1.0000
     1.0000   1.0000   1.0000   1.0000   1.0000   1.0000   1.0000   1.0000
     1.0000   1.0000   1.0000   1.0000   1.0000   1.0000   1.0000   1.0000
     1.0000   1.0000   1.0000   1.0000   1.0000   1.0000   1.0000   1.0000
     1.0000   1.0000   1.0000   1.0000   1.0000   1.0000   1.0000   1.0000
     1.0000   1.0000   1.0000   1.0000   1.0000   1.0000   1.0000   1.0250
     1.0250   0.5098   0.5098   0.0299   0.0025   0.0025   0.0025   0.0000
     0.0000   0.0000   0.0000   0.0000   0.0000   0.0000   0.0000   0.0000
     0.0000   0.0000   0.0000   0.0000   0.0000   0.0000   0.0000   0.0000
     0.0000   0.0000   0.0000   0.0000   0.0000   0.0000   0.0000   0.0000
     0.0000   0.0000   0.0000   0.0000   0.0000   0.0000   0.0000   0.0000
     0.0000   0.0000   0.0000   0.0000   0.0000   0.0000   0.0000   0.0000
     0.0000   0.0000   0.0000   0.0000   0.0000   0.0000   0.0000   0.0000
     0.0000   0.0000   0.0000   0.0000   0.0000   0.0000   0.0000   0.0000

          k = 0.0000 0.1925 0.0000 ( 21094 PWs)   bands (ev):

  -123.3798-123.3768-123.3759-123.3755-123.3755-123.3753-123.3752-123.3751
  -123.3749-123.3743-123.3742-123.3742-123.3741-123.3738-123.3735-123.3734
  -123.1041-123.1037-123.1025-123.1018-123.1018-123.1017-123.1015-123.1013
  -123.1012-123.1011-123.1011-123.1007-123.1006-123.1006-123.1005-123.1001
   -77.4885 -77.4884 -77.4864 -77.4863 -77.4826 -77.4825 -77.4809 -77.4808
   -77.4806 -77.4774 -77.4693 -77.4680 -77.4656 -77.4654 -77.4638 -77.4622
   -77.4613 -77.4611 -77.4609 -77.4604 -77.4602 -77.4601 -77.4592 -77.4591
   -77.4591 -77.4589 -77.4584 -77.4583 -77.4570 -77.4557 -77.4557 -77.4536
   -77.4535 -77.4513 -77.4508 -77.4507 -77.4497 -77.4496 -77.4496 -77.4488
   -77.4477 -77.4455 -77.4452 -77.4422 -77.4420 -77.4402 -77.4387 -77.4363
   -77.2106 -77.2106 -77.2104 -77.2104 -77.2060 -77.2060 -77.2047 -77.2036
   -77.2036 -77.2014 -77.1999 -77.1998 -77.1995 -77.1988 -77.1964 -77.1963
   -77.1963 -77.1963 -77.1959 -77.1957 -77.1950 -77.1944 -77.1943 -77.1937
   -77.1922 -77.1922 -77.1885 -77.1858 -77.1785 -77.1785 -77.1774 -77.1774
   -77.1739 -77.1739 -77.1734 -77.1730 -77.1730 -77.1728 -77.1719 -77.1711
   -77.1706 -77.1695 -77.1682 -77.1673 -77.1672 -77.1659 -77.1644 -77.1598
    -6.7534  -6.1478  -5.8685  -5.3521  -5.1773  -5.1576  -5.0974  -5.0693
    -5.0658  -5.0573  -5.0573  -5.0242  -5.0242  -4.9900  -4.9160  -4.8946
    -4.8897  -4.8897  -4.8657  -4.8657  -4.8579  -4.8259  -4.8259  -4.8034
    -4.7832  -4.7832  -4.7618  -4.7190  -4.7190  -4.7058  -4.6986  -4.6804
    -4.6804  -4.6606  -4.6481  -4.6481  -4.6411  -4.6107  -4.6107  -4.5631
    -4.5366  -4.5366  -4.5114  -4.4746  -4.4746  -4.4714  -4.4226  -4.4132
    -4.4132  -4.4090  -4.3942  -4.3942  -4.3771  -4.3749  -4.3661  -4.3465
    -4.3383  -4.2955  -4.2903  -4.2710  -4.2681  -4.2681  -4.2546  -4.2372
    -4.2372  -4.2115  -4.2061  -4.1699  -4.1699  -4.1456  -4.1323  -4.1323
    -4.1309  -4.1309  -4.1212  -4.1017  -4.0951  -4.0810  -4.0754  -4.0734
    -4.0601  -4.0413  -4.0199  -4.0199  -4.0112  -4.0004  -3.9999  -3.9801
    -3.9801  -3.9570  -3.9338  -3.9313  -3.9313  -3.9044  -3.9044  -3.8974
    -3.8792  -3.8788  -3.8758  -3.8671  -3.8564  -3.8556  -3.8475  -3.8475
    -3.8238  -3.8198  -3.7643  -3.7610  -3.7572  -3.7572  -3.7524  -3.7478
    -3.7478  -3.7220  -3.7188  -3.7183  -3.7101  -3.7101  -3.7087  -3.7087
    -3.7077  -3.7018  -3.7018  -3.6958  -3.6958  -3.6872  -3.6612  -3.6612
    -3.6458  -3.6370  -3.6370  -3.6150  -3.6150  -3.6079  -3.6020  -3.5930
    -3.5903  -3.5899  -3.5899  -3.5865  -3.5778  -3.5625  -3.5578  -3.5517
    -3.5517  -3.5509  -3.5478  -3.5467  -3.5467  -3.5371  -3.5311  -3.5206
    -3.4674  -3.4674  -3.4466  -3.4466  -3.4321  -3.4298  -3.3211  -3.3211
    -3.3157  -3.3157  -3.2802  -3.2775  -3.1101  -2.9024  -2.6167  -1.9945
    -1.0919  -1.0407  -0.5667  -0.4608  -0.3070  -0.3070  -0.1615   0.1850
     0.1850   0.6259   0.6259   1.0751   1.0751   1.1859   1.2819   1.5122
     1.9875   2.0621   2.0621   2.2969   2.2969   2.6483   2.6483   2.8784
     3.6913   3.6913   4.2867   4.4362   4.4362   4.7444   4.7734   4.9038
     4.9669   4.9669   5.2175   5.2175   5.4246   5.5685   5.5685   5.9786
     5.9786   6.3553   6.6574   7.0265   7.0265   7.1159   7.1704   7.2474
     7.3495   7.3495   7.4866   7.5041   7.5595   7.6845   7.6845   7.8915
     7.8915   8.0898   8.1174   8.3272   8.4700   8.9736   8.9736   9.1348
     9.3065   9.3866   9.5859   9.7032   9.7032   9.7439   9.9085  10.1207
    10.1207  10.1248  10.2979  10.2979  10.5746  10.6044  10.7684  10.7684
    11.0198  11.0198  11.4377  11.6491  11.8698  11.8698  11.8894  11.9059

     occupation numbers 
     1.0000   1.0000   1.0000   1.0000   1.0000   1.0000   1.0000   1.0000
     1.0000   1.0000   1.0000   1.0000   1.0000   1.0000   1.0000   1.0000
     1.0000   1.0000   1.0000   1.0000   1.0000   1.0000   1.0000   1.0000
     1.0000   1.0000   1.0000   1.0000   1.0000   1.0000   1.0000   1.0000
     1.0000   1.0000   1.0000   1.0000   1.0000   1.0000   1.0000   1.0000
     1.0000   1.0000   1.0000   1.0000   1.0000   1.0000   1.0000   1.0000
     1.0000   1.0000   1.0000   1.0000   1.0000   1.0000   1.0000   1.0000
     1.0000   1.0000   1.0000   1.0000   1.0000   1.0000   1.0000   1.0000
     1.0000   1.0000   1.0000   1.0000   1.0000   1.0000   1.0000   1.0000
     1.0000   1.0000   1.0000   1.0000   1.0000   1.0000   1.0000   1.0000
     1.0000   1.0000   1.0000   1.0000   1.0000   1.0000   1.0000   1.0000
     1.0000   1.0000   1.0000   1.0000   1.0000   1.0000   1.0000   1.0000
     1.0000   1.0000   1.0000   1.0000   1.0000   1.0000   1.0000   1.0000
     1.0000   1.0000   1.0000   1.0000   1.0000   1.0000   1.0000   1.0000
     1.0000   1.0000   1.0000   1.0000   1.0000   1.0000   1.0000   1.0000
     1.0000   1.0000   1.0000   1.0000   1.0000   1.0000   1.0000   1.0000
     1.0000   1.0000   1.0000   1.0000   1.0000   1.0000   1.0000   1.0000
     1.0000   1.0000   1.0000   1.0000   1.0000   1.0000   1.0000   1.0000
     1.0000   1.0000   1.0000   1.0000   1.0000   1.0000   1.0000   1.0000
     1.0000   1.0000   1.0000   1.0000   1.0000   1.0000   1.0000   1.0000
     1.0000   1.0000   1.0000   1.0000   1.0000   1.0000   1.0000   1.0000
     1.0000   1.0000   1.0000   1.0000   1.0000   1.0000   1.0000   1.0000
     1.0000   1.0000   1.0000   1.0000   1.0000   1.0000   1.0000   1.0000
     1.0000   1.0000   1.0000   1.0000   1.0000   1.0000   1.0000   1.0000
     1.0000   1.0000   1.0000   1.0000   1.0000   1.0000   1.0000   1.0000
     1.0000   1.0000   1.0000   1.0000   1.0000   1.0000   1.0000   1.0000
     1.0000   1.0000   1.0000   1.0000   1.0000   1.0000   1.0000   1.0000
     1.0000   1.0000   1.0000   1.0000   1.0000   1.0000   1.0000   1.0000
     1.0000   1.0000   1.0000   1.0000   1.0000   1.0000   1.0000   1.0000
     1.0000   1.0000   1.0000   1.0000   1.0000   1.0000   1.0000   1.0000
     1.0000   1.0000   1.0000   1.0000   1.0000   1.0000   1.0000   1.0000
     1.0000   1.0000   1.0000   1.0000   1.0000   1.0000   1.0000   1.0000
     1.0000   1.0000   1.0000   1.0000   1.0000   1.0000   1.0000   1.0000
     1.0000   1.0000   1.0000   1.0000   1.0000   1.0000   1.0000   1.0000
     1.0000   1.0000   1.0000   1.0000   1.0000   1.0000   1.0000   1.0000
     1.0000   1.0000   1.0000   1.0000   1.0000   1.0000   1.0000   1.0000
     1.0000   1.0000   1.0000   1.0000   1.0000   1.0000   1.0000   1.0000
     1.0000   1.0000   1.0000   1.0000   1.0000   1.0000   1.0000   1.0000
     1.0000   1.0000   1.0000   1.0000   1.0000   1.0000   1.0000   1.0000
     1.0000   1.0000   1.0000   1.0000   1.0000   1.0000   1.0000   1.0002
     0.7203   0.7203   0.0012   0.0001   0.0001   0.0000   0.0000   0.0000
     0.0000   0.0000   0.0000   0.0000   0.0000   0.0000   0.0000   0.0000
     0.0000   0.0000   0.0000   0.0000   0.0000   0.0000   0.0000   0.0000
     0.0000   0.0000   0.0000   0.0000   0.0000   0.0000   0.0000   0.0000
     0.0000   0.0000   0.0000   0.0000   0.0000   0.0000   0.0000   0.0000
     0.0000   0.0000   0.0000   0.0000   0.0000   0.0000   0.0000   0.0000
     0.0000   0.0000   0.0000   0.0000   0.0000   0.0000   0.0000   0.0000
     0.0000   0.0000   0.0000   0.0000   0.0000   0.0000   0.0000   0.0000

          k = 0.3333 0.1925 0.0000 ( 21057 PWs)   bands (ev):

  -123.3771-123.3761-123.3758-123.3754-123.3753-123.3753-123.3751-123.3747
  -123.3747-123.3744-123.3743-123.3740-123.3740-123.3738-123.3735-123.3732
  -123.1026-123.1020-123.1018-123.1018-123.1016-123.1015-123.1013-123.1012
  -123.1011-123.1010-123.1009-123.1008-123.1007-123.1007-123.1003-123.1001
   -77.4805 -77.4797 -77.4794 -77.4776 -77.4774 -77.4758 -77.4731 -77.4700
   -77.4685 -77.4678 -77.4675 -77.4674 -77.4661 -77.4645 -77.4640 -77.4624
   -77.4618 -77.4617 -77.4617 -77.4612 -77.4610 -77.4609 -77.4608 -77.4606
   -77.4604 -77.4602 -77.4600 -77.4595 -77.4595 -77.4590 -77.4588 -77.4586
   -77.4572 -77.4562 -77.4556 -77.4531 -77.4528 -77.4487 -77.4480 -77.4462
   -77.4456 -77.4441 -77.4430 -77.4430 -77.4408 -77.4406 -77.4401 -77.4350
   -77.2043 -77.2023 -77.2017 -77.2012 -77.2011 -77.2010 -77.1999 -77.1996
   -77.1988 -77.1988 -77.1970 -77.1967 -77.1964 -77.1962 -77.1960 -77.1957
   -77.1951 -77.1950 -77.1945 -77.1943 -77.1942 -77.1940 -77.1939 -77.1927
   -77.1919 -77.1902 -77.1878 -77.1869 -77.1851 -77.1849 -77.1833 -77.1822
   -77.1803 -77.1791 -77.1789 -77.1769 -77.1744 -77.1734 -77.1710 -77.1689
   -77.1676 -77.1665 -77.1661 -77.1653 -77.1649 -77.1648 -77.1637 -77.1613
    -6.1475  -5.6042  -5.3513  -5.0679  -5.0233  -4.9880  -4.9817  -4.9144
    -4.8712  -4.8668  -4.8654  -4.8562  -4.8257  -4.8254  -4.8039  -4.7867
    -4.7825  -4.7820  -4.7598  -4.7508  -4.7258  -4.7257  -4.7158  -4.7040
    -4.6568  -4.6556  -4.6439  -4.6414  -4.6197  -4.6100  -4.6097  -4.5899
    -4.5894  -4.5620  -4.5374  -4.5362  -4.5156  -4.5078  -4.4942  -4.4755
    -4.4745  -4.4729  -4.4709  -4.4634  -4.4633  -4.4234  -4.4142  -4.4088
    -4.3940  -4.3938  -4.3866  -4.3784  -4.3756  -4.3702  -4.3692  -4.3665
    -4.3388  -4.3021  -4.3011  -4.2867  -4.2749  -4.2486  -4.2415  -4.2363
    -4.2360  -4.2195  -4.2130  -4.2079  -4.1717  -4.1711  -4.1665  -4.1457
    -4.1446  -4.1445  -4.1389  -4.1340  -4.1338  -4.1212  -4.1199  -4.1038
    -4.0883  -4.0879  -4.0757  -4.0753  -4.0573  -4.0438  -4.0426  -4.0269
    -4.0087  -3.9917  -3.9815  -3.9813  -3.9691  -3.9553  -3.9547  -3.9378
    -3.9333  -3.9325  -3.9228  -3.9166  -3.9100  -3.9061  -3.9028  -3.8783
    -3.8781  -3.8765  -3.8671  -3.8670  -3.8665  -3.8583  -3.8499  -3.8464
    -3.8456  -3.8260  -3.8196  -3.8102  -3.8069  -3.7822  -3.7799  -3.7622
    -3.7593  -3.7589  -3.7404  -3.7385  -3.7217  -3.7214  -3.7210  -3.7160
    -3.7109  -3.7104  -3.7076  -3.7038  -3.7031  -3.6982  -3.6975  -3.6892
    -3.6868  -3.6581  -3.6470  -3.6326  -3.6134  -3.6133  -3.6126  -3.5995
    -3.5941  -3.5837  -3.5797  -3.5786  -3.5673  -3.5670  -3.5648  -3.5496
    -3.5481  -3.5401  -3.5342  -3.4921  -3.4649  -3.4646  -3.4642  -3.4440
    -3.4435  -3.4322  -3.4299  -3.3743  -3.2235  -2.9042  -2.6171  -2.4996
    -2.1190  -2.1001  -1.9954  -1.2314  -1.0159  -0.5668  -0.4614  -0.3063
    -0.3058  -0.0713   0.2394   0.6265   0.6270   0.9875   1.5117   1.6275
     1.9874   2.0624   2.0630   2.1608   2.5675   2.7347   3.6915   3.6929
     3.8958   4.0838   4.1258   4.7733   4.9038   5.2166   5.2174   5.4257
     5.4411   5.5170   5.9784   5.9785   6.0177   6.7127   6.7139   6.7594
     7.0263   7.0264   7.1696   7.2474   7.5602   7.6844   7.6847   7.7586
     7.8027   7.8361   8.0898   8.1017   8.1174   8.4697   8.5666   8.6921
     8.7286   8.9686   8.9734   8.9735   8.9837   9.0372   9.2963   9.3653
     9.3868   9.7029   9.7032   9.7439   9.8675   9.9015   9.9085   9.9920
    10.1209  10.1213  10.1245  10.3462  10.3570  10.3977  10.5056  10.5747
    10.6043  10.6899  10.7684  10.7685  10.9238  11.1176  11.1691  11.4725

     occupation numbers 
     1.0000   1.0000   1.0000   1.0000   1.0000   1.0000   1.0000   1.0000
     1.0000   1.0000   1.0000   1.0000   1.0000   1.0000   1.0000   1.0000
     1.0000   1.0000   1.0000   1.0000   1.0000   1.0000   1.0000   1.0000
     1.0000   1.0000   1.0000   1.0000   1.0000   1.0000   1.0000   1.0000
     1.0000   1.0000   1.0000   1.0000   1.0000   1.0000   1.0000   1.0000
     1.0000   1.0000   1.0000   1.0000   1.0000   1.0000   1.0000   1.0000
     1.0000   1.0000   1.0000   1.0000   1.0000   1.0000   1.0000   1.0000
     1.0000   1.0000   1.0000   1.0000   1.0000   1.0000   1.0000   1.0000
     1.0000   1.0000   1.0000   1.0000   1.0000   1.0000   1.0000   1.0000
     1.0000   1.0000   1.0000   1.0000   1.0000   1.0000   1.0000   1.0000
     1.0000   1.0000   1.0000   1.0000   1.0000   1.0000   1.0000   1.0000
     1.0000   1.0000   1.0000   1.0000   1.0000   1.0000   1.0000   1.0000
     1.0000   1.0000   1.0000   1.0000   1.0000   1.0000   1.0000   1.0000
     1.0000   1.0000   1.0000   1.0000   1.0000   1.0000   1.0000   1.0000
     1.0000   1.0000   1.0000   1.0000   1.0000   1.0000   1.0000   1.0000
     1.0000   1.0000   1.0000   1.0000   1.0000   1.0000   1.0000   1.0000
     1.0000   1.0000   1.0000   1.0000   1.0000   1.0000   1.0000   1.0000
     1.0000   1.0000   1.0000   1.0000   1.0000   1.0000   1.0000   1.0000
     1.0000   1.0000   1.0000   1.0000   1.0000   1.0000   1.0000   1.0000
     1.0000   1.0000   1.0000   1.0000   1.0000   1.0000   1.0000   1.0000
     1.0000   1.0000   1.0000   1.0000   1.0000   1.0000   1.0000   1.0000
     1.0000   1.0000   1.0000   1.0000   1.0000   1.0000   1.0000   1.0000
     1.0000   1.0000   1.0000   1.0000   1.0000   1.0000   1.0000   1.0000
     1.0000   1.0000   1.0000   1.0000   1.0000   1.0000   1.0000   1.0000
     1.0000   1.0000   1.0000   1.0000   1.0000   1.0000   1.0000   1.0000
     1.0000   1.0000   1.0000   1.0000   1.0000   1.0000   1.0000   1.0000
     1.0000   1.0000   1.0000   1.0000   1.0000   1.0000   1.0000   1.0000
     1.0000   1.0000   1.0000   1.0000   1.0000   1.0000   1.0000   1.0000
     1.0000   1.0000   1.0000   1.0000   1.0000   1.0000   1.0000   1.0000
     1.0000   1.0000   1.0000   1.0000   1.0000   1.0000   1.0000   1.0000
     1.0000   1.0000   1.0000   1.0000   1.0000   1.0000   1.0000   1.0000
     1.0000   1.0000   1.0000   1.0000   1.0000   1.0000   1.0000   1.0000
     1.0000   1.0000   1.0000   1.0000   1.0000   1.0000   1.0000   1.0000
     1.0000   1.0000   1.0000   1.0000   1.0000   1.0000   1.0000   1.0000
     1.0000   1.0000   1.0000   1.0000   1.0000   1.0000   1.0000   1.0000
     1.0000   1.0000   1.0000   1.0000   1.0000   1.0000   1.0000   1.0000
     1.0000   1.0000   1.0000   1.0000   1.0000   1.0000   1.0000   1.0000
     1.0000   1.0000   1.0000   1.0000   1.0000   1.0000   1.0000   1.0000
     1.0000   1.0000   1.0000   1.0000   1.0000   1.0000   1.0000   1.0000
     1.0000   1.0000   1.0000   1.0000   1.0000   1.0000   0.7197   0.7160
     0.2135   0.0287   0.0162   0.0000   0.0000   0.0000   0.0000   0.0000
     0.0000   0.0000   0.0000   0.0000   0.0000   0.0000   0.0000   0.0000
     0.0000   0.0000   0.0000   0.0000   0.0000   0.0000   0.0000   0.0000
     0.0000   0.0000   0.0000   0.0000   0.0000   0.0000   0.0000   0.0000
     0.0000   0.0000   0.0000   0.0000   0.0000   0.0000   0.0000   0.0000
     0.0000   0.0000   0.0000   0.0000   0.0000   0.0000   0.0000   0.0000
     0.0000   0.0000   0.0000   0.0000   0.0000   0.0000   0.0000   0.0000
     0.0000   0.0000   0.0000   0.0000   0.0000   0.0000   0.0000   0.0000

          k = 0.3333 0.3849 0.0000 ( 21057 PWs)   bands (ev):

  -123.3771-123.3761-123.3758-123.3754-123.3753-123.3753-123.3751-123.3747
  -123.3747-123.3744-123.3743-123.3740-123.3740-123.3738-123.3735-123.3732
  -123.1026-123.1020-123.1018-123.1018-123.1016-123.1015-123.1013-123.1012
  -123.1011-123.1010-123.1009-123.1008-123.1007-123.1007-123.1003-123.1001
   -77.4805 -77.4797 -77.4794 -77.4776 -77.4774 -77.4758 -77.4731 -77.4700
   -77.4685 -77.4678 -77.4675 -77.4674 -77.4661 -77.4645 -77.4640 -77.4624
   -77.4618 -77.4617 -77.4617 -77.4612 -77.4610 -77.4608 -77.4608 -77.4606
   -77.4604 -77.4602 -77.4600 -77.4595 -77.4595 -77.4590 -77.4588 -77.4586
   -77.4572 -77.4562 -77.4556 -77.4531 -77.4528 -77.4487 -77.4480 -77.4462
   -77.4456 -77.4441 -77.4430 -77.4430 -77.4408 -77.4406 -77.4401 -77.4350
   -77.2043 -77.2023 -77.2017 -77.2012 -77.2011 -77.2010 -77.1999 -77.1996
   -77.1988 -77.1988 -77.1970 -77.1967 -77.1964 -77.1962 -77.1960 -77.1957
   -77.1951 -77.1950 -77.1945 -77.1943 -77.1942 -77.1940 -77.1939 -77.1927
   -77.1919 -77.1902 -77.1878 -77.1869 -77.1851 -77.1849 -77.1833 -77.1822
   -77.1803 -77.1791 -77.1789 -77.1769 -77.1744 -77.1734 -77.1710 -77.1689
   -77.1676 -77.1665 -77.1661 -77.1653 -77.1649 -77.1648 -77.1637 -77.1613
    -6.1475  -5.6042  -5.3513  -5.0679  -5.0233  -4.9880  -4.9817  -4.9144
    -4.8712  -4.8668  -4.8654  -4.8562  -4.8257  -4.8254  -4.8039  -4.7867
    -4.7825  -4.7820  -4.7598  -4.7508  -4.7258  -4.7257  -4.7158  -4.7040
    -4.6568  -4.6556  -4.6439  -4.6414  -4.6197  -4.6100  -4.6097  -4.5899
    -4.5894  -4.5620  -4.5374  -4.5362  -4.5156  -4.5078  -4.4942  -4.4755
    -4.4745  -4.4729  -4.4709  -4.4634  -4.4633  -4.4234  -4.4142  -4.4088
    -4.3940  -4.3938  -4.3866  -4.3784  -4.3756  -4.3702  -4.3692  -4.3665
    -4.3388  -4.3021  -4.3011  -4.2867  -4.2749  -4.2486  -4.2415  -4.2363
    -4.2360  -4.2195  -4.2130  -4.2079  -4.1717  -4.1711  -4.1665  -4.1457
    -4.1446  -4.1445  -4.1389  -4.1340  -4.1338  -4.1212  -4.1199  -4.1038
    -4.0883  -4.0879  -4.0757  -4.0753  -4.0573  -4.0438  -4.0426  -4.0269
    -4.0087  -3.9917  -3.9815  -3.9813  -3.9691  -3.9553  -3.9547  -3.9378
    -3.9333  -3.9325  -3.9228  -3.9166  -3.9100  -3.9061  -3.9028  -3.8783
    -3.8781  -3.8765  -3.8671  -3.8670  -3.8665  -3.8583  -3.8499  -3.8464
    -3.8456  -3.8260  -3.8196  -3.8102  -3.8069  -3.7822  -3.7799  -3.7622
    -3.7593  -3.7589  -3.7404  -3.7385  -3.7217  -3.7214  -3.7210  -3.7160
    -3.7109  -3.7104  -3.7076  -3.7038  -3.7031  -3.6982  -3.6975  -3.6892
    -3.6868  -3.6581  -3.6470  -3.6326  -3.6134  -3.6133  -3.6126  -3.5995
    -3.5941  -3.5837  -3.5797  -3.5786  -3.5673  -3.5670  -3.5648  -3.5496
    -3.5481  -3.5401  -3.5342  -3.4921  -3.4649  -3.4646  -3.4642  -3.4440
    -3.4435  -3.4322  -3.4299  -3.3743  -3.2235  -2.9042  -2.6171  -2.4996
    -2.1190  -2.1001  -1.9954  -1.2314  -1.0159  -0.5668  -0.4614  -0.3063
    -0.3058  -0.0713   0.2394   0.6265   0.6270   0.9875   1.5117   1.6275
     1.9874   2.0624   2.0630   2.1608   2.5675   2.7347   3.6915   3.6929
     3.8958   4.0838   4.1258   4.7733   4.9038   5.2166   5.2174   5.4257
     5.4411   5.5170   5.9784   5.9785   6.0177   6.7127   6.7139   6.7594
     7.0263   7.0264   7.1696   7.2474   7.5602   7.6844   7.6847   7.7586
     7.8027   7.8361   8.0898   8.1017   8.1174   8.4697   8.5666   8.6921
     8.7286   8.9686   8.9734   8.9735   8.9837   9.0372   9.2963   9.3653
     9.3868   9.7029   9.7032   9.7439   9.8675   9.9015   9.9085   9.9920
    10.1209  10.1213  10.1245  10.3462  10.3570  10.3977  10.5056  10.5747
    10.6043  10.6899  10.7684  10.7685  10.9238  11.1176  11.1691  11.4725

     occupation numbers 
     1.0000   1.0000   1.0000   1.0000   1.0000   1.0000   1.0000   1.0000
     1.0000   1.0000   1.0000   1.0000   1.0000   1.0000   1.0000   1.0000
     1.0000   1.0000   1.0000   1.0000   1.0000   1.0000   1.0000   1.0000
     1.0000   1.0000   1.0000   1.0000   1.0000   1.0000   1.0000   1.0000
     1.0000   1.0000   1.0000   1.0000   1.0000   1.0000   1.0000   1.0000
     1.0000   1.0000   1.0000   1.0000   1.0000   1.0000   1.0000   1.0000
     1.0000   1.0000   1.0000   1.0000   1.0000   1.0000   1.0000   1.0000
     1.0000   1.0000   1.0000   1.0000   1.0000   1.0000   1.0000   1.0000
     1.0000   1.0000   1.0000   1.0000   1.0000   1.0000   1.0000   1.0000
     1.0000   1.0000   1.0000   1.0000   1.0000   1.0000   1.0000   1.0000
     1.0000   1.0000   1.0000   1.0000   1.0000   1.0000   1.0000   1.0000
     1.0000   1.0000   1.0000   1.0000   1.0000   1.0000   1.0000   1.0000
     1.0000   1.0000   1.0000   1.0000   1.0000   1.0000   1.0000   1.0000
     1.0000   1.0000   1.0000   1.0000   1.0000   1.0000   1.0000   1.0000
     1.0000   1.0000   1.0000   1.0000   1.0000   1.0000   1.0000   1.0000
     1.0000   1.0000   1.0000   1.0000   1.0000   1.0000   1.0000   1.0000
     1.0000   1.0000   1.0000   1.0000   1.0000   1.0000   1.0000   1.0000
     1.0000   1.0000   1.0000   1.0000   1.0000   1.0000   1.0000   1.0000
     1.0000   1.0000   1.0000   1.0000   1.0000   1.0000   1.0000   1.0000
     1.0000   1.0000   1.0000   1.0000   1.0000   1.0000   1.0000   1.0000
     1.0000   1.0000   1.0000   1.0000   1.0000   1.0000   1.0000   1.0000
     1.0000   1.0000   1.0000   1.0000   1.0000   1.0000   1.0000   1.0000
     1.0000   1.0000   1.0000   1.0000   1.0000   1.0000   1.0000   1.0000
     1.0000   1.0000   1.0000   1.0000   1.0000   1.0000   1.0000   1.0000
     1.0000   1.0000   1.0000   1.0000   1.0000   1.0000   1.0000   1.0000
     1.0000   1.0000   1.0000   1.0000   1.0000   1.0000   1.0000   1.0000
     1.0000   1.0000   1.0000   1.0000   1.0000   1.0000   1.0000   1.0000
     1.0000   1.0000   1.0000   1.0000   1.0000   1.0000   1.0000   1.0000
     1.0000   1.0000   1.0000   1.0000   1.0000   1.0000   1.0000   1.0000
     1.0000   1.0000   1.0000   1.0000   1.0000   1.0000   1.0000   1.0000
     1.0000   1.0000   1.0000   1.0000   1.0000   1.0000   1.0000   1.0000
     1.0000   1.0000   1.0000   1.0000   1.0000   1.0000   1.0000   1.0000
     1.0000   1.0000   1.0000   1.0000   1.0000   1.0000   1.0000   1.0000
     1.0000   1.0000   1.0000   1.0000   1.0000   1.0000   1.0000   1.0000
     1.0000   1.0000   1.0000   1.0000   1.0000   1.0000   1.0000   1.0000
     1.0000   1.0000   1.0000   1.0000   1.0000   1.0000   1.0000   1.0000
     1.0000   1.0000   1.0000   1.0000   1.0000   1.0000   1.0000   1.0000
     1.0000   1.0000   1.0000   1.0000   1.0000   1.0000   1.0000   1.0000
     1.0000   1.0000   1.0000   1.0000   1.0000   1.0000   1.0000   1.0000
     1.0000   1.0000   1.0000   1.0000   1.0000   1.0000   0.7197   0.7160
     0.2135   0.0287   0.0162   0.0000   0.0000   0.0000   0.0000   0.0000
     0.0000   0.0000   0.0000   0.0000   0.0000   0.0000   0.0000   0.0000
     0.0000   0.0000   0.0000   0.0000   0.0000   0.0000   0.0000   0.0000
     0.0000   0.0000   0.0000   0.0000   0.0000   0.0000   0.0000   0.0000
     0.0000   0.0000   0.0000   0.0000   0.0000   0.0000   0.0000   0.0000
     0.0000   0.0000   0.0000   0.0000   0.0000   0.0000   0.0000   0.0000
     0.0000   0.0000   0.0000   0.0000   0.0000   0.0000   0.0000   0.0000
     0.0000   0.0000   0.0000   0.0000   0.0000   0.0000   0.0000   0.0000

          k = 0.3333-0.0000 0.0000 ( 21053 PWs)   bands (ev):

  -123.3774-123.3761-123.3760-123.3756-123.3754-123.3753-123.3751-123.3749
  -123.3749-123.3748-123.3742-123.3739-123.3738-123.3738-123.3732-123.3728
  -123.1028-123.1024-123.1023-123.1021-123.1018-123.1016-123.1014-123.1013
  -123.1012-123.1009-123.1007-123.1007-123.1006-123.1004-123.0999-123.0998
   -77.4802 -77.4788 -77.4769 -77.4769 -77.4754 -77.4754 -77.4723 -77.4707
   -77.4681 -77.4663 -77.4663 -77.4659 -77.4658 -77.4657 -77.4652 -77.4646
   -77.4641 -77.4639 -77.4635 -77.4624 -77.4618 -77.4617 -77.4598 -77.4597
   -77.4595 -77.4591 -77.4588 -77.4588 -77.4586 -77.4586 -77.4576 -77.4572
   -77.4548 -77.4548 -77.4529 -77.4529 -77.4493 -77.4493 -77.4488 -77.4487
   -77.4486 -77.4468 -77.4464 -77.4434 -77.4434 -77.4419 -77.4417 -77.4396
   -77.2035 -77.2024 -77.2017 -77.2017 -77.2017 -77.2000 -77.1999 -77.1999
   -77.1989 -77.1989 -77.1982 -77.1967 -77.1966 -77.1964 -77.1962 -77.1960
   -77.1960 -77.1956 -77.1945 -77.1938 -77.1937 -77.1926 -77.1926 -77.1918
   -77.1891 -77.1890 -77.1874 -77.1874 -77.1835 -77.1824 -77.1810 -77.1810
   -77.1794 -77.1793 -77.1759 -77.1758 -77.1734 -77.1729 -77.1729 -77.1710
   -77.1709 -77.1698 -77.1682 -77.1682 -77.1676 -77.1668 -77.1648 -77.1639
    -6.3420  -5.5051  -5.0005  -5.0005  -4.9800  -4.9617  -4.9617  -4.9405
    -4.9310  -4.9309  -4.9309  -4.9020  -4.8583  -4.8210  -4.8210  -4.8047
    -4.6829  -4.6815  -4.6815  -4.6695  -4.6695  -4.6473  -4.6473  -4.6466
    -4.6466  -4.6446  -4.6380  -4.6229  -4.6223  -4.6223  -4.6172  -4.5733
    -4.5733  -4.5671  -4.5663  -4.5663  -4.5583  -4.5519  -4.5513  -4.5110
    -4.4841  -4.4706  -4.4706  -4.4700  -4.4492  -4.4492  -4.4477  -4.4421
    -4.4276  -4.4266  -4.4144  -4.4070  -4.4035  -4.3915  -4.3915  -4.3895
    -4.3307  -4.2663  -4.2663  -4.2655  -4.2414  -4.2327  -4.2327  -4.2322
    -4.2285  -4.2285  -4.2254  -4.2254  -4.2236  -4.1995  -4.1962  -4.1955
    -4.1795  -4.1769  -4.1769  -4.1749  -4.1703  -4.1547  -4.1222  -4.1179
    -4.1114  -4.1001  -4.1001  -4.0808  -4.0804  -4.0791  -4.0791  -4.0636
    -4.0636  -4.0359  -4.0359  -4.0337  -3.9911  -3.9891  -3.9887  -3.9871
    -3.9449  -3.9294  -3.9121  -3.9108  -3.9087  -3.9087  -3.9086  -3.9085
    -3.9078  -3.8974  -3.8739  -3.8605  -3.8581  -3.8581  -3.8519  -3.8519
    -3.8382  -3.8323  -3.8208  -3.8208  -3.8076  -3.7554  -3.7443  -3.7292
    -3.7279  -3.7279  -3.7046  -3.7029  -3.7019  -3.7019  -3.6985  -3.6884
    -3.6775  -3.6749  -3.6749  -3.6649  -3.6649  -3.6629  -3.6450  -3.6450
    -3.6249  -3.6248  -3.6099  -3.6099  -3.6081  -3.5971  -3.5966  -3.5958
    -3.5958  -3.5952  -3.5902  -3.5879  -3.5879  -3.5831  -3.5812  -3.5812
    -3.5705  -3.5543  -3.5504  -3.5341  -3.5058  -3.4952  -3.4078  -3.4078
    -3.3944  -3.3944  -3.2338  -3.2317  -3.2317  -2.7723  -2.6062  -2.6052
    -2.6052  -1.8391  -1.8391  -1.1801  -1.1797  -1.1797  -0.9202  -0.9202
    -0.7262   0.5691   0.5691   0.8234   0.8236   0.8236   1.7237   1.7276
     2.1281   2.4458   2.4458   2.6933   2.8912   3.8866   3.8869   3.9071
     3.9072   3.9072   4.0053   4.6986   4.7724   4.8122   4.8126   4.9836
     5.0371   5.8091   5.8091   6.0698   6.0698   6.1428   6.4488   6.5282
     6.5283   6.5283   6.7086   6.7089   6.8856   6.9625   6.9625   7.0509
     7.8889   7.9132   7.9193   8.2254   8.2254   8.5382   8.5382   8.5894
     8.5895   8.8092   8.8093   8.8093   8.9470   9.5024   9.5418   9.6913
     9.6913   9.6913   9.7085   9.7398   9.7398   9.7398  10.3994  10.3994
    10.4120  10.5128  10.7919  10.7919  10.9371  10.9374  11.2770  11.2771
    11.2771  11.3601  11.3601  11.3601  11.4677  11.4679  11.4679  11.5434

     occupation numbers 
     1.0000   1.0000   1.0000   1.0000   1.0000   1.0000   1.0000   1.0000
     1.0000   1.0000   1.0000   1.0000   1.0000   1.0000   1.0000   1.0000
     1.0000   1.0000   1.0000   1.0000   1.0000   1.0000   1.0000   1.0000
     1.0000   1.0000   1.0000   1.0000   1.0000   1.0000   1.0000   1.0000
     1.0000   1.0000   1.0000   1.0000   1.0000   1.0000   1.0000   1.0000
     1.0000   1.0000   1.0000   1.0000   1.0000   1.0000   1.0000   1.0000
     1.0000   1.0000   1.0000   1.0000   1.0000   1.0000   1.0000   1.0000
     1.0000   1.0000   1.0000   1.0000   1.0000   1.0000   1.0000   1.0000
     1.0000   1.0000   1.0000   1.0000   1.0000   1.0000   1.0000   1.0000
     1.0000   1.0000   1.0000   1.0000   1.0000   1.0000   1.0000   1.0000
     1.0000   1.0000   1.0000   1.0000   1.0000   1.0000   1.0000   1.0000
     1.0000   1.0000   1.0000   1.0000   1.0000   1.0000   1.0000   1.0000
     1.0000   1.0000   1.0000   1.0000   1.0000   1.0000   1.0000   1.0000
     1.0000   1.0000   1.0000   1.0000   1.0000   1.0000   1.0000   1.0000
     1.0000   1.0000   1.0000   1.0000   1.0000   1.0000   1.0000   1.0000
     1.0000   1.0000   1.0000   1.0000   1.0000   1.0000   1.0000   1.0000
     1.0000   1.0000   1.0000   1.0000   1.0000   1.0000   1.0000   1.0000
     1.0000   1.0000   1.0000   1.0000   1.0000   1.0000   1.0000   1.0000
     1.0000   1.0000   1.0000   1.0000   1.0000   1.0000   1.0000   1.0000
     1.0000   1.0000   1.0000   1.0000   1.0000   1.0000   1.0000   1.0000
     1.0000   1.0000   1.0000   1.0000   1.0000   1.0000   1.0000   1.0000
     1.0000   1.0000   1.0000   1.0000   1.0000   1.0000   1.0000   1.0000
     1.0000   1.0000   1.0000   1.0000   1.0000   1.0000   1.0000   1.0000
     1.0000   1.0000   1.0000   1.0000   1.0000   1.0000   1.0000   1.0000
     1.0000   1.0000   1.0000   1.0000   1.0000   1.0000   1.0000   1.0000
     1.0000   1.0000   1.0000   1.0000   1.0000   1.0000   1.0000   1.0000
     1.0000   1.0000   1.0000   1.0000   1.0000   1.0000   1.0000   1.0000
     1.0000   1.0000   1.0000   1.0000   1.0000   1.0000   1.0000   1.0000
     1.0000   1.0000   1.0000   1.0000   1.0000   1.0000   1.0000   1.0000
     1.0000   1.0000   1.0000   1.0000   1.0000   1.0000   1.0000   1.0000
     1.0000   1.0000   1.0000   1.0000   1.0000   1.0000   1.0000   1.0000
     1.0000   1.0000   1.0000   1.0000   1.0000   1.0000   1.0000   1.0000
     1.0000   1.0000   1.0000   1.0000   1.0000   1.0000   1.0000   1.0000
     1.0000   1.0000   1.0000   1.0000   1.0000   1.0000   1.0000   1.0000
     1.0000   1.0000   1.0000   1.0000   1.0000   1.0000   1.0000   1.0000
     1.0000   1.0000   1.0000   1.0000   1.0000   1.0000   1.0000   1.0000
     1.0000   1.0000   1.0000   1.0000   1.0000   1.0000   1.0000   1.0000
     1.0000   1.0000   1.0000   1.0000   1.0000   1.0000   1.0000   1.0000
     1.0000   1.0000   1.0000   1.0000   1.0000   1.0000   1.0000   1.0000
     1.0000   1.0000   1.0000   1.0000   1.0002   0.2302   0.2298   0.1941
     0.1939   0.1939   0.0740   0.0000   0.0000   0.0000   0.0000   0.0000
     0.0000   0.0000   0.0000   0.0000   0.0000   0.0000   0.0000   0.0000
     0.0000   0.0000   0.0000   0.0000   0.0000   0.0000   0.0000   0.0000
     0.0000   0.0000   0.0000   0.0000   0.0000   0.0000   0.0000   0.0000
     0.0000   0.0000   0.0000   0.0000   0.0000   0.0000   0.0000   0.0000
     0.0000   0.0000   0.0000   0.0000   0.0000   0.0000   0.0000   0.0000
     0.0000   0.0000   0.0000   0.0000   0.0000   0.0000   0.0000   0.0000
     0.0000   0.0000   0.0000   0.0000   0.0000   0.0000   0.0000   0.0000

     the Fermi energy is     3.8095 ev

!    total energy              =  -14767.76198044 Ry
     estimated scf accuracy    <       0.00000059 Ry
     smearing contrib. (-TS)   =      -0.01706767 Ry
     internal energy E=F+TS    =  -14767.74491276 Ry

     The total energy is F=E-TS. E is the sum of the following terms:
     one-electron contribution =  -93382.10768769 Ry
     hartree contribution      =   46687.93246888 Ry
     xc contribution           =   -1348.85198848 Ry
     ewald contribution        =   33275.28229453 Ry

     convergence has been achieved in  11 iterations

     Forces acting on atoms (cartesian axes, Ry/au):

     atom    1 type  1   force =    -0.00000032   -0.00007050   -0.00797999
     atom    2 type  1   force =    -0.00000111   -0.00042468   -0.00179137
     atom    3 type  1   force =     0.00000070    0.00070023   -0.00774160
     atom    4 type  1   force =    -0.00000059    0.00148181   -0.00183987
     atom    5 type  1   force =     0.00000009    0.00033611   -0.00722539
     atom    6 type  1   force =    -0.00000027    0.00060579   -0.00196140
     atom    7 type  1   force =     0.00000004   -0.00043260   -0.00746531
     atom    8 type  1   force =     0.00000045   -0.00129176   -0.00191684
     atom    9 type  1   force =     0.00000018   -0.00007113   -0.00797977
     atom   10 type  1   force =     0.00000094   -0.00042419   -0.00179055
     atom   11 type  1   force =    -0.00000063    0.00069974   -0.00774110
     atom   12 type  1   force =     0.00000092    0.00148230   -0.00184037
     atom   13 type  1   force =    -0.00000011    0.00033532   -0.00722528
     atom   14 type  1   force =    -0.00000009    0.00060527   -0.00196163
     atom   15 type  1   force =     0.00000032   -0.00043287   -0.00746495
     atom   16 type  1   force =    -0.00000014   -0.00129092   -0.00191710
     atom   17 type  1   force =    -0.00000042   -0.00103641    0.00190381
     atom   18 type  1   force =    -0.00000046   -0.00086751    0.00766215
     atom   19 type  1   force =    -0.00000015    0.00073058    0.00186888
     atom   20 type  1   force =     0.00000027    0.00050145    0.00770702
     atom   21 type  1   force =    -0.00000010    0.00085377    0.00232064
     atom   22 type  1   force =     0.00000080    0.00060314    0.00707471
     atom   23 type  1   force =     0.00000027   -0.00091973    0.00235475
     atom   24 type  1   force =    -0.00000003   -0.00077014    0.00702977
     atom   25 type  1   force =     0.00000028   -0.00103675    0.00190405
     atom   26 type  1   force =     0.00000044   -0.00086712    0.00766174
     atom   27 type  1   force =    -0.00000022    0.00073079    0.00186897
     atom   28 type  1   force =     0.00000005    0.00050215    0.00770706
     atom   29 type  1   force =     0.00000012    0.00085361    0.00231964
     atom   30 type  1   force =    -0.00000065    0.00060332    0.00707463
     atom   31 type  1   force =    -0.00000040   -0.00091927    0.00235475
     atom   32 type  1   force =    -0.00000019   -0.00076979    0.00702991
     The non-local contrib.  to forces
     atom    1 type  1   force =    -0.00000015    0.00995961    0.09571218
     atom    2 type  1   force =    -0.00000041    0.00660315   -0.07114142
     atom    3 type  1   force =     0.00000036    0.01055387    0.09590043
     atom    4 type  1   force =    -0.00000031    0.00805313   -0.07118144
     atom    5 type  1   force =     0.00000020    0.01027576    0.09630353
     atom    6 type  1   force =     0.00000000    0.00739872   -0.07128809
     atom    7 type  1   force =    -0.00000004    0.00968416    0.09611639
     atom    8 type  1   force =    -0.00000002    0.00595175   -0.07124952
     atom    9 type  1   force =     0.00000018    0.00995938    0.09571222
     atom   10 type  1   force =     0.00000049    0.00660344   -0.07114140
     atom   11 type  1   force =    -0.00000040    0.01055394    0.09590042
     atom   12 type  1   force =     0.00000024    0.00805335   -0.07118122
     atom   13 type  1   force =    -0.00000019    0.01027567    0.09630341
     atom   14 type  1   force =     0.00000004    0.00739891   -0.07128792
     atom   15 type  1   force =     0.00000004    0.00968424    0.09611630
     atom   16 type  1   force =    -0.00000012    0.00595216   -0.07124948
     atom   17 type  1   force =    -0.00000016   -0.00772543    0.07112613
     atom   18 type  1   force =     0.00000000   -0.01066815   -0.09609045
     atom   19 type  1   force =    -0.00000004   -0.00635922    0.07110037
     atom   20 type  1   force =    -0.00000006   -0.00964087   -0.09605691
     atom   21 type  1   force =    -0.00000002   -0.00627861    0.07144585
     atom   22 type  1   force =     0.00000012   -0.00956999   -0.09654109
     atom   23 type  1   force =     0.00000019   -0.00764010    0.07147143
     atom   24 type  1   force =     0.00000012   -0.01059322   -0.09657461
     atom   25 type  1   force =     0.00000015   -0.00772555    0.07112638
     atom   26 type  1   force =    -0.00000007   -0.01066796   -0.09609076
     atom   27 type  1   force =     0.00000016   -0.00635909    0.07110075
     atom   28 type  1   force =    -0.00000002   -0.00964059   -0.09605698
     atom   29 type  1   force =    -0.00000001   -0.00627830    0.07144606
     atom   30 type  1   force =    -0.00000018   -0.00957004   -0.09654110
     atom   31 type  1   force =    -0.00000022   -0.00763996    0.07147126
     atom   32 type  1   force =    -0.00000003   -0.01059332   -0.09657449
     The ionic contribution  to forces
     atom    1 type  1   force =     0.00000005    0.00000001 -419.78175949
     atom    2 type  1   force =     0.00000008   -0.00000001  140.20011314
     atom    3 type  1   force =     0.00000005   -0.00000004 -419.78175947
     atom    4 type  1   force =     0.00000008   -0.00000004  140.20011314
     atom    5 type  1   force =     0.00000005    0.00000003 -419.78175946
     atom    6 type  1   force =     0.00000008    0.00000002  140.20011314
     atom    7 type  1   force =     0.00000005   -0.00000003 -419.78175947
     atom    8 type  1   force =     0.00000008   -0.00000006  140.20011314
     atom    9 type  1   force =     0.00000001   -0.00000001 -419.78175948
     atom   10 type  1   force =     0.00000003   -0.00000003  140.20011314
     atom   11 type  1   force =     0.00000001   -0.00000006 -419.78175946
     atom   12 type  1   force =     0.00000004   -0.00000006  140.20011314
     atom   13 type  1   force =     0.00000001    0.00000001 -419.78175946
     atom   14 type  1   force =     0.00000004   -0.00000001  140.20011314
     atom   15 type  1   force =     0.00000001   -0.00000005 -419.78175947
     atom   16 type  1   force =     0.00000004   -0.00000008  140.20011314
     atom   17 type  1   force =    -0.00000004    0.00000002 -140.20011314
     atom   18 type  1   force =    -0.00000001    0.00000000  419.78175947
     atom   19 type  1   force =    -0.00000004    0.00000009 -140.20011314
     atom   20 type  1   force =    -0.00000001    0.00000007  419.78175947
     atom   21 type  1   force =    -0.00000004    0.00000006 -140.20011314
     atom   22 type  1   force =    -0.00000001    0.00000004  419.78175947
     atom   23 type  1   force =    -0.00000003    0.00000001 -140.20011314
     atom   24 type  1   force =    -0.00000001   -0.00000001  419.78175946
     atom   25 type  1   force =    -0.00000008   -0.00000000 -140.20011314
     atom   26 type  1   force =    -0.00000005   -0.00000002  419.78175947
     atom   27 type  1   force =    -0.00000008    0.00000006 -140.20011314
     atom   28 type  1   force =    -0.00000005    0.00000005  419.78175947
     atom   29 type  1   force =    -0.00000008    0.00000004 -140.20011314
     atom   30 type  1   force =    -0.00000005    0.00000002  419.78175948
     atom   31 type  1   force =    -0.00000008   -0.00000001 -140.20011314
     atom   32 type  1   force =    -0.00000005   -0.00000003  419.78175947
     The local contribution  to forces
     atom    1 type  1   force =     0.00000029   -0.00961689  419.67878599
     atom    2 type  1   force =     0.00000129   -0.00600394 -140.13124561
     atom    3 type  1   force =    -0.00000111   -0.01099659  419.67835532
     atom    4 type  1   force =     0.00000090   -0.00937967 -140.13116879
     atom    5 type  1   force =    -0.00000026   -0.01034442  419.67745000
     atom    6 type  1   force =     0.00000028   -0.00781753 -140.13093701
     atom    7 type  1   force =    -0.00000025   -0.00897797  419.67786813
     atom    8 type  1   force =    -0.00000041   -0.00443459 -140.13102393
     atom    9 type  1   force =    -0.00000031   -0.00961576  419.67878768
     atom   10 type  1   force =    -0.00000149   -0.00600476 -140.13124676
     atom   11 type  1   force =     0.00000095   -0.01099688  419.67835562
     atom   12 type  1   force =    -0.00000094   -0.00938004 -140.13116837
     atom   13 type  1   force =     0.00000023   -0.01034352  419.67745017
     atom   14 type  1   force =    -0.00000026   -0.00781749 -140.13093735
     atom   15 type  1   force =    -0.00000012   -0.00897818  419.67786779
     atom   16 type  1   force =     0.00000004   -0.00443546 -140.13102352
     atom   17 type  1   force =     0.00000052    0.00863346  140.13137105
     atom   18 type  1   force =     0.00000031    0.01129785 -419.67799866
     atom   19 type  1   force =     0.00000011    0.00540421  140.13142775
     atom   20 type  1   force =    -0.00000002    0.00885197 -419.67807464
     atom   21 type  1   force =     0.00000024    0.00521152  140.13063354
     atom   22 type  1   force =    -0.00000085    0.00870168 -419.67696940
     atom   23 type  1   force =    -0.00000018    0.00837842  140.13057682
     atom   24 type  1   force =    -0.00000001    0.01108627 -419.67689510
     atom   25 type  1   force =    -0.00000036    0.00863373  140.13137039
     atom   26 type  1   force =    -0.00000008    0.01129868 -419.67799850
     atom   27 type  1   force =     0.00000002    0.00540410  140.13142692
     atom   28 type  1   force =     0.00000003    0.00885441 -419.67807304
     atom   29 type  1   force =    -0.00000000    0.00521129  140.13063391
     atom   30 type  1   force =     0.00000095    0.00870167 -419.67696938
     atom   31 type  1   force =     0.00000041    0.00837806  140.13057689
     atom   32 type  1   force =     0.00000013    0.01108678 -419.67689476
     The core correction contribution to forces
     atom    1 type  1   force =     0.00000000    0.00000000    0.00000000
     atom    2 type  1   force =     0.00000000    0.00000000    0.00000000
     atom    3 type  1   force =     0.00000000    0.00000000    0.00000000
     atom    4 type  1   force =     0.00000000    0.00000000    0.00000000
     atom    5 type  1   force =     0.00000000    0.00000000    0.00000000
     atom    6 type  1   force =     0.00000000    0.00000000    0.00000000
     atom    7 type  1   force =     0.00000000    0.00000000    0.00000000
     atom    8 type  1   force =     0.00000000    0.00000000    0.00000000
     atom    9 type  1   force =     0.00000000    0.00000000    0.00000000
     atom   10 type  1   force =     0.00000000    0.00000000    0.00000000
     atom   11 type  1   force =     0.00000000    0.00000000    0.00000000
     atom   12 type  1   force =     0.00000000    0.00000000    0.00000000
     atom   13 type  1   force =     0.00000000    0.00000000    0.00000000
     atom   14 type  1   force =     0.00000000    0.00000000    0.00000000
     atom   15 type  1   force =     0.00000000    0.00000000    0.00000000
     atom   16 type  1   force =     0.00000000    0.00000000    0.00000000
     atom   17 type  1   force =     0.00000000    0.00000000    0.00000000
     atom   18 type  1   force =     0.00000000    0.00000000    0.00000000
     atom   19 type  1   force =     0.00000000    0.00000000    0.00000000
     atom   20 type  1   force =     0.00000000    0.00000000    0.00000000
     atom   21 type  1   force =     0.00000000    0.00000000    0.00000000
     atom   22 type  1   force =     0.00000000    0.00000000    0.00000000
     atom   23 type  1   force =     0.00000000    0.00000000    0.00000000
     atom   24 type  1   force =     0.00000000    0.00000000    0.00000000
     atom   25 type  1   force =     0.00000000    0.00000000    0.00000000
     atom   26 type  1   force =     0.00000000    0.00000000    0.00000000
     atom   27 type  1   force =     0.00000000    0.00000000    0.00000000
     atom   28 type  1   force =     0.00000000    0.00000000    0.00000000
     atom   29 type  1   force =     0.00000000    0.00000000    0.00000000
     atom   30 type  1   force =     0.00000000    0.00000000    0.00000000
     atom   31 type  1   force =     0.00000000    0.00000000    0.00000000
     atom   32 type  1   force =     0.00000000    0.00000000    0.00000000
     The Hubbard contrib.    to forces
     atom    1 type  1   force =     0.00000000    0.00000000    0.00000000
     atom    2 type  1   force =     0.00000000    0.00000000    0.00000000
     atom    3 type  1   force =     0.00000000    0.00000000    0.00000000
     atom    4 type  1   force =     0.00000000    0.00000000    0.00000000
     atom    5 type  1   force =     0.00000000    0.00000000    0.00000000
     atom    6 type  1   force =     0.00000000    0.00000000    0.00000000
     atom    7 type  1   force =     0.00000000    0.00000000    0.00000000
     atom    8 type  1   force =     0.00000000    0.00000000    0.00000000
     atom    9 type  1   force =     0.00000000    0.00000000    0.00000000
     atom   10 type  1   force =     0.00000000    0.00000000    0.00000000
     atom   11 type  1   force =     0.00000000    0.00000000    0.00000000
     atom   12 type  1   force =     0.00000000    0.00000000    0.00000000
     atom   13 type  1   force =     0.00000000    0.00000000    0.00000000
     atom   14 type  1   force =     0.00000000    0.00000000    0.00000000
     atom   15 type  1   force =     0.00000000    0.00000000    0.00000000
     atom   16 type  1   force =     0.00000000    0.00000000    0.00000000
     atom   17 type  1   force =     0.00000000    0.00000000    0.00000000
     atom   18 type  1   force =     0.00000000    0.00000000    0.00000000
     atom   19 type  1   force =     0.00000000    0.00000000    0.00000000
     atom   20 type  1   force =     0.00000000    0.00000000    0.00000000
     atom   21 type  1   force =     0.00000000    0.00000000    0.00000000
     atom   22 type  1   force =     0.00000000    0.00000000    0.00000000
     atom   23 type  1   force =     0.00000000    0.00000000    0.00000000
     atom   24 type  1   force =     0.00000000    0.00000000    0.00000000
     atom   25 type  1   force =     0.00000000    0.00000000    0.00000000
     atom   26 type  1   force =     0.00000000    0.00000000    0.00000000
     atom   27 type  1   force =     0.00000000    0.00000000    0.00000000
     atom   28 type  1   force =     0.00000000    0.00000000    0.00000000
     atom   29 type  1   force =     0.00000000    0.00000000    0.00000000
     atom   30 type  1   force =     0.00000000    0.00000000    0.00000000
     atom   31 type  1   force =     0.00000000    0.00000000    0.00000000
     atom   32 type  1   force =     0.00000000    0.00000000    0.00000000
     The SCF correction term to forces
     atom    1 type  1   force =    -0.00000000   -0.00000000   -0.00000000
     atom    2 type  1   force =    -0.00000206   -0.00102329    0.00036974
     atom    3 type  1   force =     0.00000000    0.00000000   -0.00000000
     atom    4 type  1   force =    -0.00000126    0.00280898    0.00028444
     atom    5 type  1   force =     0.00000000    0.00000000    0.00000000
     atom    6 type  1   force =    -0.00000063    0.00102518    0.00003778
     atom    7 type  1   force =     0.00000000   -0.00000000    0.00000000
     atom    8 type  1   force =     0.00000081   -0.00280827    0.00013070
     atom    9 type  1   force =     0.00000000   -0.00000000   -0.00000000
     atom   10 type  1   force =     0.00000191   -0.00102225    0.00037168
     atom   11 type  1   force =    -0.00000000    0.00000000   -0.00000000
     atom   12 type  1   force =     0.00000159    0.00280965    0.00028331
     atom   13 type  1   force =    -0.00000000    0.00000000    0.00000000
     atom   14 type  1   force =     0.00000010    0.00102446    0.00003771
     atom   15 type  1   force =     0.00000000   -0.00000000    0.00000000
     atom   16 type  1   force =    -0.00000009   -0.00280695    0.00012999
     atom   17 type  1   force =    -0.00000000   -0.00000000   -0.00000000
     atom   18 type  1   force =    -0.00000076   -0.00149662   -0.00012098
     atom   19 type  1   force =    -0.00000000    0.00000000   -0.00000000
     atom   20 type  1   force =     0.00000037    0.00129087   -0.00003367
     atom   21 type  1   force =    -0.00000000    0.00000000    0.00000000
     atom   22 type  1   force =     0.00000154    0.00147200   -0.00128705
     atom   23 type  1   force =     0.00000000   -0.00000000    0.00000000
     atom   24 type  1   force =    -0.00000012   -0.00126259   -0.00137276
     atom   25 type  1   force =     0.00000000   -0.00000000   -0.00000000
     atom   26 type  1   force =     0.00000065   -0.00149723   -0.00012126
     atom   27 type  1   force =    -0.00000000    0.00000000   -0.00000000
     atom   28 type  1   force =     0.00000010    0.00128887   -0.00003517
     atom   29 type  1   force =     0.00000000    0.00000000    0.00000000
     atom   30 type  1   force =    -0.00000137    0.00147226   -0.00128714
     atom   31 type  1   force =    -0.00000000   -0.00000000    0.00000000
     atom   32 type  1   force =    -0.00000023   -0.00126264   -0.00137309

     Total force =     0.021820     Total SCF correction =     0.007659
     SCF correction compared to forces is large: reduce conv_thr to get better values


     Computing stress (Cartesian axis) and pressure

          total   stress  (Ry/bohr**3)                   (kbar)     P=     -299.93
  -0.00212193   0.00000000   0.00000000         -312.15        0.00        0.00
   0.00000000  -0.00199486  -0.00000146            0.00     -293.45       -0.22
   0.00000000  -0.00000146  -0.00199986            0.00       -0.22     -294.19

     kinetic stress (kbar)  16708.34      0.00      0.00
                                0.00  16730.35     -0.40
                                0.00     -0.40  16808.48

     local   stress (kbar)**********     -0.00      0.00
                               -0.00**********      1.37
                                0.00      1.371609252.28

     nonloc. stress (kbar)  -2011.54     -0.00     -0.00
                               -0.00  -2004.61     -0.23
                               -0.00     -0.23  -2069.94

     hartree stress (kbar) 831139.86      0.00     -0.00
                                0.00 831154.05     -0.95
                               -0.00     -0.95-757211.74

     exc-cor stress (kbar)  -8372.87     -0.00     -0.00
                               -0.00  -8372.67     -0.01
                               -0.00     -0.01  -8383.12

     corecor stress (kbar)      0.00      0.00      0.00
                                0.00      0.00      0.00
                                0.00      0.00      0.00

     ewald   stress (kbar) 751878.80      0.00     -0.00
                                0.00 751878.80      0.00
                               -0.00      0.00-858690.16

     hubbard stress (kbar)      0.00      0.00      0.00
                                0.00      0.00      0.00
                                0.00      0.00      0.00

     DFT-D   stress (kbar)      0.00      0.00      0.00
                                0.00      0.00      0.00
                                0.00      0.00      0.00

     XDM     stress (kbar)      0.00      0.00      0.00
                                0.00      0.00      0.00
                                0.00      0.00      0.00

     dft-nl  stress (kbar)      0.00      0.00      0.00
                                0.00      0.00      0.00
                                0.00      0.00      0.00

     TS-vdW  stress (kbar)      0.00      0.00      0.00
                                0.00      0.00      0.00
                                0.00      0.00      0.00

     MDB     stress (kbar)      0.00      0.00      0.00
                                0.00      0.00      0.00
                                0.00      0.00      0.00

     3D-RISM stress (kbar)      0.00      0.00      0.00
                                0.00      0.00      0.00
                                0.00      0.00      0.00


     BFGS Geometry Optimization
     Energy error            =      0.0E+00 Ry
     Gradient error          =      7.7E-03 Ry/Bohr

     number of scf cycles    =   1
     number of bfgs steps    =   0

     energy             new  =  -14767.7619804361 Ry

     new trust radius        =       0.0077233981 bohr
     new conv_thr            =       0.0000007350 Ry


ATOMIC_POSITIONS (angstrom)
Zn              -0.0000000130        1.5094013740        1.2182902100    0   0   0
Zn              -0.0000006012        1.5091766442        6.0905030992
Zn              -1.3071799410        3.7735034240        1.2182902100    0   0   0
Zn              -1.3071802523        3.7742875634        6.0904774299
Zn              -2.6143598690        6.0376054730        1.2182902100    0   0   0
Zn              -2.6143600096        6.0379260420        6.0904131232
Zn              -3.9215397970        8.3017075230        1.2182902100    0   0   0
Zn              -3.9215395564        8.3010239544        6.0904367030
Zn               2.6143598430        1.5094013740        1.2182902100    0   0   0
Zn               2.6143603411        1.5091769022        6.0905035290
Zn               1.3071799150        3.7735034240        1.2182902100    0   0   0
Zn               1.3071803993        3.7742878259        6.0904771683
Zn              -0.0000000130        6.0376054730        1.2182902100    0   0   0
Zn              -0.0000000593        6.0379257697        6.0904129968
Zn              -1.3071799410        8.3017075230        1.2182902100    0   0   0
Zn              -1.3071800164        8.3010243978        6.0904365617
[...]
     atom    2 type  1   force =    -0.00028666   -0.02715826 -137.08848037
     atom    3 type  1   force =    -0.00000041   -0.00757205  410.66307479
     atom    4 type  1   force =    -0.00021081    0.13290570 -137.07072332
     atom    5 type  1   force =    -0.00000068   -0.00889253  410.66613164
     atom    6 type  1   force =    -0.00006875    0.04442749 -137.00590573
     atom    7 type  1   force =    -0.00000054   -0.01208242  410.66476899
     atom    8 type  1   force =     0.00004608   -0.10717558 -137.03815805
     atom    9 type  1   force =     0.00000111   -0.01080128  410.66181708
     atom   10 type  1   force =     0.00029726   -0.02707503 -137.08874650
     atom   11 type  1   force =     0.00000035   -0.00757105  410.66307523
     atom   12 type  1   force =     0.00020558    0.13312529 -137.07052004
     atom   13 type  1   force =     0.00000056   -0.00889203  410.66613243
     atom   14 type  1   force =     0.00007677    0.04454197 -137.00562040
     atom   15 type  1   force =     0.00000048   -0.01208140  410.66477019
     atom   16 type  1   force =    -0.00005706   -0.10697265 -137.03812564
     atom   17 type  1   force =    -0.00001163   -0.00606154  131.39180859
     atom   18 type  1   force =    -0.00005733   -0.05570699 -405.04884609
     atom   19 type  1   force =    -0.00000605    0.00952033  131.38723188
     atom   20 type  1   force =    -0.00001250    0.04934692 -405.05785198
     atom   21 type  1   force =     0.00000024    0.01074513  131.40887884
     atom   22 type  1   force =     0.00010422    0.04884894 -404.96705532
     atom   23 type  1   force =     0.00000133   -0.00701052  131.41139751
     atom   24 type  1   force =    -0.00000457   -0.05292778 -404.95927082
     atom   25 type  1   force =     0.00000982   -0.00604758  131.39188087
     atom   26 type  1   force =     0.00005404   -0.05569757 -405.04887187
     atom   27 type  1   force =     0.00000608    0.00954680  131.38726810
     atom   28 type  1   force =     0.00001489    0.04930922 -405.05828629
     atom   29 type  1   force =    -0.00000141    0.01073693  131.40891409
     atom   30 type  1   force =    -0.00010521    0.04884625 -404.96700538
     atom   31 type  1   force =    -0.00000063   -0.00702715  131.41140832
     atom   32 type  1   force =     0.00000669   -0.05297700 -404.95918174
     The core correction contribution to forces
     atom    1 type  1   force =     0.00000000    0.00000000    0.00000000
     atom    2 type  1   force =     0.00000000    0.00000000    0.00000000
     atom    3 type  1   force =     0.00000000    0.00000000    0.00000000
     atom    4 type  1   force =     0.00000000    0.00000000    0.00000000
     atom    5 type  1   force =     0.00000000    0.00000000    0.00000000
     atom    6 type  1   force =     0.00000000    0.00000000    0.00000000
     atom    7 type  1   force =     0.00000000    0.00000000    0.00000000
     atom    8 type  1   force =     0.00000000    0.00000000    0.00000000
     atom    9 type  1   force =     0.00000000    0.00000000    0.00000000
     atom   10 type  1   force =     0.00000000    0.00000000    0.00000000
     atom   11 type  1   force =     0.00000000    0.00000000    0.00000000
     atom   12 type  1   force =     0.00000000    0.00000000    0.00000000
     atom   13 type  1   force =     0.00000000    0.00000000    0.00000000
     atom   14 type  1   force =     0.00000000    0.00000000    0.00000000
     atom   15 type  1   force =     0.00000000    0.00000000    0.00000000
     atom   16 type  1   force =     0.00000000    0.00000000    0.00000000
     atom   17 type  1   force =     0.00000000    0.00000000    0.00000000
     atom   18 type  1   force =     0.00000000    0.00000000    0.00000000
     atom   19 type  1   force =     0.00000000    0.00000000    0.00000000
     atom   20 type  1   force =     0.00000000    0.00000000    0.00000000
     atom   21 type  1   force =     0.00000000    0.00000000    0.00000000
     atom   22 type  1   force =     0.00000000    0.00000000    0.00000000
     atom   23 type  1   force =     0.00000000    0.00000000    0.00000000
     atom   24 type  1   force =     0.00000000    0.00000000    0.00000000
     atom   25 type  1   force =     0.00000000    0.00000000    0.00000000
     atom   26 type  1   force =     0.00000000    0.00000000    0.00000000
     atom   27 type  1   force =     0.00000000    0.00000000    0.00000000
     atom   28 type  1   force =     0.00000000    0.00000000    0.00000000
     atom   29 type  1   force =     0.00000000    0.00000000    0.00000000
     atom   30 type  1   force =     0.00000000    0.00000000    0.00000000
     atom   31 type  1   force =     0.00000000    0.00000000    0.00000000
     atom   32 type  1   force =     0.00000000    0.00000000    0.00000000
     The Hubbard contrib.    to forces
     atom    1 type  1   force =     0.00000000    0.00000000    0.00000000
     atom    2 type  1   force =     0.00000000    0.00000000    0.00000000
     atom    3 type  1   force =     0.00000000    0.00000000    0.00000000
     atom    4 type  1   force =     0.00000000    0.00000000    0.00000000
     atom    5 type  1   force =     0.00000000    0.00000000    0.00000000
     atom    6 type  1   force =     0.00000000    0.00000000    0.00000000
     atom    7 type  1   force =     0.00000000    0.00000000    0.00000000
     atom    8 type  1   force =     0.00000000    0.00000000    0.00000000
     atom    9 type  1   force =     0.00000000    0.00000000    0.00000000
     atom   10 type  1   force =     0.00000000    0.00000000    0.00000000
     atom   11 type  1   force =     0.00000000    0.00000000    0.00000000
     atom   12 type  1   force =     0.00000000    0.00000000    0.00000000
     atom   13 type  1   force =     0.00000000    0.00000000    0.00000000
     atom   14 type  1   force =     0.00000000    0.00000000    0.00000000
     atom   15 type  1   force =     0.00000000    0.00000000    0.00000000
     atom   16 type  1   force =     0.00000000    0.00000000    0.00000000
     atom   17 type  1   force =     0.00000000    0.00000000    0.00000000
     atom   18 type  1   force =     0.00000000    0.00000000    0.00000000
     atom   19 type  1   force =     0.00000000    0.00000000    0.00000000
     atom   20 type  1   force =     0.00000000    0.00000000    0.00000000
     atom   21 type  1   force =     0.00000000    0.00000000    0.00000000
     atom   22 type  1   force =     0.00000000    0.00000000    0.00000000
     atom   23 type  1   force =     0.00000000    0.00000000    0.00000000
     atom   24 type  1   force =     0.00000000    0.00000000    0.00000000
     atom   25 type  1   force =     0.00000000    0.00000000    0.00000000
     atom   26 type  1   force =     0.00000000    0.00000000    0.00000000
     atom   27 type  1   force =     0.00000000    0.00000000    0.00000000
     atom   28 type  1   force =     0.00000000    0.00000000    0.00000000
     atom   29 type  1   force =     0.00000000    0.00000000    0.00000000
     atom   30 type  1   force =     0.00000000    0.00000000    0.00000000
     atom   31 type  1   force =     0.00000000    0.00000000    0.00000000
     atom   32 type  1   force =     0.00000000    0.00000000    0.00000000
     The SCF correction term to forces
     atom    1 type  1   force =    -0.00000000    0.00000000   -0.00000000
     atom    2 type  1   force =     0.00000028    0.00002668    0.00005036
     atom    3 type  1   force =    -0.00000000    0.00000000   -0.00000000
     atom    4 type  1   force =     0.00000021    0.00005633    0.00000693
     atom    5 type  1   force =     0.00000000   -0.00000000    0.00000000
     atom    6 type  1   force =     0.00000010   -0.00001966   -0.00006787
     atom    7 type  1   force =     0.00000000   -0.00000000    0.00000000
     atom    8 type  1   force =    -0.00000005   -0.00003241   -0.00002333
     atom    9 type  1   force =     0.00000000    0.00000000   -0.00000000
     atom   10 type  1   force =    -0.00000029    0.00002657    0.00005039
     atom   11 type  1   force =     0.00000000    0.00000000   -0.00000000
     atom   12 type  1   force =    -0.00000021    0.00005612    0.00000692
     atom   13 type  1   force =    -0.00000000   -0.00000000    0.00000000
     atom   14 type  1   force =    -0.00000009   -0.00001974   -0.00006794
     atom   15 type  1   force =    -0.00000000   -0.00000000    0.00000000
     atom   16 type  1   force =     0.00000004   -0.00003260   -0.00002335
     atom   17 type  1   force =    -0.00000000   -0.00000000   -0.00000000
     atom   18 type  1   force =     0.00000006   -0.00000769   -0.00000168
     atom   19 type  1   force =     0.00000000    0.00000000   -0.00000000
     atom   20 type  1   force =     0.00000002    0.00005224   -0.00000890
     atom   21 type  1   force =     0.00000000    0.00000000    0.00000000
     atom   22 type  1   force =    -0.00000010    0.00000399   -0.00005137
     atom   23 type  1   force =     0.00000000   -0.00000000    0.00000000
     atom   24 type  1   force =     0.00000001   -0.00004813   -0.00004061
     atom   25 type  1   force =    -0.00000000   -0.00000000   -0.00000000
     atom   26 type  1   force =    -0.00000007   -0.00000771   -0.00000157
     atom   27 type  1   force =     0.00000000    0.00000000   -0.00000000
     atom   28 type  1   force =    -0.00000002    0.00005226   -0.00000879
     atom   29 type  1   force =    -0.00000000    0.00000000    0.00000000
     atom   30 type  1   force =     0.00000012    0.00000397   -0.00005134
     atom   31 type  1   force =    -0.00000000   -0.00000000    0.00000000
     atom   32 type  1   force =    -0.00000001   -0.00004810   -0.00004065

     Total force =     0.000677     Total SCF correction =     0.000212
     SCF correction compared to forces is large: reduce conv_thr to get better values


     Computing stress (Cartesian axis) and pressure

          total   stress  (Ry/bohr**3)                   (kbar)     P=     -306.23
  -0.00215372   0.00000000  -0.00000000         -316.82        0.00       -0.00
   0.00000000  -0.00204018  -0.00000104            0.00     -300.12       -0.15
  -0.00000000  -0.00000104  -0.00205132           -0.00       -0.15     -301.76

     kinetic stress (kbar)  16703.18      0.00     -0.00
                                0.00  16722.27     -0.40
                               -0.00     -0.40  16806.64

     local   stress (kbar)**********      0.00      0.00
                                0.00**********     -8.64
                                0.00     -8.641524056.65

     nonloc. stress (kbar)  -2013.80     -0.00     -0.00
                               -0.00  -2007.31     -0.20
                               -0.00     -0.20  -2083.70

     hartree stress (kbar) 788776.55     -0.00     -0.00
                               -0.00 788805.17      3.20
                               -0.00      3.20-714719.12

     exc-cor stress (kbar)  -8370.78     -0.00     -0.00
                               -0.00  -8370.61     -0.01
                               -0.00     -0.01  -8382.28

     corecor stress (kbar)      0.00      0.00      0.00
                                0.00      0.00      0.00
                                0.00      0.00      0.00

     ewald   stress (kbar) 709358.22     -0.00     -0.00
                               -0.00 709380.83      5.90
                               -0.00      5.90-815979.94

     hubbard stress (kbar)      0.00      0.00      0.00
                                0.00      0.00      0.00
                                0.00      0.00      0.00

     DFT-D   stress (kbar)      0.00      0.00      0.00
                                0.00      0.00      0.00
                                0.00      0.00      0.00

     XDM     stress (kbar)      0.00      0.00      0.00
                                0.00      0.00      0.00
                                0.00      0.00      0.00

     dft-nl  stress (kbar)      0.00      0.00      0.00
                                0.00      0.00      0.00
                                0.00      0.00      0.00

     TS-vdW  stress (kbar)      0.00      0.00      0.00
                                0.00      0.00      0.00
                                0.00      0.00      0.00

     MDB     stress (kbar)      0.00      0.00      0.00
                                0.00      0.00      0.00
                                0.00      0.00      0.00

     3D-RISM stress (kbar)      0.00      0.00      0.00
                                0.00      0.00      0.00
                                0.00      0.00      0.00

     Energy error            =      6.1E-06 Ry
     Gradient error          =      2.6E-04 Ry/Bohr

     bfgs converged in  20 scf cycles and  19 bfgs steps
     (criteria: energy <  1.0E-05 Ry, force <  5.0E-04 Ry/Bohr)

     End of BFGS Geometry Optimization

     Final energy             =  -14767.7776302668 Ry

     File ./tmp/Zn002_2x2x4_relax_ecutrho250_ecutwfc25.bfgs deleted, as requested
Begin final coordinates

ATOMIC_POSITIONS (angstrom)
Zn              -0.0000000130        1.5094013740        1.2182902100    0   0   0
Zn              -0.0000015064        1.5142308346        6.2418183324
Zn              -1.3071799410        3.7735034240        1.2182902100    0   0   0
Zn              -1.3071815187        3.7789693452        6.2422267090
Zn              -2.6143598690        6.0376054730        1.2182902100    0   0   0
Zn              -2.6143596010        6.0427134194        6.2426429977
Zn              -3.9215397970        8.3017075230        1.2182902100    0   0   0
Zn              -3.9215389747        8.3062360024        6.2424062806
Zn               2.6143598430        1.5094013740        1.2182902100    0   0   0
Zn               2.6143626786        1.5142316129        6.2418208564
Zn               1.3071799150        3.7735034240        1.2182902100    0   0   0
Zn               1.3071821450        3.7789709445        6.2422244244
Zn              -0.0000000130        6.0376054730        1.2182902100    0   0   0
Zn               0.0000008530        6.0427146528        6.2426401483
Zn              -1.3071799410        8.3017075230        1.2182902100    0   0   0
Zn              -1.3071806390        8.3062372265        6.2424059394
Zn               1.3071799410        0.7547006760        3.6548706290    0   0   0
Zn               1.3071793759        0.7442191393        8.8286621377
Zn               0.0000000130        3.0188027250        3.6548706290    0   0   0
Zn               0.0000005839        3.0089234186        8.8288802799
Zn              -1.3071799150        5.2829047750        3.6548706290    0   0   0
Zn              -1.3071784451        5.2730370550        8.8260097737
Zn              -2.6143598430        7.5470068250        3.6548706290    0   0   0
Zn              -2.6143595532        7.5365411093        8.8258033281
Zn               3.9215397970        0.7547006760        3.6548706290    0   0   0
Zn               3.9215410180        0.7442188186        8.8286616024
Zn               2.6143598690        3.0188027250        3.6548706290    0   0   0
Zn               2.6143602096        3.0089227841        8.8288845038
Zn               1.3071799410        5.2829047750        3.6548706290    0   0   0
Zn               1.3071792906        5.2730365717        8.8260091880
Zn               0.0000000130        7.5470068250        3.6548706290    0   0   0
Zn               0.0000005470        7.5365401002        8.8258027248
End final coordinates



     Writing all to output data dir ./tmp/Zn002_2x2x4_relax_ecutrho250_ecutwfc25.save/ :
     XML data file, charge density, pseudopotentials, collected wavefunctions

     init_run     :      8.20s CPU      8.28s WALL (       1 calls)
     electrons    :   5435.40s CPU   5488.76s WALL (      20 calls)
     update_pot   :      0.23s CPU      0.25s WALL (      19 calls)
     forces       :    152.08s CPU    153.49s WALL (      20 calls)
     stress       :    424.78s CPU    426.07s WALL (      20 calls)

     Called by init_run:
     wfcinit      :      8.05s CPU      8.12s WALL (       1 calls)
     wfcinit:atom :      0.02s CPU      0.02s WALL (       5 calls)
     wfcinit:wfcr :      7.91s CPU      7.97s WALL (       5 calls)
     potinit      :      0.01s CPU      0.01s WALL (       1 calls)
     hinit0       :      0.01s CPU      0.02s WALL (       1 calls)

     Called by electrons:
     c_bands      :   5002.04s CPU   5050.95s WALL (     186 calls)
     sum_band     :    415.28s CPU    419.22s WALL (     186 calls)
     v_of_rho     :      1.70s CPU      1.83s WALL (     188 calls)
     v_h          :      0.07s CPU      0.09s WALL (     188 calls)
     v_xc         :      1.63s CPU      1.74s WALL (     188 calls)
     newd         :     18.11s CPU     18.21s WALL (     188 calls)
     mix_rho      :      0.17s CPU      0.18s WALL (     186 calls)

     Called by c_bands:
     init_us_2    :     10.14s CPU     10.19s WALL (    2065 calls)
     cegterg      :   4983.07s CPU   5031.61s WALL (     930 calls)

     Called by sum_band:
     sum_band:wei :      0.34s CPU      0.35s WALL (     186 calls)
     sum_band:loo :    405.19s CPU    409.00s WALL (     186 calls)
     sum_band:buf :      1.73s CPU      1.74s WALL (     930 calls)
     sum_band:ini :      4.64s CPU      4.65s WALL (     930 calls)
     sum_band:cal :    326.36s CPU    329.42s WALL (     930 calls)
     sum_band:bec :      8.19s CPU      8.21s WALL (     930 calls)
     addusdens    :      8.84s CPU      8.92s WALL (     186 calls)
                                        0.00s GPU  (     186 calls)
     addusd:skk   :      0.11s CPU      0.12s WALL (     186 calls)
                                        0.00s GPU  (     186 calls)

     Called by *egterg:
     cdiaghg      :    760.28s CPU    779.44s WALL (    3231 calls)
     cegterg:over :    626.82s CPU    631.41s WALL (    2486 calls)
     cegterg:upda :    269.23s CPU    270.95s WALL (    2486 calls)
     cegterg:last :    875.53s CPU    883.19s WALL (    1951 calls)
     cdiaghg:chol :     54.28s CPU     54.42s WALL (    3231 calls)
     cdiaghg:inve :     11.18s CPU     11.21s WALL (    3231 calls)
     cdiaghg:para :    205.64s CPU    211.03s WALL (    6462 calls)
     h_psi        :   1681.21s CPU   1693.56s WALL (    3421 calls)
     s_psi        :    587.55s CPU    588.97s WALL (    3421 calls)
     g_psi        :      1.55s CPU      1.56s WALL (    2486 calls)

     Called by h_psi:
     h_psi:calbec :    759.55s CPU    766.73s WALL (    3421 calls)
     vloc_psi     :    296.20s CPU    299.67s WALL (    3421 calls)
     add_vuspsi   :    621.47s CPU    623.06s WALL (    3421 calls)

     General routines
     calbec       :   1272.28s CPU   1284.24s WALL (    4851 calls)
     fft          :      1.40s CPU      1.56s WALL (    2265 calls)
     ffts         :      0.08s CPU      0.08s WALL (     186 calls)
     fftw         :    335.35s CPU    339.26s WALL ( 2015470 calls)

     Parallel routines

     PWSCF        :      1h40m CPU      1h41m WALL


   This run was terminated on:  15:26:36  16Mar2025            

=------------------------------------------------------------------------------=
   JOB DONE.
=------------------------------------------------------------------------------=
Note: The following floating-point exceptions are signalling: IEEE_DENORMAL
Note: The following floating-point exceptions are signalling: IEEE_DENORMAL
Note: The following floating-point exceptions are signalling: IEEE_DENORMAL
Note: The following floating-point exceptions are signalling: IEEE_DENORMAL
Note: The following floating-point exceptions are signalling: IEEE_DENORMAL
Note: The following floating-point exceptions are signalling: IEEE_DENORMAL
Note: The following floating-point exceptions are signalling: IEEE_DENORMAL
