
     Program PWSCF v.7.3.1 starts on  9Apr2025 at  0:16:42 

     This program is part of the open-source Quantum ESPRESSO suite
     for quantum simulation of materials; please cite
         "P. Giannozzi et al., J. Phys.:Condens. Matter 21 395502 (2009);
         "P. Giannozzi et al., J. Phys.:Condens. Matter 29 465901 (2017);
         "P. Giannozzi et al., J. Chem. Phys. 152 154105 (2020);
          URL http://www.quantum-espresso.org", 
     in publications or presentations arising from this work. More details at
     http://www.quantum-espresso.org/quote

     Parallel version (MPI), running on    33 processors

     MPI processes distributed on     1 nodes
     1485 MiB available memory on the printing compute node when the environment starts

     Waiting for input...
     Reading input from standard input
Warning: card &CELL ignored
Warning: card   CELL_DOFREE = 'ALL' ignored
Warning: card / ignored

     Current dimensions of program PWSCF are:
     Max number of different atomic species (ntypx) = 10
     Max number of k-points (npk) =  40000
     Max angular momentum in pseudopotentials (lmaxx) =  4
     file C.pbe-n-kjpaw_psl.1.0.0.UPF: wavefunction(s)  2S 2P renormalized

     R & G space division:  proc/nbgrp/npool/nimage =      33
     Subspace diagonalization in iterative solution of the eigenvalue problem:
     one sub-group per band group will be used
     custom distributed-memory algorithm (size of sub-group:  5*  5 procs)


     Parallelization info
     --------------------
     sticks:   dense  smooth     PW     G-vecs:    dense   smooth      PW
     Min         270     154     45                40385    17444    2719
     Max         271     155     45                40396    17453    2727
     Sum        8941    5109   1485              1332973   575857   89907

     Using Slab Decomposition



     bravais-lattice index     =            0
     lattice parameter (alat)  =      20.9009  a.u.
     unit-cell volume          =   16846.7507 (a.u.)^3
     number of atoms/cell      =           62
     number of atomic types    =            4
     number of electrons       =       996.00
     number of Kohn-Sham states=          598
     kinetic-energy cutoff     =      40.0000  Ry
     charge density cutoff     =     280.0000  Ry
     scf convergence threshold =      1.0E-06
     mixing beta               =       0.4000
     number of iterations used =            8  plain     mixing
     energy convergence thresh.=      5.0E-05
     force convergence thresh. =      1.0E-03
     Exchange-correlation= PBE
                           (   1   4   3   4   0   0   0)
     nstep                     =          300


     celldm(1)=  20.900943  celldm(2)=   0.000000  celldm(3)=   0.000000
     celldm(4)=   0.000000  celldm(5)=   0.000000  celldm(6)=   0.000000

     crystal axes: (cart. coord. in units of alat)
               a(1) = (   1.000000   0.000000   0.000000 )  
               a(2) = (  -0.223489   0.918700   0.000000 )  
               a(3) = (  -4.200249  -1.021781   2.008375 )  

     reciprocal axes: (cart. coord. in units 2 pi/alat)
               b(1) = (  1.000000  0.243267  2.215131 )  
               b(2) = ( -0.000000  1.088495  0.553783 )  
               b(3) = (  0.000000 -0.000000  0.497915 )  


     PseudoPot. # 1 for Zn read from file:
     /home/ys/qepseudo/SSSP_1.3.0_PBE_efficiency/Zn_pbe_v1.uspp.F.UPF
     MD5 check sum: df62231357ef9e81f77b2b3087fa5675
     Pseudo is Ultrasoft, Zval = 20.0
     Generated by new atomic code, or converted to UPF format
     Using radial grid of  943 points,  6 beta functions with: 
                l(1) =   0
                l(2) =   0
                l(3) =   1
                l(4) =   1
                l(5) =   2
                l(6) =   2
     Q(r) pseudized with  8 coefficients,  rinner =    1.100   1.100   1.100
                                                       1.100   1.100

     PseudoPot. # 2 for N  read from file:
     /home/ys/qepseudo/SSSP_1.3.0_PBE_efficiency/N.pbe-n-radius_5.UPF
     MD5 check sum: 16739722b17309cd8fe442a2ace49922
     Pseudo is Ultrasoft + core correction, Zval =  5.0
     Generated using "atomic" code by A. Dal Corso  v.5.1
     Using radial grid of 1085 points,  4 beta functions with: 
                l(1) =   0
                l(2) =   0
                l(3) =   1
                l(4) =   1
     Q(r) pseudized with 0 coefficients 


     PseudoPot. # 3 for C  read from file:
     /home/ys/qepseudo/SSSP_1.3.0_PBE_efficiency/C.pbe-n-kjpaw_psl.1.0.0.UPF
     MD5 check sum: 5d2aebdfa2cae82b50a7e79e9516da0f
     Pseudo is Projector augmented-wave + core cor, Zval =  4.0
     Generated using "atomic" code by A. Dal Corso  v.5.1
     Shape of augmentation charge: PSQ
     Using radial grid of 1073 points,  4 beta functions with: 
                l(1) =   0
                l(2) =   0
                l(3) =   1
                l(4) =   1
     Q(r) pseudized with 0 coefficients 


     PseudoPot. # 4 for H  read from file:
     /home/ys/qepseudo/SSSP_1.3.0_PBE_efficiency/H.pbe-rrkjus_psl.1.0.0.UPF
     MD5 check sum: f52b6d4d1c606e5624b1dc7b2218f220
     Pseudo is Ultrasoft, Zval =  1.0
     Generated using "atomic" code by A. Dal Corso  v.5.1
     Using radial grid of  929 points,  2 beta functions with: 
                l(1) =   0
                l(2) =   0
     Q(r) pseudized with 0 coefficients 


     atomic species   valence    mass     pseudopotential
     Zn               20.00    65.38000     Zn( 1.00)
     N                 5.00    14.00674     N ( 1.00)
     C                 4.00    12.01070     C ( 1.00)
     H                 1.00     1.00794     H ( 1.00)

     No symmetry found


                                    s                        frac. trans.

      isym =  1     identity                                     

 cryst.   s( 1) = (     1          0          0      )
                  (     0          1          0      )
                  (     0          0          1      )

 cart.    s( 1) = (  1.0000000  0.0000000  0.0000000 )
                  (  0.0000000  1.0000000  0.0000000 )
                  (  0.0000000  0.0000000  1.0000000 )


   Cartesian axes

     site n.     atom                  positions (alat units)
         1        Zn     tau(   1) = (  -0.0970639   0.0980210   0.1082940  )
         2        Zn     tau(   2) = (  -0.2088085   0.5573710   0.1082940  )
         3        Zn     tau(   3) = (  -0.4436296   0.0133021   0.3267644  )
         4        Zn     tau(   4) = (  -0.5553466   0.4727589   0.3266326  )
         5        Zn     tau(   5) = (  -0.8015675  -0.0738560   0.5204735  )
         6        Zn     tau(   6) = (  -0.9136705   0.3857182   0.5203452  )
         7        Zn     tau(   7) = (  -0.1529361   0.3276960   0.1082940  )
         8        Zn     tau(   8) = (  -0.2646808   0.7870460   0.1082940  )
         9        Zn     tau(   9) = (  -0.4994158   0.2431043   0.3267310  )
        10        Zn     tau(  10) = (  -0.6113085   0.7023487   0.3266788  )
        11        Zn     tau(  11) = (  -0.8577155   0.1559534   0.5203020  )
        12        Zn     tau(  12) = (  -0.9693047   0.6153537   0.5205194  )
        13        Zn     tau(  13) = (   0.4029362   0.0980210   0.1082940  )
        14        Zn     tau(  14) = (   0.2911915   0.5573710   0.1082940  )
        15        Zn     tau(  15) = (   0.0565086   0.0133360   0.3241562  )
        16        Zn     tau(  16) = (  -0.0552146   0.4727957   0.3239770  )
        17        Zn     tau(  17) = (  -0.2990019  -0.0732614   0.5203282  )
        18        Zn     tau(  18) = (  -0.4111263   0.3864037   0.5201985  )
        19        Zn     tau(  19) = (   0.3470638   0.3276960   0.1082940  )
        20        Zn     tau(  20) = (   0.2353192   0.7870460   0.1082940  )
        21        Zn     tau(  21) = (   0.0007168   0.2430908   0.3241551  )
        22        Zn     tau(  22) = (  -0.1111493   0.7024087   0.3239982  )
        23        Zn     tau(  23) = (  -0.3551819   0.1565713   0.5201829  )
        24        Zn     tau(  24) = (  -0.4667146   0.6159736   0.5203598  )
        25        Zn     tau(  25) = (   0.1529361   0.0372043   0.0773528  )
        26        Zn     tau(  26) = (   0.0411915   0.4965543   0.0773528  )
        27        Zn     tau(  27) = (  -0.2122732  -0.0516715   0.2654630  )
        28        Zn     tau(  28) = (  -0.3239465   0.4077318   0.2654478  )
        29        Zn     tau(  29) = (  -0.5765287  -0.1406552   0.4574179  )
        30        Zn     tau(  30) = (  -0.6884677   0.3189336   0.4575418  )
        31        Zn     tau(  31) = (   0.0970639   0.2668793   0.0773528  )
        32        Zn     tau(  32) = (  -0.0146808   0.7262293   0.0773528  )
        33        Zn     tau(  33) = (  -0.2680871   0.1780502   0.2653609  )
        34        Zn     tau(  34) = (  -0.3798692   0.6373411   0.2655337  )
        35        Zn     tau(  35) = (  -0.6325059   0.0891251   0.4575687  )
        36        Zn     tau(  36) = (  -0.7442124   0.5485014   0.4573723  )
        37        Zn     tau(  37) = (   0.6529362   0.0372043   0.0773528  )
        38        Zn     tau(  38) = (   0.5411915   0.4965543   0.0773528  )
        39        Zn     tau(  39) = (   0.2881095  -0.0515887   0.2651273  )
        40        Zn     tau(  40) = (   0.1764595   0.4078348   0.2650500  )
        41        Zn     tau(  41) = (  -0.0738569  -0.1399537   0.4576836  )
        42        Zn     tau(  42) = (  -0.1858471   0.3195453   0.4578116  )
        43        Zn     tau(  43) = (   0.5970639   0.2668793   0.0773528  )
        44        Zn     tau(  44) = (   0.4853193   0.7262293   0.0773528  )
        45        Zn     tau(  45) = (   0.2323041   0.1780975   0.2650220  )
        46        Zn     tau(  46) = (   0.1205228   0.6374688   0.2651506  )
        47        Zn     tau(  47) = (  -0.1298290   0.0898017   0.4578049  )
        48        Zn     tau(  48) = (  -0.2415973   0.5491238   0.4576724  )
        49        C      tau(  49) = (  -0.5455285   0.4403883   0.7999122  )
        50        N      tau(  50) = (  -0.7331526   0.5521701   0.7818309  )
        51        C      tau(  51) = (  -0.4851673   0.3309525   0.8155559  )
        52        C      tau(  52) = (  -0.6728422   0.4442387   0.7972458  )
        53        H      tau(  53) = (  -0.4941396   0.5241530   0.7896935  )
        54        H      tau(  54) = (  -0.6874862   0.6305142   0.7721968  )
        55        C      tau(  55) = (  -0.5491206   0.2227471   0.8288030  )
        56        C      tau(  56) = (  -0.7369826   0.3349703   0.8106425  )
        57        C      tau(  57) = (  -0.6754369   0.2261905   0.8262021  )
        58        H      tau(  58) = (  -0.3865022   0.3305005   0.8173443  )
        59        H      tau(  59) = (  -0.8242509   0.5551893   0.7797614  )
        60        H      tau(  60) = (  -0.5014389   0.1373989   0.8410201  )
        61        H      tau(  61) = (  -0.8357604   0.3360328   0.8087674  )
        62        H      tau(  62) = (  -0.7272976   0.1428504   0.8363982  )

     --------------------------------------------
     DFT-D3 Dispersion Correction (3-body terms):
     --------------------------------------------
       Reference C6 values for interpolation: 

         atom   Coordination number   C6
         H          0.912             6.05
         H          0.000            15.18
         C          0.000            98.23
         C          0.987            86.49
         C          1.998            58.72
         C          2.999            51.56
         C          3.984            36.41
         N          0.000            50.54
         N          0.994            44.25
         N          2.014            39.35
         N          2.990            31.16
         Zn         0.000           681.04
         Zn         1.942           306.91

       Values used:

         atom   Coordination number  R0_AB[au]  C6      C8
         Zn         5.577            3.053    306.91  23930.67
         Zn         5.581            3.053    306.91  23930.67
         Zn         7.262            3.053    306.91  23930.67
         Zn         7.271            3.053    306.91  23930.67
         Zn         5.104            3.053    306.91  23930.67
         Zn         5.117            3.053    306.91  23930.67
         Zn         5.580            3.053    306.91  23930.67
         Zn         5.578            3.053    306.91  23930.67
         Zn         7.265            3.053    306.91  23930.67
         Zn         7.268            3.053    306.91  23930.67
         Zn         5.114            3.053    306.91  23930.67
         Zn         5.105            3.053    306.91  23930.67
         Zn         5.546            3.053    306.91  23930.67
         Zn         5.549            3.053    306.91  23930.67
         Zn         7.336            3.053    306.91  23930.67
         Zn         7.339            3.053    306.91  23930.67
         Zn         5.108            3.053    306.91  23930.67
         Zn         5.139            3.053    306.91  23930.67
         Zn         5.549            3.053    306.91  23930.67
         Zn         5.547            3.053    306.91  23930.67
         Zn         7.337            3.053    306.91  23930.67
         Zn         7.340            3.053    306.91  23930.67
         Zn         5.115            3.053    306.91  23930.67
         Zn         5.119            3.053    306.91  23930.67
         Zn         5.382            3.053    306.91  23930.67
         Zn         5.384            3.053    306.91  23930.67
         Zn         8.154            3.053    306.91  23930.67
         Zn         8.160            3.053    306.91  23930.67
         Zn         6.504            3.053    306.91  23930.67
         Zn         6.502            3.053    306.91  23930.67
         Zn         5.382            3.053    306.91  23930.67
         Zn         5.383            3.053    306.91  23930.67
         Zn         8.153            3.053    306.91  23930.67
         Zn         8.159            3.053    306.91  23930.67
         Zn         6.495            3.053    306.91  23930.67
         Zn         6.512            3.053    306.91  23930.67
         Zn         5.342            3.053    306.91  23930.67
         Zn         5.343            3.053    306.91  23930.67
         Zn         8.196            3.053    306.91  23930.67
         Zn         8.199            3.053    306.91  23930.67
         Zn         6.508            3.053    306.91  23930.67
         Zn         6.500            3.053    306.91  23930.67
         Zn         5.343            3.053    306.91  23930.67
         Zn         5.341            3.053    306.91  23930.67
         Zn         8.194            3.053    306.91  23930.67
         Zn         8.201            3.053    306.91  23930.67
         Zn         6.499            3.053    306.91  23930.67
         Zn         6.509            3.053    306.91  23930.67
         C          3.181            2.750     50.26   1453.51
         N          3.091            2.478     31.24    689.17
         C          3.146            2.750     50.56   1462.37
         C          3.148            2.750     50.55   1461.96
         H          1.006            2.062      6.18     74.66
         H          1.007            2.062      6.17     74.64
         C          3.129            2.750     50.69   1466.10
         C          3.175            2.750     50.31   1455.18
         C          3.137            2.750     50.63   1464.36
         H          1.005            2.062      6.18     74.67
         H          1.008            2.062      6.17     74.64
         H          1.003            2.062      6.18     74.68
         H          1.005            2.062      6.18     74.67
         H          1.004            2.062      6.18     74.68

         Molecular C6 ( Ry / a.u.^6 ) =    819884.05


   Crystallographic axes

     site n.     atom                  positions (cryst. coord.)
         1        Zn     tau(   1) = (  0.1666667  0.1666667  0.0539212  )
         2        Zn     tau(   2) = (  0.1666668  0.6666667  0.0539212  )
         3        Zn     tau(   3) = (  0.2834325  0.1954358  0.1627009  )
         4        Zn     tau(   4) = (  0.2831942  0.6954790  0.1626353  )
         5        Zn     tau(   5) = (  0.3333829  0.2078374  0.2591516  )
         6        Zn     tau(   6) = (  0.3327949  0.7080104  0.2590877  )
         7        Zn     tau(   7) = (  0.1666668  0.4166667  0.0539212  )
         8        Zn     tau(   8) = (  0.1666667  0.9166667  0.0539212  )
         9        Zn     tau(   9) = (  0.2834754  0.4455557  0.1626843  )
        10        Zn     tau(  10) = (  0.2831861  0.9454119  0.1626583  )
        11        Zn     tau(  11) = (  0.3327602  0.4578888  0.2590662  )
        12        Zn     tau(  12) = (  0.3334092  0.9580638  0.2591744  )
        13        Zn     tau(  13) = (  0.6666668  0.1666667  0.0539212  )
        14        Zn     tau(  14) = (  0.6666667  0.6666667  0.0539212  )
        15        Zn     tau(  15) = (  0.7778014  0.1940282  0.1614022  )
        16        Zn     tau(  16) = (  0.7774525  0.6940484  0.1613130  )
        17        Zn     tau(  17) = (  0.8357713  0.2084042  0.2590792  )
        18        Zn     tau(  18) = (  0.8351810  0.7086753  0.2590146  )
        19        Zn     tau(  19) = (  0.6666668  0.4166667  0.0539212  )
        20        Zn     tau(  20) = (  0.6666668  0.9166667  0.0539212  )
        21        Zn     tau(  21) = (  0.7778988  0.4441146  0.1614017  )
        22        Zn     tau(  22) = (  0.7774220  0.9439927  0.1613236  )
        23        Zn     tau(  23) = (  0.8351802  0.4584954  0.2590069  )
        24        Zn     tau(  24) = (  0.8357966  0.9586503  0.2590949  )
        25        Zn     tau(  25) = (  0.3333333  0.0833333  0.0385151  )
        26        Zn     tau(  26) = (  0.3333333  0.5833333  0.0385151  )
        27        Zn     tau(  27) = (  0.3631923  0.0907647  0.1321780  )
        28        Zn     tau(  28) = (  0.3632429  0.5908143  0.1321704  )
        29        Zn     tau(  29) = (  0.4024953  0.1002077  0.2277552  )
        30        Zn     tau(  30) = (  0.4026334  0.6005363  0.2278169  )
        31        Zn     tau(  31) = (  0.3333333  0.3333333  0.0385151  )
        32        Zn     tau(  32) = (  0.3333333  0.8333333  0.0385151  )
        33        Zn     tau(  33) = (  0.3630358  0.3407590  0.1321272  )
        34        Zn     tau(  34) = (  0.3633667  0.8407904  0.1322132  )
        35        Zn     tau(  35) = (  0.4027500  0.3504058  0.2278303  )
        36        Zn     tau(  36) = (  0.4023595  0.8503257  0.2277325  )
        37        Zn     tau(  37) = (  0.8333333  0.0833333  0.0385151  )
        38        Zn     tau(  38) = (  0.8333333  0.5833333  0.0385151  )
        39        Zn     tau(  39) = (  0.8628514  0.0906689  0.1320109  )
        40        Zn     tau(  40) = (  0.8627927  0.5907061  0.1319724  )
        41        Zn     tau(  41) = (  0.9059264  0.1011185  0.2278875  )
        42        Zn     tau(  42) = (  0.9060006  0.6013515  0.2279513  )
        43        Zn     tau(  43) = (  0.8333333  0.3333333  0.0385151  )
        44        Zn     tau(  44) = (  0.8333333  0.8333333  0.0385151  )
        45        Zn     tau(  45) = (  0.8626880  0.3406228  0.1319584  )
        46        Zn     tau(  46) = (  0.8629413  0.8407172  0.1320225  )
        47        Zn     tau(  47) = (  0.9061147  0.3512731  0.2279479  )
        48        Zn     tau(  48) = (  0.9057908  0.8511694  0.2278820  )
        49        C      tau(  49) = (  1.3335140  0.9223379  0.3982883  )
        50        N      tau(  50) = (  1.1330302  1.0339987  0.3892853  )
        51        C      tau(  51) = (  1.4019060  0.8118809  0.4060775  )
        52        C      tau(  52) = (  1.2012305  0.9250524  0.3969606  )
        53        H      tau(  53) = (  1.3826442  1.0078564  0.3932002  )
        54        H      tau(  54) = (  1.1764144  1.1139406  0.3844884  )
        55        C      tau(  55) = (  1.3409739  0.7014359  0.4126734  )
        56        C      tau(  56) = (  1.1401843  0.8135332  0.4036311  )
        57        C      tau(  57) = (  1.2097338  0.7037436  0.4113784  )
        58        H      tau(  58) = (  1.5044226  0.8123792  0.4069680  )
        59        H      tau(  59) = (  1.0380821  1.0361390  0.3882549  )
        60        H      tau(  60) = (  1.3949556  0.6153004  0.4187565  )
        61        H      tau(  61) = (  1.0375112  0.8136513  0.4026974  )
        62        H      tau(  62) = (  1.1601850  0.6186748  0.4164552  )

     number of k points=     4  Marzari-Vanderbilt smearing, width (Ry)=  0.0200
                       cart. coord. in units 2pi/alat
        k(    1) = (   0.0000000   0.0000000   0.0000000), wk =   0.5000000
        k(    2) = (   0.0000000  -0.5442473  -0.2768914), wk =   0.5000000
        k(    3) = (  -0.5000000  -0.1216334  -1.1075657), wk =   0.5000000
        k(    4) = (  -0.5000000  -0.6658807  -1.3844571), wk =   0.5000000

                       cryst. coord.
        k(    1) = (   0.0000000   0.0000000   0.0000000), wk =   0.5000000
        k(    2) = (   0.0000000  -0.5000000   0.0000000), wk =   0.5000000
        k(    3) = (  -0.5000000   0.0000000   0.0000000), wk =   0.5000000
        k(    4) = (  -0.5000000  -0.5000000   0.0000000), wk =   0.5000000

     Dense  grid:  1332973 G-vectors     FFT dimensions: ( 120, 108, 540)

     Smooth grid:   575857 G-vectors     FFT dimensions: (  90,  80, 405)

     Dynamical RAM for                 wfc:      19.89 MB

     Dynamical RAM for     wfc (w. buffer):      99.46 MB

     Dynamical RAM for           str. fact:       2.47 MB

     Dynamical RAM for           local pot:       0.00 MB

     Dynamical RAM for          nlocal pot:      31.07 MB

     Dynamical RAM for                qrad:       5.37 MB

     Dynamical RAM for          rho,v,vnew:       6.89 MB

     Dynamical RAM for               rhoin:       2.30 MB

     Dynamical RAM for            rho*nmix:       9.86 MB

     Dynamical RAM for           G-vectors:       2.44 MB

     Dynamical RAM for          h,s,v(r/c):       2.61 MB

     Dynamical RAM for          <psi|beta>:       8.52 MB

     Dynamical RAM for                 psi:      39.78 MB

     Dynamical RAM for                hpsi:      39.78 MB

     Dynamical RAM for                spsi:      39.78 MB

     Dynamical RAM for      wfcinit/wfcrot:      53.79 MB

     Dynamical RAM for           addusdens:     144.24 MB

     Dynamical RAM for          addusforce:     202.67 MB

     Dynamical RAM for         addusstress:     123.90 MB

     Estimated static dynamical RAM per process >     161.49 MB

     Estimated max dynamical RAM per process >     374.02 MB

     Estimated total dynamical RAM >      12.05 GB

     Initial potential from superposition of free atoms

     starting charge     995.9929, renormalised to     996.0000

     negative rho (up, down):  3.263E-03 0.000E+00
     Starting wfcs are  659 randomized atomic wfcs
     Checking if some PAW data can be deallocated... 
       PAW data deallocated on   29 nodes for type:  3

     total cpu time spent up to now is       68.7 secs

     Self-consistent Calculation

     iteration #  1     ecut=    40.00 Ry     beta= 0.40
     Davidson diagonalization with overlap

---- Real-time Memory Report at c_bands before calling an iterative solver
           241 MiB given to the printing process from OS
             0 MiB allocation reported by mallinfo(arena+hblkhd)
          2415 MiB available memory on the node where the printing process lives
------------------
     ethr =  1.00E-02,  avg # of iterations =  8.0

     negative rho (up, down):  3.830E-03 0.000E+00

     total cpu time spent up to now is      319.1 secs

     total energy              =  -22288.79474842 Ry
     estimated scf accuracy    <      10.27616076 Ry

     iteration #  2     ecut=    40.00 Ry     beta= 0.40
     Davidson diagonalization with overlap

---- Real-time Memory Report at c_bands before calling an iterative solver
           344 MiB given to the printing process from OS
             0 MiB allocation reported by mallinfo(arena+hblkhd)
          4228 MiB available memory on the node where the printing process lives
------------------
     ethr =  1.03E-03,  avg # of iterations = 10.0

     negative rho (up, down):  4.973E-03 0.000E+00

     total cpu time spent up to now is      565.2 secs

     total energy              =  -22278.87890074 Ry
     estimated scf accuracy    <     196.15751218 Ry

     iteration #  3     ecut=    40.00 Ry     beta= 0.40
     Davidson diagonalization with overlap

---- Real-time Memory Report at c_bands before calling an iterative solver
           360 MiB given to the printing process from OS
             0 MiB allocation reported by mallinfo(arena+hblkhd)
          5016 MiB available memory on the node where the printing process lives
------------------
     ethr =  1.03E-03,  avg # of iterations =  6.5

     negative rho (up, down):  5.202E-03 0.000E+00

     total cpu time spent up to now is      838.2 secs

     total energy              =  -22292.49655091 Ry
     estimated scf accuracy    <      14.73775068 Ry

     iteration #  4     ecut=    40.00 Ry     beta= 0.40
     Davidson diagonalization with overlap

---- Real-time Memory Report at c_bands before calling an iterative solver
           361 MiB given to the printing process from OS
             0 MiB allocation reported by mallinfo(arena+hblkhd)
          5000 MiB available memory on the node where the printing process lives
------------------
     ethr =  1.03E-03,  avg # of iterations =  3.0

     negative rho (up, down):  5.105E-03 0.000E+00

     total cpu time spent up to now is     1046.3 secs

     total energy              =  -22293.52196715 Ry
     estimated scf accuracy    <       1.51697195 Ry

     iteration #  5     ecut=    40.00 Ry     beta= 0.40
     Davidson diagonalization with overlap

---- Real-time Memory Report at c_bands before calling an iterative solver
           362 MiB given to the printing process from OS
             0 MiB allocation reported by mallinfo(arena+hblkhd)
          4977 MiB available memory on the node where the printing process lives
------------------
     ethr =  1.52E-04,  avg # of iterations =  4.5

     negative rho (up, down):  5.014E-03 0.000E+00

     total cpu time spent up to now is     1253.2 secs

     total energy              =  -22293.60901685 Ry
     estimated scf accuracy    <       0.26699128 Ry

     iteration #  6     ecut=    40.00 Ry     beta= 0.40
     Davidson diagonalization with overlap

---- Real-time Memory Report at c_bands before calling an iterative solver
           363 MiB given to the printing process from OS
             0 MiB allocation reported by mallinfo(arena+hblkhd)
          4956 MiB available memory on the node where the printing process lives
------------------
     ethr =  2.68E-05,  avg # of iterations = 13.5

     negative rho (up, down):  5.025E-03 0.000E+00

     total cpu time spent up to now is     1492.7 secs

     total energy              =  -22293.59956945 Ry
     estimated scf accuracy    <       0.17494909 Ry

     iteration #  7     ecut=    40.00 Ry     beta= 0.40
     Davidson diagonalization with overlap

---- Real-time Memory Report at c_bands before calling an iterative solver
           364 MiB given to the printing process from OS
             0 MiB allocation reported by mallinfo(arena+hblkhd)
          4929 MiB available memory on the node where the printing process lives
------------------
     ethr =  1.76E-05,  avg # of iterations =  3.0

     negative rho (up, down):  5.070E-03 0.000E+00

     total cpu time spent up to now is     1705.4 secs

     total energy              =  -22293.60075386 Ry
     estimated scf accuracy    <       0.12213582 Ry

     iteration #  8     ecut=    40.00 Ry     beta= 0.40
     Davidson diagonalization with overlap

---- Real-time Memory Report at c_bands before calling an iterative solver
           364 MiB given to the printing process from OS
             0 MiB allocation reported by mallinfo(arena+hblkhd)
          4904 MiB available memory on the node where the printing process lives
------------------
     ethr =  1.23E-05,  avg # of iterations =  7.0

     negative rho (up, down):  5.102E-03 0.000E+00

     total cpu time spent up to now is     1927.0 secs

     total energy              =  -22293.60756925 Ry
     estimated scf accuracy    <       0.02356623 Ry

     iteration #  9     ecut=    40.00 Ry     beta= 0.40
     Davidson diagonalization with overlap

---- Real-time Memory Report at c_bands before calling an iterative solver
           365 MiB given to the printing process from OS
             0 MiB allocation reported by mallinfo(arena+hblkhd)
          4885 MiB available memory on the node where the printing process lives
------------------
     c_bands:  1 eigenvalues not converged
     ethr =  2.37E-06,  avg # of iterations = 17.2

     negative rho (up, down):  5.118E-03 0.000E+00

     total cpu time spent up to now is     2171.0 secs

     total energy              =  -22293.60688850 Ry
     estimated scf accuracy    <       0.01506875 Ry

     iteration # 10     ecut=    40.00 Ry     beta= 0.40
     Davidson diagonalization with overlap

---- Real-time Memory Report at c_bands before calling an iterative solver
           366 MiB given to the printing process from OS
             0 MiB allocation reported by mallinfo(arena+hblkhd)
          4861 MiB available memory on the node where the printing process lives
------------------
     ethr =  1.51E-06,  avg # of iterations =  2.2

     negative rho (up, down):  5.137E-03 0.000E+00

     total cpu time spent up to now is     2369.5 secs

     total energy              =  -22293.60518333 Ry
     estimated scf accuracy    <       0.01129071 Ry

     iteration # 11     ecut=    40.00 Ry     beta= 0.40
     Davidson diagonalization with overlap

---- Real-time Memory Report at c_bands before calling an iterative solver
           367 MiB given to the printing process from OS
             0 MiB allocation reported by mallinfo(arena+hblkhd)
          4860 MiB available memory on the node where the printing process lives
------------------
     c_bands:  1 eigenvalues not converged
     ethr =  1.13E-06,  avg # of iterations = 11.2

     negative rho (up, down):  5.175E-03 0.000E+00

     total cpu time spent up to now is     2584.3 secs

     total energy              =  -22293.60172758 Ry
     estimated scf accuracy    <       0.00653837 Ry

     iteration # 12     ecut=    40.00 Ry     beta= 0.40
     Davidson diagonalization with overlap

---- Real-time Memory Report at c_bands before calling an iterative solver
           367 MiB given to the printing process from OS
             0 MiB allocation reported by mallinfo(arena+hblkhd)
          4860 MiB available memory on the node where the printing process lives
------------------
     ethr =  6.56E-07,  avg # of iterations = 15.2

     negative rho (up, down):  5.174E-03 0.000E+00

     total cpu time spent up to now is     2838.2 secs

     total energy              =  -22293.60295132 Ry
     estimated scf accuracy    <       0.00034041 Ry

     iteration # 13     ecut=    40.00 Ry     beta= 0.40
     Davidson diagonalization with overlap

---- Real-time Memory Report at c_bands before calling an iterative solver
           367 MiB given to the printing process from OS
             0 MiB allocation reported by mallinfo(arena+hblkhd)
          4851 MiB available memory on the node where the printing process lives
------------------
     ethr =  3.42E-08,  avg # of iterations =  2.0

     negative rho (up, down):  5.174E-03 0.000E+00

     total cpu time spent up to now is     3043.9 secs

     total energy              =  -22293.60297746 Ry
     estimated scf accuracy    <       0.00010647 Ry

     iteration # 14     ecut=    40.00 Ry     beta= 0.40
     Davidson diagonalization with overlap

---- Real-time Memory Report at c_bands before calling an iterative solver
           367 MiB given to the printing process from OS
             0 MiB allocation reported by mallinfo(arena+hblkhd)
          4861 MiB available memory on the node where the printing process lives
------------------
     ethr =  1.07E-08,  avg # of iterations =  2.0

     negative rho (up, down):  5.175E-03 0.000E+00

     total cpu time spent up to now is     3252.5 secs

     total energy              =  -22293.60298377 Ry
     estimated scf accuracy    <       0.00011018 Ry

     iteration # 15     ecut=    40.00 Ry     beta= 0.40
     Davidson diagonalization with overlap

---- Real-time Memory Report at c_bands before calling an iterative solver
           367 MiB given to the printing process from OS
             0 MiB allocation reported by mallinfo(arena+hblkhd)
          4859 MiB available memory on the node where the printing process lives
------------------
     ethr =  1.07E-08,  avg # of iterations =  2.0

     negative rho (up, down):  5.176E-03 0.000E+00

     total cpu time spent up to now is     3455.4 secs

     total energy              =  -22293.60299175 Ry
     estimated scf accuracy    <       0.00008778 Ry

     iteration # 16     ecut=    40.00 Ry     beta= 0.40
     Davidson diagonalization with overlap

---- Real-time Memory Report at c_bands before calling an iterative solver
           367 MiB given to the printing process from OS
             0 MiB allocation reported by mallinfo(arena+hblkhd)
          4860 MiB available memory on the node where the printing process lives
------------------
     ethr =  8.81E-09,  avg # of iterations =  1.0

     negative rho (up, down):  5.177E-03 0.000E+00

     total cpu time spent up to now is     3620.7 secs

     total energy              =  -22293.60299803 Ry
     estimated scf accuracy    <       0.00001310 Ry

     iteration # 17     ecut=    40.00 Ry     beta= 0.40
     Davidson diagonalization with overlap

---- Real-time Memory Report at c_bands before calling an iterative solver
           367 MiB given to the printing process from OS
             0 MiB allocation reported by mallinfo(arena+hblkhd)
          4858 MiB available memory on the node where the printing process lives
------------------
     ethr =  1.31E-09,  avg # of iterations =  2.0

     negative rho (up, down):  5.177E-03 0.000E+00

     total cpu time spent up to now is     3823.1 secs

     total energy              =  -22293.60299914 Ry
     estimated scf accuracy    <       0.00000465 Ry

     iteration # 18     ecut=    40.00 Ry     beta= 0.40
     Davidson diagonalization with overlap

---- Real-time Memory Report at c_bands before calling an iterative solver
           367 MiB given to the printing process from OS
             0 MiB allocation reported by mallinfo(arena+hblkhd)
          4857 MiB available memory on the node where the printing process lives
------------------
     ethr =  4.67E-10,  avg # of iterations =  2.0

     negative rho (up, down):  5.177E-03 0.000E+00

     total cpu time spent up to now is     4025.9 secs

     total energy              =  -22293.60299956 Ry
     estimated scf accuracy    <       0.00000121 Ry

     iteration # 19     ecut=    40.00 Ry     beta= 0.40
     Davidson diagonalization with overlap

---- Real-time Memory Report at c_bands before calling an iterative solver
           367 MiB given to the printing process from OS
             0 MiB allocation reported by mallinfo(arena+hblkhd)
          4859 MiB available memory on the node where the printing process lives
------------------
     ethr =  1.22E-10,  avg # of iterations =  2.0

     negative rho (up, down):  5.178E-03 0.000E+00

     total cpu time spent up to now is     4228.8 secs

     End of self-consistent calculation

          k = 0.0000 0.0000 0.0000 ( 71933 PWs)   bands (ev):

  -125.2498-125.2473-125.2462-125.2450-125.2438-125.2434-125.2425-125.2407
  -125.1584-125.1575-125.1553-125.1545-125.1544-125.1525-125.1493-125.1479
  -125.0529-125.0507-125.0467-125.0464-125.0447-125.0445-125.0440-125.0422
  -124.9633-124.9619-124.9612-124.9603-124.9602-124.9583-124.9567-124.9544
  -124.8811-124.8748-124.8741-124.8717-124.8714-124.8693-124.8644-124.8639
  -124.8080-124.7934-124.7858-124.7753-124.7749-124.7744-124.7710-124.7690
   -79.4135 -79.4101 -79.4012 -79.4007 -79.4003 -79.3990 -79.3989 -79.3975
   -79.3975 -79.3962 -79.3961 -79.3959 -79.3951 -79.3948 -79.3948 -79.3936
   -79.3927 -79.3915 -79.3913 -79.3905 -79.3894 -79.3882 -79.3878 -79.3849
   -79.3249 -79.3202 -79.3138 -79.3121 -79.3113 -79.3107 -79.3087 -79.3083
   -79.3081 -79.3075 -79.3070 -79.3062 -79.3028 -79.3023 -79.3020 -79.3010
   -79.3000 -79.2995 -79.2984 -79.2984 -79.2968 -79.2946 -79.2937 -79.2924
   -79.2153 -79.2094 -79.2073 -79.2054 -79.2028 -79.2020 -79.2012 -79.2010
   -79.2008 -79.2002 -79.1998 -79.1990 -79.1988 -79.1983 -79.1970 -79.1967
   -79.1963 -79.1954 -79.1932 -79.1931 -79.1927 -79.1906 -79.1887 -79.1844
   -79.1267 -79.1229 -79.1215 -79.1194 -79.1190 -79.1182 -79.1180 -79.1162
   -79.1147 -79.1142 -79.1142 -79.1140 -79.1129 -79.1121 -79.1121 -79.1111
   -79.1110 -79.1104 -79.1100 -79.1092 -79.1077 -79.1054 -79.1019 -79.0976
   -79.0488 -79.0427 -79.0426 -79.0399 -79.0385 -79.0377 -79.0358 -79.0319
   -79.0308 -79.0302 -79.0286 -79.0226 -79.0218 -79.0216 -79.0201 -79.0194
   -79.0190 -79.0179 -79.0170 -79.0165 -79.0123 -79.0120 -79.0056 -79.0039
   -78.9828 -78.9688 -78.9610 -78.9593 -78.9503 -78.9487 -78.9482 -78.9474
   -78.9441 -78.9431 -78.9430 -78.9363 -78.9303 -78.9266 -78.9256 -78.9255
   -78.9246 -78.9229 -78.9222 -78.9200 -78.9107 -78.9097 -78.9081 -78.8976
   -17.8002 -15.5149 -13.1275 -12.6810  -9.8472  -9.5919  -8.2478  -7.8030
    -7.5476  -7.3875  -7.1163  -6.9729  -6.9725  -6.9588  -6.9022  -6.8590
    -6.8037  -6.7858  -6.7797  -6.7632  -6.7617  -6.7252  -6.7249  -6.7177
    -6.6992  -6.6973  -6.6458  -6.6354  -6.5859  -6.5846  -6.5839  -6.5776
    -6.5771  -6.5686  -6.5668  -6.5641  -6.5638  -6.5593  -6.5269  -6.5267
    -6.5240  -6.5236  -6.5084  -6.5077  -6.5034  -6.5032  -6.4893  -6.4892
    -6.4731  -6.4557  -6.4553  -6.4532  -6.4521  -6.4520  -6.4306  -6.4261
    -6.4259  -6.3975  -6.3971  -6.3850  -6.3848  -6.3819  -6.3733  -6.3730
    -6.3606  -6.3604  -6.3206  -6.3187  -6.3041  -6.2834  -6.2775  -6.2765
    -6.2737  -6.2465  -6.2463  -6.2269  -6.2248  -6.2175  -6.2173  -6.2109
    -6.2104  -6.2033  -6.2030  -6.2004  -6.1924  -6.1921  -6.1683  -6.1680
    -6.1662  -6.1661  -6.1616  -6.1256  -6.1250  -6.1223  -6.1149  -6.1147
    -6.0971  -6.0953  -6.0829  -6.0826  -6.0744  -6.0736  -6.0604  -6.0578
    -6.0566  -6.0565  -6.0535  -6.0499  -6.0311  -6.0309  -6.0280  -6.0277
    -6.0089  -6.0058  -5.9923  -5.9917  -5.9892  -5.9821  -5.9820  -5.9810
    -5.9739  -5.9681  -5.9536  -5.9486  -5.9483  -5.9352  -5.9351  -5.9269
    -5.9264  -5.9163  -5.9160  -5.9153  -5.9148  -5.8974  -5.8895  -5.8884
    -5.8884  -5.8759  -5.8758  -5.8737  -5.8669  -5.8592  -5.8564  -5.8472
    -5.8470  -5.8465  -5.8462  -5.8236  -5.8194  -5.8027  -5.8024  -5.7993
    -5.7992  -5.7907  -5.7839  -5.7835  -5.7817  -5.7816  -5.7621  -5.7556
    -5.7552  -5.7550  -5.7497  -5.7484  -5.7425  -5.7423  -5.7260  -5.7251
    -5.7211  -5.7183  -5.7181  -5.7099  -5.7091  -5.7085  -5.7079  -5.6922
    -5.6917  -5.6853  -5.6815  -5.6808  -5.6726  -5.6717  -5.6659  -5.6632
    -5.6561  -5.6550  -5.6526  -5.6521  -5.6462  -5.6405  -5.6265  -5.6262
    -5.6253  -5.6248  -5.6208  -5.6207  -5.6160  -5.6034  -5.6026  -5.6024
    -5.5982  -5.5979  -5.5936  -5.5886  -5.5870  -5.5860  -5.5849  -5.5833
    -5.5831  -5.5750  -5.5743  -5.5689  -5.5673  -5.5649  -5.5542  -5.5500
    -5.5492  -5.5466  -5.5461  -5.5401  -5.5397  -5.5330  -5.5307  -5.5194
    -5.5189  -5.5168  -5.5145  -5.5096  -5.5087  -5.4948  -5.4944  -5.4726
    -5.4684  -5.4669  -5.4624  -5.4534  -5.4526  -5.4519  -5.4425  -5.4370
    -5.4182  -5.4162  -5.4139  -5.3970  -5.3927  -5.3738  -5.3733  -5.3575
    -5.3317  -5.3092  -5.2922  -5.2809  -5.2796  -5.2423  -5.2353  -5.2212
    -5.2121  -5.1979  -5.1889  -4.8686  -4.6220  -4.3844  -4.2658  -4.2021
    -4.0150  -4.0109  -3.9941  -3.6271  -3.6179  -3.3340  -2.8712  -2.7147
    -2.4394  -2.3814  -2.2351  -2.2260  -2.1069  -2.0554  -2.0530  -1.8061
    -1.6937  -1.6920  -1.5048  -1.5000  -1.4302  -1.4134  -1.0341  -0.9236
    -0.7216  -0.6602  -0.4587  -0.2863  -0.1558  -0.1499  -0.1012  -0.0877
     0.2701   0.3155   0.3236   0.5346   0.5635   0.5689   0.5931   0.6525
     0.9327   0.9537   1.2945   1.6179   1.6231   1.9106   1.9246   2.2379
     2.2848   2.4639   2.4806   2.4921   2.4976   2.6058   2.6154   3.0347
     3.0419   3.1202   3.1751   3.1807   3.2568   3.2629   3.5201   3.5564
     3.7243   3.8639   3.8777   3.9218   4.1249   4.3036   4.3288   4.3961
     4.5188   4.8088   4.8592   4.9745   5.0329   5.1178   5.3708   5.3882
     5.4083   5.4564   5.5460   5.5666   5.5701   5.5934   5.6085   5.7312
     5.8807   5.9198   5.9266   5.9495   5.9569   6.0268   6.0471   6.1063
     6.1265   6.1518   6.1810   6.2030   6.2123   6.2298   6.3547   6.3629
     6.4043   6.4266   6.5572   6.5751   6.5964   6.6392   6.6483   6.6647
     6.7080   6.7808   6.7943   6.8795   6.9878   7.0562   7.1831   7.2574
     7.2730   7.2935   7.3567   7.3945   7.4411   7.4469   7.4819   7.5371
     7.5984   7.6379   7.6774   7.7183   7.8284   7.8604   7.9164   7.9217
     7.9560   7.9953   7.9996   8.0231   8.1340   8.1640

     occupation numbers 
     1.0000   1.0000   1.0000   1.0000   1.0000   1.0000   1.0000   1.0000
     1.0000   1.0000   1.0000   1.0000   1.0000   1.0000   1.0000   1.0000
     1.0000   1.0000   1.0000   1.0000   1.0000   1.0000   1.0000   1.0000
     1.0000   1.0000   1.0000   1.0000   1.0000   1.0000   1.0000   1.0000
     1.0000   1.0000   1.0000   1.0000   1.0000   1.0000   1.0000   1.0000
     1.0000   1.0000   1.0000   1.0000   1.0000   1.0000   1.0000   1.0000
     1.0000   1.0000   1.0000   1.0000   1.0000   1.0000   1.0000   1.0000
     1.0000   1.0000   1.0000   1.0000   1.0000   1.0000   1.0000   1.0000
     1.0000   1.0000   1.0000   1.0000   1.0000   1.0000   1.0000   1.0000
     1.0000   1.0000   1.0000   1.0000   1.0000   1.0000   1.0000   1.0000
     1.0000   1.0000   1.0000   1.0000   1.0000   1.0000   1.0000   1.0000
     1.0000   1.0000   1.0000   1.0000   1.0000   1.0000   1.0000   1.0000
     1.0000   1.0000   1.0000   1.0000   1.0000   1.0000   1.0000   1.0000
     1.0000   1.0000   1.0000   1.0000   1.0000   1.0000   1.0000   1.0000
     1.0000   1.0000   1.0000   1.0000   1.0000   1.0000   1.0000   1.0000
     1.0000   1.0000   1.0000   1.0000   1.0000   1.0000   1.0000   1.0000
     1.0000   1.0000   1.0000   1.0000   1.0000   1.0000   1.0000   1.0000
     1.0000   1.0000   1.0000   1.0000   1.0000   1.0000   1.0000   1.0000
     1.0000   1.0000   1.0000   1.0000   1.0000   1.0000   1.0000   1.0000
     1.0000   1.0000   1.0000   1.0000   1.0000   1.0000   1.0000   1.0000
     1.0000   1.0000   1.0000   1.0000   1.0000   1.0000   1.0000   1.0000
     1.0000   1.0000   1.0000   1.0000   1.0000   1.0000   1.0000   1.0000
     1.0000   1.0000   1.0000   1.0000   1.0000   1.0000   1.0000   1.0000
     1.0000   1.0000   1.0000   1.0000   1.0000   1.0000   1.0000   1.0000
     1.0000   1.0000   1.0000   1.0000   1.0000   1.0000   1.0000   1.0000
     1.0000   1.0000   1.0000   1.0000   1.0000   1.0000   1.0000   1.0000
     1.0000   1.0000   1.0000   1.0000   1.0000   1.0000   1.0000   1.0000
     1.0000   1.0000   1.0000   1.0000   1.0000   1.0000   1.0000   1.0000
     1.0000   1.0000   1.0000   1.0000   1.0000   1.0000   1.0000   1.0000
     1.0000   1.0000   1.0000   1.0000   1.0000   1.0000   1.0000   1.0000
     1.0000   1.0000   1.0000   1.0000   1.0000   1.0000   1.0000   1.0000
     1.0000   1.0000   1.0000   1.0000   1.0000   1.0000   1.0000   1.0000
     1.0000   1.0000   1.0000   1.0000   1.0000   1.0000   1.0000   1.0000
     1.0000   1.0000   1.0000   1.0000   1.0000   1.0000   1.0000   1.0000
     1.0000   1.0000   1.0000   1.0000   1.0000   1.0000   1.0000   1.0000
     1.0000   1.0000   1.0000   1.0000   1.0000   1.0000   1.0000   1.0000
     1.0000   1.0000   1.0000   1.0000   1.0000   1.0000   1.0000   1.0000
     1.0000   1.0000   1.0000   1.0000   1.0000   1.0000   1.0000   1.0000
     1.0000   1.0000   1.0000   1.0000   1.0000   1.0000   1.0000   1.0000
     1.0000   1.0000   1.0000   1.0000   1.0000   1.0000   1.0000   1.0000
     1.0000   1.0000   1.0000   1.0000   1.0000   1.0000   1.0000   1.0000
     1.0000   1.0000   1.0000   1.0000   1.0000   1.0000   1.0000   1.0000
     1.0000   1.0000   1.0000   1.0000   1.0000   1.0000   1.0000   1.0000
     1.0000   1.0000   1.0000   1.0000   1.0000   1.0000   1.0000   1.0000
     1.0000   1.0000   1.0000   1.0000   1.0000   1.0000   1.0000   1.0000
     1.0000   1.0000   1.0000   1.0000   1.0000   1.0000   1.0000   1.0000
     1.0000   1.0000   1.0000   1.0000   1.0000   1.0000   1.0000   1.0000
     1.0000   1.0000   1.0000   1.0000   1.0000   1.0000   1.0000   1.0000
     1.0000   1.0000   1.0000   1.0000   1.0000   1.0000   1.0000   1.0000
     1.0000   1.0000   1.0000   1.0000   1.0000   1.0000   1.0000   1.0000
     1.0000   1.0000   1.0000   1.0000   1.0000   1.0000   1.0000   1.0000
     1.0000   1.0000   1.0000   1.0000   1.0000   1.0000   1.0000   1.0000
     1.0000   1.0000   1.0000   1.0000   1.0000   1.0000   1.0000   1.0000
     1.0000   1.0000   1.0000   1.0000   1.0000   1.0000   1.0000   1.0000
     1.0000   1.0000   1.0000   1.0000   1.0000   1.0000   1.0000   1.0000
     1.0000   1.0000   1.0000   1.0000   1.0000   1.0000   1.0000   1.0000
     1.0000   1.0000   1.0000   1.0000   1.0000   1.0000   1.0000   1.0000
     1.0000   1.0000   1.0000   1.0000   1.0000   1.0000   1.0000   1.0000
     1.0000   1.0000   1.0000   1.0000   1.0000   1.0000   1.0000   1.0000
     1.0000   1.0000   1.0000   1.0000   1.0000   1.0000   1.0000   1.0000
     1.0000   1.0000   1.0000   1.0000   1.0000   1.0000   1.0000   1.0000
     1.0001   1.0002   1.0003   1.0080   1.0114   1.0122   1.0161   1.0294
     1.0559   1.0378   0.2673   0.0061   0.0056   0.0000   0.0000   0.0000
     0.0000   0.0000   0.0000   0.0000   0.0000   0.0000   0.0000   0.0000
     0.0000   0.0000   0.0000   0.0000   0.0000   0.0000   0.0000   0.0000
     0.0000   0.0000   0.0000   0.0000   0.0000   0.0000   0.0000   0.0000
     0.0000   0.0000   0.0000   0.0000   0.0000   0.0000   0.0000   0.0000
     0.0000   0.0000   0.0000   0.0000   0.0000   0.0000   0.0000   0.0000
     0.0000   0.0000   0.0000   0.0000   0.0000   0.0000   0.0000   0.0000
     0.0000   0.0000   0.0000   0.0000   0.0000   0.0000   0.0000   0.0000
     0.0000   0.0000   0.0000   0.0000   0.0000   0.0000   0.0000   0.0000
     0.0000   0.0000   0.0000   0.0000   0.0000   0.0000   0.0000   0.0000
     0.0000   0.0000   0.0000   0.0000   0.0000   0.0000   0.0000   0.0000
     0.0000   0.0000   0.0000   0.0000   0.0000   0.0000   0.0000   0.0000
     0.0000   0.0000   0.0000   0.0000   0.0000   0.0000

          k = 0.0000-0.5442-0.2769 ( 71974 PWs)   bands (ev):

  -125.2498-125.2474-125.2462-125.2449-125.2438-125.2434-125.2425-125.2407
  -125.1584-125.1575-125.1553-125.1546-125.1544-125.1525-125.1493-125.1480
  -125.0529-125.0507-125.0467-125.0464-125.0447-125.0445-125.0440-125.0422
  -124.9633-124.9620-124.9611-124.9603-124.9602-124.9584-124.9567-124.9544
  -124.8811-124.8748-124.8741-124.8717-124.8714-124.8693-124.8644-124.8639
  -124.8080-124.7934-124.7858-124.7753-124.7749-124.7744-124.7710-124.7690
   -79.4112 -79.4079 -79.4074 -79.4054 -79.4008 -79.3992 -79.3976 -79.3975
   -79.3961 -79.3960 -79.3951 -79.3949 -79.3948 -79.3937 -79.3932 -79.3926
   -79.3915 -79.3913 -79.3906 -79.3901 -79.3895 -79.3891 -79.3882 -79.3877
   -79.3216 -79.3210 -79.3181 -79.3145 -79.3122 -79.3109 -79.3087 -79.3084
   -79.3077 -79.3062 -79.3040 -79.3033 -79.3027 -79.3023 -79.3020 -79.3011
   -79.3002 -79.2995 -79.2984 -79.2983 -79.2970 -79.2966 -79.2937 -79.2924
   -79.2136 -79.2086 -79.2073 -79.2069 -79.2054 -79.2044 -79.2019 -79.2010
   -79.2008 -79.2003 -79.1997 -79.1990 -79.1988 -79.1983 -79.1963 -79.1954
   -79.1953 -79.1932 -79.1932 -79.1927 -79.1906 -79.1905 -79.1892 -79.1870
   -79.1237 -79.1225 -79.1214 -79.1205 -79.1195 -79.1188 -79.1182 -79.1181
   -79.1176 -79.1162 -79.1142 -79.1141 -79.1131 -79.1121 -79.1120 -79.1111
   -79.1110 -79.1092 -79.1077 -79.1062 -79.1055 -79.1050 -79.1029 -79.0999
   -79.0488 -79.0427 -79.0426 -79.0399 -79.0385 -79.0377 -79.0347 -79.0319
   -79.0308 -79.0286 -79.0283 -79.0264 -79.0240 -79.0224 -79.0218 -79.0194
   -79.0190 -79.0170 -79.0155 -79.0123 -79.0120 -79.0105 -79.0066 -79.0056
   -78.9828 -78.9688 -78.9610 -78.9593 -78.9500 -78.9487 -78.9482 -78.9474
   -78.9441 -78.9431 -78.9430 -78.9363 -78.9321 -78.9266 -78.9256 -78.9255
   -78.9227 -78.9222 -78.9206 -78.9200 -78.9175 -78.9085 -78.9029 -78.8999
   -17.8002 -15.5149 -13.1275 -12.6808  -9.8472  -9.5924  -7.8803  -7.8776
    -7.8018  -7.5476  -7.1686  -7.1670  -6.8445  -6.8417  -6.7782  -6.7769
    -6.7522  -6.7498  -6.7327  -6.7318  -6.7265  -6.7246  -6.7015  -6.6983
    -6.6977  -6.6971  -6.6943  -6.6928  -6.6494  -6.6489  -6.6418  -6.6406
    -6.6385  -6.6379  -6.6057  -6.6048  -6.5487  -6.5482  -6.5474  -6.5439
    -6.5365  -6.5299  -6.5297  -6.5292  -6.5232  -6.5213  -6.5205  -6.5201
    -6.4767  -6.4697  -6.4635  -6.4567  -6.4551  -6.4501  -6.4491  -6.4456
    -6.4446  -6.3863  -6.3834  -6.3684  -6.3653  -6.3443  -6.3437  -6.3407
    -6.3397  -6.3173  -6.3164  -6.2983  -6.2966  -6.2938  -6.2928  -6.2880
    -6.2866  -6.2540  -6.2531  -6.2459  -6.2447  -6.2391  -6.2385  -6.2249
    -6.2240  -6.2142  -6.2133  -6.2107  -6.2095  -6.1818  -6.1794  -6.1732
    -6.1724  -6.1551  -6.1550  -6.1510  -6.1500  -6.1450  -6.1445  -6.1373
    -6.1354  -6.0984  -6.0973  -6.0842  -6.0834  -6.0784  -6.0767  -6.0615
    -6.0612  -6.0523  -6.0517  -6.0480  -6.0470  -6.0440  -6.0430  -6.0261
    -6.0254  -6.0230  -6.0223  -6.0183  -6.0147  -6.0099  -6.0091  -5.9922
    -5.9888  -5.9804  -5.9787  -5.9739  -5.9730  -5.9563  -5.9545  -5.9305
    -5.9295  -5.9260  -5.9238  -5.9164  -5.9158  -5.9106  -5.9088  -5.9069
    -5.9061  -5.8766  -5.8762  -5.8684  -5.8682  -5.8634  -5.8626  -5.8557
    -5.8552  -5.8205  -5.8201  -5.8012  -5.8004  -5.8000  -5.7993  -5.7971
    -5.7960  -5.7717  -5.7707  -5.7568  -5.7564  -5.7496  -5.7493  -5.7473
    -5.7463  -5.7336  -5.7319  -5.7246  -5.7241  -5.7219  -5.7213  -5.7144
    -5.7136  -5.7081  -5.7078  -5.7024  -5.7020  -5.6945  -5.6942  -5.6601
    -5.6596  -5.6591  -5.6579  -5.6503  -5.6497  -5.6473  -5.6465  -5.6462
    -5.6452  -5.6433  -5.6410  -5.6396  -5.6371  -5.6306  -5.6291  -5.6217
    -5.6214  -5.6075  -5.6069  -5.6057  -5.6035  -5.6004  -5.5986  -5.5916
    -5.5901  -5.5761  -5.5706  -5.5683  -5.5664  -5.5645  -5.5620  -5.5580
    -5.5559  -5.5454  -5.5436  -5.5414  -5.5403  -5.5386  -5.5375  -5.5341
    -5.5332  -5.5271  -5.5260  -5.5236  -5.5221  -5.5184  -5.5167  -5.4962
    -5.4934  -5.4912  -5.4895  -5.4887  -5.4881  -5.4832  -5.4819  -5.4797
    -5.4774  -5.4637  -5.4626  -5.4612  -5.4592  -5.4462  -5.4380  -5.4175
    -5.4165  -5.4147  -5.4135  -5.4086  -5.4036  -5.3993  -5.3983  -5.3639
    -5.3615  -5.3593  -5.3493  -5.3322  -5.3273  -5.2282  -5.2249  -5.1224
    -5.1171  -5.1045  -5.0899  -4.8590  -4.3899  -4.3611  -4.2655  -4.2224
    -4.2128  -3.9397  -3.9385  -3.5480  -3.5349  -3.3360  -2.8757  -2.5718
    -2.5349  -2.5277  -2.4734  -2.4346  -2.3429  -2.3013  -2.1548  -2.1248
    -1.9365  -1.9352  -1.5840  -1.5302  -1.1942  -1.1911  -1.0198  -0.9578
    -0.9479  -0.5747  -0.5519  -0.4158  -0.4073  -0.1924  -0.1846   0.1526
     0.2008   0.3033   0.4708   0.4976   0.7775   0.8128   1.0857   1.0936
     1.1781   1.1966   1.5360   1.5420   1.5514   1.6177   1.7322   1.7331
     2.3078   2.3241   2.7700   2.8026   2.9657   2.9860   3.1180   3.1199
     3.4749   3.4820   3.5895   3.6351   3.6961   3.7474   3.7906   3.8031
     3.9414   3.9750   4.0618   4.0671   4.0879   4.0965   4.1228   4.1817
     4.2034   4.2533   4.3220   4.5314   4.7016   4.7525   4.9413   4.9499
     5.0294   5.0583   5.0734   5.1444   5.2286   5.2378   5.3395   5.3484
     5.4761   5.5077   5.6930   5.7064   5.7128   5.8041   5.9050   5.9670
     6.0264   6.0529   6.0599   6.1037   6.1519   6.2320   6.3732   6.3865
     6.4481   6.4953   6.5169   6.5528   6.6017   6.6231   6.6905   6.7092
     6.7838   6.8330   6.8895   6.8990   6.9487   6.9814   7.1302   7.1707
     7.2048   7.3049   7.3234   7.3701   7.4192   7.4634   7.5266   7.5541
     7.5892   7.6202   7.7943   7.8500   7.8910   7.8989   7.9973   8.0289
     8.0344   8.0539   8.0681   8.1114   8.1464   8.2049

     occupation numbers 
     1.0000   1.0000   1.0000   1.0000   1.0000   1.0000   1.0000   1.0000
     1.0000   1.0000   1.0000   1.0000   1.0000   1.0000   1.0000   1.0000
     1.0000   1.0000   1.0000   1.0000   1.0000   1.0000   1.0000   1.0000
     1.0000   1.0000   1.0000   1.0000   1.0000   1.0000   1.0000   1.0000
     1.0000   1.0000   1.0000   1.0000   1.0000   1.0000   1.0000   1.0000
     1.0000   1.0000   1.0000   1.0000   1.0000   1.0000   1.0000   1.0000
     1.0000   1.0000   1.0000   1.0000   1.0000   1.0000   1.0000   1.0000
     1.0000   1.0000   1.0000   1.0000   1.0000   1.0000   1.0000   1.0000
     1.0000   1.0000   1.0000   1.0000   1.0000   1.0000   1.0000   1.0000
     1.0000   1.0000   1.0000   1.0000   1.0000   1.0000   1.0000   1.0000
     1.0000   1.0000   1.0000   1.0000   1.0000   1.0000   1.0000   1.0000
     1.0000   1.0000   1.0000   1.0000   1.0000   1.0000   1.0000   1.0000
     1.0000   1.0000   1.0000   1.0000   1.0000   1.0000   1.0000   1.0000
     1.0000   1.0000   1.0000   1.0000   1.0000   1.0000   1.0000   1.0000
     1.0000   1.0000   1.0000   1.0000   1.0000   1.0000   1.0000   1.0000
     1.0000   1.0000   1.0000   1.0000   1.0000   1.0000   1.0000   1.0000
     1.0000   1.0000   1.0000   1.0000   1.0000   1.0000   1.0000   1.0000
     1.0000   1.0000   1.0000   1.0000   1.0000   1.0000   1.0000   1.0000
     1.0000   1.0000   1.0000   1.0000   1.0000   1.0000   1.0000   1.0000
     1.0000   1.0000   1.0000   1.0000   1.0000   1.0000   1.0000   1.0000
     1.0000   1.0000   1.0000   1.0000   1.0000   1.0000   1.0000   1.0000
     1.0000   1.0000   1.0000   1.0000   1.0000   1.0000   1.0000   1.0000
     1.0000   1.0000   1.0000   1.0000   1.0000   1.0000   1.0000   1.0000
     1.0000   1.0000   1.0000   1.0000   1.0000   1.0000   1.0000   1.0000
     1.0000   1.0000   1.0000   1.0000   1.0000   1.0000   1.0000   1.0000
     1.0000   1.0000   1.0000   1.0000   1.0000   1.0000   1.0000   1.0000
     1.0000   1.0000   1.0000   1.0000   1.0000   1.0000   1.0000   1.0000
     1.0000   1.0000   1.0000   1.0000   1.0000   1.0000   1.0000   1.0000
     1.0000   1.0000   1.0000   1.0000   1.0000   1.0000   1.0000   1.0000
     1.0000   1.0000   1.0000   1.0000   1.0000   1.0000   1.0000   1.0000
     1.0000   1.0000   1.0000   1.0000   1.0000   1.0000   1.0000   1.0000
     1.0000   1.0000   1.0000   1.0000   1.0000   1.0000   1.0000   1.0000
     1.0000   1.0000   1.0000   1.0000   1.0000   1.0000   1.0000   1.0000
     1.0000   1.0000   1.0000   1.0000   1.0000   1.0000   1.0000   1.0000
     1.0000   1.0000   1.0000   1.0000   1.0000   1.0000   1.0000   1.0000
     1.0000   1.0000   1.0000   1.0000   1.0000   1.0000   1.0000   1.0000
     1.0000   1.0000   1.0000   1.0000   1.0000   1.0000   1.0000   1.0000
     1.0000   1.0000   1.0000   1.0000   1.0000   1.0000   1.0000   1.0000
     1.0000   1.0000   1.0000   1.0000   1.0000   1.0000   1.0000   1.0000
     1.0000   1.0000   1.0000   1.0000   1.0000   1.0000   1.0000   1.0000
     1.0000   1.0000   1.0000   1.0000   1.0000   1.0000   1.0000   1.0000
     1.0000   1.0000   1.0000   1.0000   1.0000   1.0000   1.0000   1.0000
     1.0000   1.0000   1.0000   1.0000   1.0000   1.0000   1.0000   1.0000
     1.0000   1.0000   1.0000   1.0000   1.0000   1.0000   1.0000   1.0000
     1.0000   1.0000   1.0000   1.0000   1.0000   1.0000   1.0000   1.0000
     1.0000   1.0000   1.0000   1.0000   1.0000   1.0000   1.0000   1.0000
     1.0000   1.0000   1.0000   1.0000   1.0000   1.0000   1.0000   1.0000
     1.0000   1.0000   1.0000   1.0000   1.0000   1.0000   1.0000   1.0000
     1.0000   1.0000   1.0000   1.0000   1.0000   1.0000   1.0000   1.0000
     1.0000   1.0000   1.0000   1.0000   1.0000   1.0000   1.0000   1.0000
     1.0000   1.0000   1.0000   1.0000   1.0000   1.0000   1.0000   1.0000
     1.0000   1.0000   1.0000   1.0000   1.0000   1.0000   1.0000   1.0000
     1.0000   1.0000   1.0000   1.0000   1.0000   1.0000   1.0000   1.0000
     1.0000   1.0000   1.0000   1.0000   1.0000   1.0000   1.0000   1.0000
     1.0000   1.0000   1.0000   1.0000   1.0000   1.0000   1.0000   1.0000
     1.0000   1.0000   1.0000   1.0000   1.0000   1.0000   1.0000   1.0000
     1.0000   1.0000   1.0000   1.0000   1.0000   1.0000   1.0000   1.0000
     1.0000   1.0000   1.0000   1.0000   1.0000   1.0000   1.0000   1.0000
     1.0000   1.0000   1.0000   1.0000   1.0000   1.0000   1.0000   1.0000
     1.0000   1.0000   1.0000   1.0000   1.0000   1.0000   1.0000   1.0000
     1.0000   1.0000   1.0000   1.0000   1.0000   1.0000   1.0000   1.0000
     1.0000   1.0002   1.0033   1.0048   1.0699   1.0791   0.8037   0.7839
     0.5555   0.5048   0.0204   0.0188   0.0165   0.0061   0.0008   0.0008
     0.0000   0.0000   0.0000   0.0000   0.0000   0.0000   0.0000   0.0000
     0.0000   0.0000   0.0000   0.0000   0.0000   0.0000   0.0000   0.0000
     0.0000   0.0000   0.0000   0.0000   0.0000   0.0000   0.0000   0.0000
     0.0000   0.0000   0.0000   0.0000   0.0000   0.0000   0.0000   0.0000
     0.0000   0.0000   0.0000   0.0000   0.0000   0.0000   0.0000   0.0000
     0.0000   0.0000   0.0000   0.0000   0.0000   0.0000   0.0000   0.0000
     0.0000   0.0000   0.0000   0.0000   0.0000   0.0000   0.0000   0.0000
     0.0000   0.0000   0.0000   0.0000   0.0000   0.0000   0.0000   0.0000
     0.0000   0.0000   0.0000   0.0000   0.0000   0.0000   0.0000   0.0000
     0.0000   0.0000   0.0000   0.0000   0.0000   0.0000   0.0000   0.0000
     0.0000   0.0000   0.0000   0.0000   0.0000   0.0000   0.0000   0.0000
     0.0000   0.0000   0.0000   0.0000   0.0000   0.0000

          k =-0.5000-0.1216-1.1076 ( 71976 PWs)   bands (ev):

  -125.2498-125.2473-125.2462-125.2450-125.2438-125.2434-125.2425-125.2407
  -125.1584-125.1575-125.1553-125.1545-125.1544-125.1525-125.1493-125.1479
  -125.0529-125.0507-125.0467-125.0464-125.0447-125.0445-125.0440-125.0422
  -124.9633-124.9619-124.9612-124.9603-124.9602-124.9583-124.9567-124.9544
  -124.8811-124.8748-124.8741-124.8717-124.8714-124.8693-124.8644-124.8639
  -124.8080-124.7934-124.7858-124.7753-124.7749-124.7744-124.7710-124.7690
   -79.4135 -79.4101 -79.4012 -79.4007 -79.4003 -79.3990 -79.3989 -79.3975
   -79.3975 -79.3962 -79.3961 -79.3959 -79.3951 -79.3948 -79.3948 -79.3936
   -79.3927 -79.3915 -79.3913 -79.3905 -79.3894 -79.3882 -79.3878 -79.3849
   -79.3249 -79.3202 -79.3138 -79.3121 -79.3113 -79.3107 -79.3087 -79.3083
   -79.3081 -79.3075 -79.3070 -79.3062 -79.3028 -79.3023 -79.3020 -79.3010
   -79.3000 -79.2995 -79.2984 -79.2984 -79.2968 -79.2946 -79.2937 -79.2924
   -79.2153 -79.2094 -79.2073 -79.2054 -79.2028 -79.2020 -79.2012 -79.2010
   -79.2008 -79.2002 -79.1998 -79.1990 -79.1988 -79.1983 -79.1970 -79.1967
   -79.1963 -79.1954 -79.1932 -79.1931 -79.1927 -79.1906 -79.1887 -79.1844
   -79.1267 -79.1229 -79.1215 -79.1194 -79.1190 -79.1182 -79.1180 -79.1162
   -79.1147 -79.1142 -79.1142 -79.1140 -79.1129 -79.1121 -79.1121 -79.1111
   -79.1110 -79.1104 -79.1100 -79.1092 -79.1077 -79.1054 -79.1019 -79.0976
   -79.0488 -79.0427 -79.0426 -79.0399 -79.0385 -79.0377 -79.0358 -79.0319
   -79.0308 -79.0302 -79.0286 -79.0226 -79.0218 -79.0216 -79.0201 -79.0194
   -79.0190 -79.0179 -79.0170 -79.0165 -79.0123 -79.0120 -79.0056 -79.0039
   -78.9828 -78.9688 -78.9610 -78.9593 -78.9503 -78.9487 -78.9482 -78.9474
   -78.9441 -78.9431 -78.9430 -78.9363 -78.9303 -78.9266 -78.9256 -78.9255
   -78.9246 -78.9229 -78.9222 -78.9200 -78.9107 -78.9097 -78.9081 -78.8976
   -17.8002 -15.5149 -13.1275 -12.6810  -9.8472  -9.5919  -7.9624  -7.9471
    -7.8025  -7.5474  -6.9729  -6.9719  -6.9708  -6.9639  -6.8810  -6.8793
    -6.8011  -6.7978  -6.7554  -6.7501  -6.7368  -6.7360  -6.7262  -6.7255
    -6.6751  -6.6727  -6.6541  -6.6525  -6.6139  -6.6090  -6.5792  -6.5776
    -6.5771  -6.5765  -6.5646  -6.5639  -6.5554  -6.5497  -6.5269  -6.5265
    -6.5240  -6.5236  -6.5035  -6.5028  -6.4897  -6.4895  -6.4764  -6.4741
    -6.4714  -6.4593  -6.4555  -6.4548  -6.4537  -6.4522  -6.4515  -6.4263
    -6.4260  -6.3975  -6.3971  -6.3905  -6.3876  -6.3736  -6.3730  -6.3604
    -6.3602  -6.3446  -6.3366  -6.3264  -6.3215  -6.2773  -6.2763  -6.2576
    -6.2556  -6.2464  -6.2462  -6.2301  -6.2278  -6.2268  -6.2247  -6.2111
    -6.2104  -6.1977  -6.1931  -6.1924  -6.1918  -6.1682  -6.1679  -6.1663
    -6.1660  -6.1571  -6.1526  -6.1374  -6.1306  -6.1257  -6.1255  -6.1155
    -6.1150  -6.1126  -6.1022  -6.0833  -6.0830  -6.0688  -6.0671  -6.0562
    -6.0560  -6.0413  -6.0358  -6.0318  -6.0312  -6.0309  -6.0304  -6.0292
    -6.0278  -6.0276  -6.0222  -5.9921  -5.9919  -5.9879  -5.9823  -5.9818
    -5.9814  -5.9486  -5.9484  -5.9359  -5.9352  -5.9343  -5.9292  -5.9266
    -5.9263  -5.9162  -5.9160  -5.9061  -5.9057  -5.8887  -5.8883  -5.8833
    -5.8791  -5.8758  -5.8755  -5.8670  -5.8595  -5.8472  -5.8470  -5.8466
    -5.8462  -5.8307  -5.8307  -5.8222  -5.8195  -5.8026  -5.8024  -5.7993
    -5.7991  -5.7911  -5.7908  -5.7839  -5.7837  -5.7820  -5.7818  -5.7789
    -5.7774  -5.7696  -5.7683  -5.7551  -5.7548  -5.7427  -5.7423  -5.7421
    -5.7398  -5.7182  -5.7181  -5.7091  -5.7088  -5.6959  -5.6938  -5.6921
    -5.6910  -5.6867  -5.6864  -5.6813  -5.6806  -5.6724  -5.6718  -5.6674
    -5.6615  -5.6537  -5.6527  -5.6508  -5.6502  -5.6421  -5.6333  -5.6325
    -5.6306  -5.6262  -5.6258  -5.6207  -5.6205  -5.6100  -5.6084  -5.5981
    -5.5979  -5.5945  -5.5914  -5.5839  -5.5838  -5.5769  -5.5761  -5.5747
    -5.5742  -5.5665  -5.5568  -5.5544  -5.5502  -5.5492  -5.5481  -5.5463
    -5.5458  -5.5402  -5.5396  -5.5303  -5.5264  -5.5198  -5.5192  -5.5177
    -5.5156  -5.5151  -5.5116  -5.5090  -5.5087  -5.4950  -5.4942  -5.4920
    -5.4900  -5.4687  -5.4680  -5.4534  -5.4530  -5.4463  -5.4445  -5.4213
    -5.4172  -5.3979  -5.3974  -5.3963  -5.3931  -5.3729  -5.3573  -5.3081
    -5.2936  -5.2718  -5.2703  -5.2376  -5.2339  -5.2194  -5.2083  -5.2004
    -5.1958  -5.1794  -5.1736  -4.8534  -4.4978  -4.4877  -4.3574  -4.2677
    -4.1901  -4.0120  -4.0092  -3.6231  -3.6132  -3.3328  -2.8826  -2.8460
    -2.8227  -2.4484  -2.2310  -2.2222  -2.2080  -2.1493  -2.0547  -2.0511
    -1.8963  -1.8942  -1.4217  -1.3988  -1.1211  -0.8821  -0.8817  -0.7099
    -0.6365  -0.5100  -0.5081  -0.2157  -0.2009  -0.0989  -0.0891   0.0494
     0.0778   0.2897   0.5662   0.5697   0.5812   0.6370   0.9304   0.9375
     0.9484   0.9727   1.0562   1.0917   1.4062   1.4109   1.9181   1.9279
     2.4498   2.4969   2.6087   2.6157   2.7981   2.8050   2.8217   2.8381
     3.0274   3.0408   3.5028   3.5177   3.5319   3.5790   3.5942   3.6445
     3.7219   3.7356   3.8817   3.9229   4.0077   4.0742   4.1697   4.3317
     4.3853   4.4908   4.7512   4.7857   4.8784   4.8940   4.9472   5.0404
     5.0720   5.1135   5.3877   5.3907   5.4896   5.5290   5.5541   5.5648
     5.6089   5.6331   5.7160   5.7456   5.8922   5.8983   5.9198   5.9267
     6.0044   6.0332   6.1031   6.1245   6.1794   6.2118   6.2668   6.3433
     6.5221   6.5623   6.6162   6.6546   6.6736   6.6913   6.8402   6.8817
     7.0200   7.0674   7.0727   7.1172   7.2451   7.2705   7.2953   7.3513
     7.4277   7.4421   7.4449   7.4946   7.5191   7.5326   7.6632   7.7457
     7.7901   7.8163   7.8570   7.8590   7.9000   7.9105   7.9207   7.9490
     7.9775   7.9903   8.0648   8.1182   8.1786   8.2041

     occupation numbers 
     1.0000   1.0000   1.0000   1.0000   1.0000   1.0000   1.0000   1.0000
     1.0000   1.0000   1.0000   1.0000   1.0000   1.0000   1.0000   1.0000
     1.0000   1.0000   1.0000   1.0000   1.0000   1.0000   1.0000   1.0000
     1.0000   1.0000   1.0000   1.0000   1.0000   1.0000   1.0000   1.0000
     1.0000   1.0000   1.0000   1.0000   1.0000   1.0000   1.0000   1.0000
     1.0000   1.0000   1.0000   1.0000   1.0000   1.0000   1.0000   1.0000
     1.0000   1.0000   1.0000   1.0000   1.0000   1.0000   1.0000   1.0000
     1.0000   1.0000   1.0000   1.0000   1.0000   1.0000   1.0000   1.0000
     1.0000   1.0000   1.0000   1.0000   1.0000   1.0000   1.0000   1.0000
     1.0000   1.0000   1.0000   1.0000   1.0000   1.0000   1.0000   1.0000
     1.0000   1.0000   1.0000   1.0000   1.0000   1.0000   1.0000   1.0000
     1.0000   1.0000   1.0000   1.0000   1.0000   1.0000   1.0000   1.0000
     1.0000   1.0000   1.0000   1.0000   1.0000   1.0000   1.0000   1.0000
     1.0000   1.0000   1.0000   1.0000   1.0000   1.0000   1.0000   1.0000
     1.0000   1.0000   1.0000   1.0000   1.0000   1.0000   1.0000   1.0000
     1.0000   1.0000   1.0000   1.0000   1.0000   1.0000   1.0000   1.0000
     1.0000   1.0000   1.0000   1.0000   1.0000   1.0000   1.0000   1.0000
     1.0000   1.0000   1.0000   1.0000   1.0000   1.0000   1.0000   1.0000
     1.0000   1.0000   1.0000   1.0000   1.0000   1.0000   1.0000   1.0000
     1.0000   1.0000   1.0000   1.0000   1.0000   1.0000   1.0000   1.0000
     1.0000   1.0000   1.0000   1.0000   1.0000   1.0000   1.0000   1.0000
     1.0000   1.0000   1.0000   1.0000   1.0000   1.0000   1.0000   1.0000
     1.0000   1.0000   1.0000   1.0000   1.0000   1.0000   1.0000   1.0000
     1.0000   1.0000   1.0000   1.0000   1.0000   1.0000   1.0000   1.0000
     1.0000   1.0000   1.0000   1.0000   1.0000   1.0000   1.0000   1.0000
     1.0000   1.0000   1.0000   1.0000   1.0000   1.0000   1.0000   1.0000
     1.0000   1.0000   1.0000   1.0000   1.0000   1.0000   1.0000   1.0000
     1.0000   1.0000   1.0000   1.0000   1.0000   1.0000   1.0000   1.0000
     1.0000   1.0000   1.0000   1.0000   1.0000   1.0000   1.0000   1.0000
     1.0000   1.0000   1.0000   1.0000   1.0000   1.0000   1.0000   1.0000
     1.0000   1.0000   1.0000   1.0000   1.0000   1.0000   1.0000   1.0000
     1.0000   1.0000   1.0000   1.0000   1.0000   1.0000   1.0000   1.0000
     1.0000   1.0000   1.0000   1.0000   1.0000   1.0000   1.0000   1.0000
     1.0000   1.0000   1.0000   1.0000   1.0000   1.0000   1.0000   1.0000
     1.0000   1.0000   1.0000   1.0000   1.0000   1.0000   1.0000   1.0000
     1.0000   1.0000   1.0000   1.0000   1.0000   1.0000   1.0000   1.0000
     1.0000   1.0000   1.0000   1.0000   1.0000   1.0000   1.0000   1.0000
     1.0000   1.0000   1.0000   1.0000   1.0000   1.0000   1.0000   1.0000
     1.0000   1.0000   1.0000   1.0000   1.0000   1.0000   1.0000   1.0000
     1.0000   1.0000   1.0000   1.0000   1.0000   1.0000   1.0000   1.0000
     1.0000   1.0000   1.0000   1.0000   1.0000   1.0000   1.0000   1.0000
     1.0000   1.0000   1.0000   1.0000   1.0000   1.0000   1.0000   1.0000
     1.0000   1.0000   1.0000   1.0000   1.0000   1.0000   1.0000   1.0000
     1.0000   1.0000   1.0000   1.0000   1.0000   1.0000   1.0000   1.0000
     1.0000   1.0000   1.0000   1.0000   1.0000   1.0000   1.0000   1.0000
     1.0000   1.0000   1.0000   1.0000   1.0000   1.0000   1.0000   1.0000
     1.0000   1.0000   1.0000   1.0000   1.0000   1.0000   1.0000   1.0000
     1.0000   1.0000   1.0000   1.0000   1.0000   1.0000   1.0000   1.0000
     1.0000   1.0000   1.0000   1.0000   1.0000   1.0000   1.0000   1.0000
     1.0000   1.0000   1.0000   1.0000   1.0000   1.0000   1.0000   1.0000
     1.0000   1.0000   1.0000   1.0000   1.0000   1.0000   1.0000   1.0000
     1.0000   1.0000   1.0000   1.0000   1.0000   1.0000   1.0000   1.0000
     1.0000   1.0000   1.0000   1.0000   1.0000   1.0000   1.0000   1.0000
     1.0000   1.0000   1.0000   1.0000   1.0000   1.0000   1.0000   1.0000
     1.0000   1.0000   1.0000   1.0000   1.0000   1.0000   1.0000   1.0000
     1.0000   1.0000   1.0000   1.0000   1.0000   1.0000   1.0000   1.0000
     1.0000   1.0000   1.0000   1.0000   1.0000   1.0000   1.0000   1.0000
     1.0000   1.0000   1.0000   1.0000   1.0000   1.0000   1.0000   1.0000
     1.0000   1.0000   1.0000   1.0000   1.0000   1.0000   1.0000   1.0000
     1.0000   1.0000   1.0000   1.0000   1.0000   1.0000   1.0000   1.0000
     1.0000   1.0000   1.0000   1.0000   1.0000   1.0000   1.0000   1.0000
     1.0000   1.0001   1.0118   1.0123   1.0141   1.0254   1.0576   1.0523
     1.0428   1.0169   0.8727   0.7886   0.0976   0.0930   0.0000   0.0000
     0.0000   0.0000   0.0000   0.0000   0.0000   0.0000   0.0000   0.0000
     0.0000   0.0000   0.0000   0.0000   0.0000   0.0000   0.0000   0.0000
     0.0000   0.0000   0.0000   0.0000   0.0000   0.0000   0.0000   0.0000
     0.0000   0.0000   0.0000   0.0000   0.0000   0.0000   0.0000   0.0000
     0.0000   0.0000   0.0000   0.0000   0.0000   0.0000   0.0000   0.0000
     0.0000   0.0000   0.0000   0.0000   0.0000   0.0000   0.0000   0.0000
     0.0000   0.0000   0.0000   0.0000   0.0000   0.0000   0.0000   0.0000
     0.0000   0.0000   0.0000   0.0000   0.0000   0.0000   0.0000   0.0000
     0.0000   0.0000   0.0000   0.0000   0.0000   0.0000   0.0000   0.0000
     0.0000   0.0000   0.0000   0.0000   0.0000   0.0000   0.0000   0.0000
     0.0000   0.0000   0.0000   0.0000   0.0000   0.0000   0.0000   0.0000
     0.0000   0.0000   0.0000   0.0000   0.0000   0.0000

          k =-0.5000-0.6659-1.3845 ( 72036 PWs)   bands (ev):

  -125.2498-125.2474-125.2462-125.2449-125.2438-125.2434-125.2425-125.2407
  -125.1584-125.1575-125.1553-125.1546-125.1544-125.1525-125.1493-125.1480
  -125.0529-125.0507-125.0467-125.0464-125.0447-125.0445-125.0440-125.0422
  -124.9633-124.9620-124.9611-124.9603-124.9602-124.9584-124.9567-124.9544
  -124.8811-124.8748-124.8741-124.8717-124.8714-124.8693-124.8644-124.8639
  -124.8080-124.7934-124.7858-124.7753-124.7749-124.7744-124.7710-124.7690
   -79.4112 -79.4079 -79.4074 -79.4054 -79.4008 -79.3992 -79.3976 -79.3975
   -79.3961 -79.3960 -79.3951 -79.3949 -79.3948 -79.3937 -79.3932 -79.3926
   -79.3915 -79.3913 -79.3906 -79.3901 -79.3895 -79.3891 -79.3882 -79.3877
   -79.3216 -79.3210 -79.3181 -79.3145 -79.3122 -79.3109 -79.3086 -79.3084
   -79.3077 -79.3062 -79.3040 -79.3033 -79.3027 -79.3023 -79.3020 -79.3011
   -79.3002 -79.2995 -79.2984 -79.2983 -79.2970 -79.2966 -79.2937 -79.2924
   -79.2136 -79.2086 -79.2073 -79.2069 -79.2054 -79.2044 -79.2019 -79.2010
   -79.2008 -79.2003 -79.1997 -79.1990 -79.1988 -79.1983 -79.1963 -79.1954
   -79.1953 -79.1932 -79.1932 -79.1927 -79.1906 -79.1905 -79.1892 -79.1870
   -79.1237 -79.1225 -79.1214 -79.1205 -79.1195 -79.1188 -79.1182 -79.1181
   -79.1176 -79.1162 -79.1142 -79.1141 -79.1131 -79.1121 -79.1120 -79.1111
   -79.1110 -79.1092 -79.1077 -79.1061 -79.1055 -79.1050 -79.1029 -79.0999
   -79.0488 -79.0427 -79.0426 -79.0399 -79.0385 -79.0377 -79.0347 -79.0319
   -79.0308 -79.0286 -79.0283 -79.0264 -79.0240 -79.0224 -79.0218 -79.0194
   -79.0190 -79.0170 -79.0155 -79.0123 -79.0120 -79.0105 -79.0066 -79.0056
   -78.9828 -78.9688 -78.9610 -78.9593 -78.9500 -78.9487 -78.9482 -78.9474
   -78.9441 -78.9431 -78.9430 -78.9363 -78.9321 -78.9266 -78.9256 -78.9255
   -78.9227 -78.9222 -78.9206 -78.9200 -78.9175 -78.9085 -78.9029 -78.8999
   -17.8002 -15.5149 -13.1275 -12.6808  -9.8472  -9.5924  -7.8067  -7.7343
    -7.7316  -7.5478  -7.4712  -7.4680  -6.7982  -6.7969  -6.7823  -6.7800
    -6.7517  -6.7510  -6.7351  -6.7342  -6.7324  -6.7317  -6.7217  -6.7209
    -6.6951  -6.6932  -6.6785  -6.6760  -6.6475  -6.6463  -6.6115  -6.6106
    -6.6048  -6.6043  -6.6021  -6.5999  -6.5601  -6.5589  -6.5512  -6.5498
    -6.5430  -6.5415  -6.5402  -6.5379  -6.5373  -6.5350  -6.5187  -6.5178
    -6.4731  -6.4603  -6.4592  -6.4510  -6.4497  -6.4323  -6.4308  -6.4265
    -6.4250  -6.3687  -6.3671  -6.3666  -6.3661  -6.3582  -6.3564  -6.3146
    -6.3143  -6.3139  -6.3129  -6.3081  -6.3066  -6.3028  -6.3014  -6.2795
    -6.2787  -6.2556  -6.2549  -6.2527  -6.2518  -6.2312  -6.2306  -6.2250
    -6.2236  -6.2147  -6.2141  -6.2134  -6.2117  -6.1691  -6.1687  -6.1685
    -6.1671  -6.1661  -6.1642  -6.1604  -6.1588  -6.1427  -6.1415  -6.1355
    -6.1333  -6.1146  -6.1124  -6.1009  -6.0982  -6.0886  -6.0879  -6.0863
    -6.0845  -6.0496  -6.0479  -6.0370  -6.0324  -6.0314  -6.0290  -6.0263
    -6.0257  -6.0256  -6.0253  -6.0146  -6.0124  -5.9911  -5.9894  -5.9820
    -5.9818  -5.9640  -5.9631  -5.9620  -5.9608  -5.9440  -5.9437  -5.9314
    -5.9294  -5.9280  -5.9273  -5.9188  -5.9179  -5.9133  -5.9130  -5.9032
    -5.9029  -5.8826  -5.8816  -5.8812  -5.8802  -5.8669  -5.8655  -5.8445
    -5.8435  -5.8310  -5.8305  -5.8121  -5.8114  -5.8096  -5.8090  -5.7959
    -5.7948  -5.7856  -5.7840  -5.7595  -5.7590  -5.7562  -5.7541  -5.7509
    -5.7493  -5.7328  -5.7318  -5.7295  -5.7284  -5.7269  -5.7260  -5.7144
    -5.7138  -5.7110  -5.7097  -5.7033  -5.7030  -5.6911  -5.6906  -5.6790
    -5.6780  -5.6689  -5.6676  -5.6660  -5.6647  -5.6640  -5.6630  -5.6479
    -5.6440  -5.6374  -5.6370  -5.6209  -5.6203  -5.6192  -5.6182  -5.6151
    -5.6137  -5.6126  -5.6110  -5.5974  -5.5939  -5.5929  -5.5910  -5.5803
    -5.5783  -5.5754  -5.5725  -5.5718  -5.5696  -5.5683  -5.5662  -5.5626
    -5.5623  -5.5579  -5.5576  -5.5524  -5.5518  -5.5504  -5.5497  -5.5373
    -5.5359  -5.5294  -5.5264  -5.5234  -5.5207  -5.5111  -5.5093  -5.5069
    -5.5038  -5.5009  -5.4985  -5.4918  -5.4897  -5.4751  -5.4746  -5.4738
    -5.4733  -5.4642  -5.4612  -5.4504  -5.4497  -5.4486  -5.4392  -5.4325
    -5.4317  -5.4143  -5.4110  -5.4000  -5.3924  -5.3831  -5.3823  -5.3761
    -5.3723  -5.3693  -5.3617  -5.3160  -5.3124  -5.2279  -5.2261  -4.9966
    -4.9853  -4.8723  -4.7583  -4.7213  -4.5296  -4.5269  -4.3557  -4.3523
    -4.2473  -3.6335  -3.6331  -3.5018  -3.5006  -3.3354  -2.9015  -2.8537
    -2.8225  -2.7495  -2.7439  -2.6724  -2.6409  -2.4933  -2.3324  -2.2350
    -1.8438  -1.7994  -1.6888  -1.6814  -1.6107  -1.5973  -1.0198  -0.8952
    -0.8795   0.0259   0.1023   0.1608   0.1659   0.1782   0.1968   0.2101
     0.2345   0.3960   0.9190   0.9329   1.0005   1.0109   1.1273   1.1557
     1.2850   1.3138   1.3142   1.3327   1.3677   1.3720   1.9539   1.9544
     2.0991   2.1109   2.4495   2.4646   2.4725   2.4739   2.6588   2.6609
     3.2767   3.2786   3.3265   3.3296   3.4542   3.5054   3.5983   3.6022
     3.9445   3.9746   4.0304   4.0652   4.0848   4.1029   4.1340   4.3048
     4.3427   4.3744   4.4225   4.4798   4.5849   4.5940   4.6705   4.7117
     4.8715   4.8992   5.0941   5.2695   5.2882   5.3091   5.3780   5.3995
     5.4986   5.6610   5.7071   5.7222   5.8802   5.9166   5.9805   6.0398
     6.0418   6.0465   6.1683   6.1744   6.2431   6.2922   6.3251   6.3610
     6.4625   6.4845   6.4970   6.5570   6.6904   6.7701   6.8085   6.8957
     6.9619   6.9868   7.0828   7.1964   7.2145   7.2431   7.2612   7.3489
     7.4210   7.4734   7.5200   7.5237   7.5463   7.6387   7.7105   7.7757
     7.8021   7.8485   7.9213   7.9643   7.9950   8.0161   8.0276   8.0676
     8.1348   8.2033   8.2365   8.2779   8.2913   8.3233

     occupation numbers 
     1.0000   1.0000   1.0000   1.0000   1.0000   1.0000   1.0000   1.0000
     1.0000   1.0000   1.0000   1.0000   1.0000   1.0000   1.0000   1.0000
     1.0000   1.0000   1.0000   1.0000   1.0000   1.0000   1.0000   1.0000
     1.0000   1.0000   1.0000   1.0000   1.0000   1.0000   1.0000   1.0000
     1.0000   1.0000   1.0000   1.0000   1.0000   1.0000   1.0000   1.0000
     1.0000   1.0000   1.0000   1.0000   1.0000   1.0000   1.0000   1.0000
     1.0000   1.0000   1.0000   1.0000   1.0000   1.0000   1.0000   1.0000
     1.0000   1.0000   1.0000   1.0000   1.0000   1.0000   1.0000   1.0000
     1.0000   1.0000   1.0000   1.0000   1.0000   1.0000   1.0000   1.0000
     1.0000   1.0000   1.0000   1.0000   1.0000   1.0000   1.0000   1.0000
     1.0000   1.0000   1.0000   1.0000   1.0000   1.0000   1.0000   1.0000
     1.0000   1.0000   1.0000   1.0000   1.0000   1.0000   1.0000   1.0000
     1.0000   1.0000   1.0000   1.0000   1.0000   1.0000   1.0000   1.0000
     1.0000   1.0000   1.0000   1.0000   1.0000   1.0000   1.0000   1.0000
     1.0000   1.0000   1.0000   1.0000   1.0000   1.0000   1.0000   1.0000
     1.0000   1.0000   1.0000   1.0000   1.0000   1.0000   1.0000   1.0000
     1.0000   1.0000   1.0000   1.0000   1.0000   1.0000   1.0000   1.0000
     1.0000   1.0000   1.0000   1.0000   1.0000   1.0000   1.0000   1.0000
     1.0000   1.0000   1.0000   1.0000   1.0000   1.0000   1.0000   1.0000
     1.0000   1.0000   1.0000   1.0000   1.0000   1.0000   1.0000   1.0000
     1.0000   1.0000   1.0000   1.0000   1.0000   1.0000   1.0000   1.0000
     1.0000   1.0000   1.0000   1.0000   1.0000   1.0000   1.0000   1.0000
     1.0000   1.0000   1.0000   1.0000   1.0000   1.0000   1.0000   1.0000
     1.0000   1.0000   1.0000   1.0000   1.0000   1.0000   1.0000   1.0000
     1.0000   1.0000   1.0000   1.0000   1.0000   1.0000   1.0000   1.0000
     1.0000   1.0000   1.0000   1.0000   1.0000   1.0000   1.0000   1.0000
     1.0000   1.0000   1.0000   1.0000   1.0000   1.0000   1.0000   1.0000
     1.0000   1.0000   1.0000   1.0000   1.0000   1.0000   1.0000   1.0000
     1.0000   1.0000   1.0000   1.0000   1.0000   1.0000   1.0000   1.0000
     1.0000   1.0000   1.0000   1.0000   1.0000   1.0000   1.0000   1.0000
     1.0000   1.0000   1.0000   1.0000   1.0000   1.0000   1.0000   1.0000
     1.0000   1.0000   1.0000   1.0000   1.0000   1.0000   1.0000   1.0000
     1.0000   1.0000   1.0000   1.0000   1.0000   1.0000   1.0000   1.0000
     1.0000   1.0000   1.0000   1.0000   1.0000   1.0000   1.0000   1.0000
     1.0000   1.0000   1.0000   1.0000   1.0000   1.0000   1.0000   1.0000
     1.0000   1.0000   1.0000   1.0000   1.0000   1.0000   1.0000   1.0000
     1.0000   1.0000   1.0000   1.0000   1.0000   1.0000   1.0000   1.0000
     1.0000   1.0000   1.0000   1.0000   1.0000   1.0000   1.0000   1.0000
     1.0000   1.0000   1.0000   1.0000   1.0000   1.0000   1.0000   1.0000
     1.0000   1.0000   1.0000   1.0000   1.0000   1.0000   1.0000   1.0000
     1.0000   1.0000   1.0000   1.0000   1.0000   1.0000   1.0000   1.0000
     1.0000   1.0000   1.0000   1.0000   1.0000   1.0000   1.0000   1.0000
     1.0000   1.0000   1.0000   1.0000   1.0000   1.0000   1.0000   1.0000
     1.0000   1.0000   1.0000   1.0000   1.0000   1.0000   1.0000   1.0000
     1.0000   1.0000   1.0000   1.0000   1.0000   1.0000   1.0000   1.0000
     1.0000   1.0000   1.0000   1.0000   1.0000   1.0000   1.0000   1.0000
     1.0000   1.0000   1.0000   1.0000   1.0000   1.0000   1.0000   1.0000
     1.0000   1.0000   1.0000   1.0000   1.0000   1.0000   1.0000   1.0000
     1.0000   1.0000   1.0000   1.0000   1.0000   1.0000   1.0000   1.0000
     1.0000   1.0000   1.0000   1.0000   1.0000   1.0000   1.0000   1.0000
     1.0000   1.0000   1.0000   1.0000   1.0000   1.0000   1.0000   1.0000
     1.0000   1.0000   1.0000   1.0000   1.0000   1.0000   1.0000   1.0000
     1.0000   1.0000   1.0000   1.0000   1.0000   1.0000   1.0000   1.0000
     1.0000   1.0000   1.0000   1.0000   1.0000   1.0000   1.0000   1.0000
     1.0000   1.0000   1.0000   1.0000   1.0000   1.0000   1.0000   1.0000
     1.0000   1.0000   1.0000   1.0000   1.0000   1.0000   1.0000   1.0000
     1.0000   1.0000   1.0000   1.0000   1.0000   1.0000   1.0000   1.0000
     1.0000   1.0000   1.0000   1.0000   1.0000   1.0000   1.0000   1.0000
[...]
    -5.6487  -5.6401  -5.6382  -5.6309  -5.6290  -5.6267  -5.6220  -5.6186
    -5.6153  -5.6135  -5.6088  -5.6004  -5.5992  -5.5979  -5.5946  -5.5910
    -5.5862  -5.5842  -5.5817  -5.5769  -5.5657  -5.5632  -5.5619  -5.5609
    -5.5578  -5.5564  -5.5536  -5.5520  -5.5417  -5.5364  -5.5354  -5.5350
    -5.5324  -5.5301  -5.5293  -5.5248  -5.5086  -5.5068  -5.5057  -5.4916
    -5.4868  -5.4865  -5.4840  -5.4741  -5.4736  -5.4618  -5.4588  -5.4345
    -5.4298  -5.4298  -5.4259  -5.4226  -5.4090  -5.4009  -5.3898  -5.3701
    -5.3509  -5.3414  -5.3280  -5.3250  -5.2788  -5.2692  -5.2219  -5.2138
    -5.1558  -5.1469  -5.0877  -4.9570  -4.4955  -4.4423  -4.3630  -4.2952
    -4.2540  -3.9370  -3.9305  -3.6857  -3.6660  -3.4266  -2.9758  -2.9541
    -2.9073  -2.6342  -2.5324  -2.3512  -2.3329  -1.9327  -1.9284  -1.8725
    -1.7884  -1.7871  -1.4887  -1.4702  -1.2157  -0.8700  -0.8248  -0.7304
    -0.7224  -0.4493  -0.4081  -0.3643  -0.1833  -0.0671  -0.0558   0.0134
     0.0516   0.1400   0.2965   0.6604   0.6708   0.7494   0.7751   0.7975
     0.8211   0.9843   1.0444   1.2869   1.3200   1.3491   1.8392   1.8617
     2.4185   2.4364   2.5092   2.5456   2.5537   2.6115   2.7966   2.9006
     2.9415   2.9848   3.2304   3.3666   3.5245   3.6308   3.6723   3.7384
     3.7650   3.8433   3.9365   3.9798   4.0839   4.1106   4.1329   4.1805
     4.2759   4.3553   4.5025   4.6342   4.8779   4.9091   4.9931   5.0234
     5.0841   5.1774   5.3696   5.3873   5.4238   5.4634   5.4767   5.5182
     5.5363   5.5716   5.6512   5.7560   5.8399   5.8797   5.8982   5.9406
     6.1379   6.1449   6.1764   6.2096   6.2272   6.2713   6.3363   6.3621
     6.3908   6.4242   6.5768   6.6466   6.7173   6.7768   6.8151   6.9192
     6.9943   7.0475   7.1070   7.1329   7.1474   7.1731   7.1922   7.4064
     7.4300   7.4808   7.4992   7.5224   7.5483   7.5741   7.6100   7.6679
     7.6874   7.7633   7.8250   7.8317   7.8513   7.8982   7.9314   7.9724
     8.0004   8.0551   8.0893   8.1114   8.1361   8.2131

     occupation numbers 
     1.0000   1.0000   1.0000   1.0000   1.0000   1.0000   1.0000   1.0000
     1.0000   1.0000   1.0000   1.0000   1.0000   1.0000   1.0000   1.0000
     1.0000   1.0000   1.0000   1.0000   1.0000   1.0000   1.0000   1.0000
     1.0000   1.0000   1.0000   1.0000   1.0000   1.0000   1.0000   1.0000
     1.0000   1.0000   1.0000   1.0000   1.0000   1.0000   1.0000   1.0000
     1.0000   1.0000   1.0000   1.0000   1.0000   1.0000   1.0000   1.0000
     1.0000   1.0000   1.0000   1.0000   1.0000   1.0000   1.0000   1.0000
     1.0000   1.0000   1.0000   1.0000   1.0000   1.0000   1.0000   1.0000
     1.0000   1.0000   1.0000   1.0000   1.0000   1.0000   1.0000   1.0000
     1.0000   1.0000   1.0000   1.0000   1.0000   1.0000   1.0000   1.0000
     1.0000   1.0000   1.0000   1.0000   1.0000   1.0000   1.0000   1.0000
     1.0000   1.0000   1.0000   1.0000   1.0000   1.0000   1.0000   1.0000
     1.0000   1.0000   1.0000   1.0000   1.0000   1.0000   1.0000   1.0000
     1.0000   1.0000   1.0000   1.0000   1.0000   1.0000   1.0000   1.0000
     1.0000   1.0000   1.0000   1.0000   1.0000   1.0000   1.0000   1.0000
     1.0000   1.0000   1.0000   1.0000   1.0000   1.0000   1.0000   1.0000
     1.0000   1.0000   1.0000   1.0000   1.0000   1.0000   1.0000   1.0000
     1.0000   1.0000   1.0000   1.0000   1.0000   1.0000   1.0000   1.0000
     1.0000   1.0000   1.0000   1.0000   1.0000   1.0000   1.0000   1.0000
     1.0000   1.0000   1.0000   1.0000   1.0000   1.0000   1.0000   1.0000
     1.0000   1.0000   1.0000   1.0000   1.0000   1.0000   1.0000   1.0000
     1.0000   1.0000   1.0000   1.0000   1.0000   1.0000   1.0000   1.0000
     1.0000   1.0000   1.0000   1.0000   1.0000   1.0000   1.0000   1.0000
     1.0000   1.0000   1.0000   1.0000   1.0000   1.0000   1.0000   1.0000
     1.0000   1.0000   1.0000   1.0000   1.0000   1.0000   1.0000   1.0000
     1.0000   1.0000   1.0000   1.0000   1.0000   1.0000   1.0000   1.0000
     1.0000   1.0000   1.0000   1.0000   1.0000   1.0000   1.0000   1.0000
     1.0000   1.0000   1.0000   1.0000   1.0000   1.0000   1.0000   1.0000
     1.0000   1.0000   1.0000   1.0000   1.0000   1.0000   1.0000   1.0000
     1.0000   1.0000   1.0000   1.0000   1.0000   1.0000   1.0000   1.0000
     1.0000   1.0000   1.0000   1.0000   1.0000   1.0000   1.0000   1.0000
     1.0000   1.0000   1.0000   1.0000   1.0000   1.0000   1.0000   1.0000
     1.0000   1.0000   1.0000   1.0000   1.0000   1.0000   1.0000   1.0000
     1.0000   1.0000   1.0000   1.0000   1.0000   1.0000   1.0000   1.0000
     1.0000   1.0000   1.0000   1.0000   1.0000   1.0000   1.0000   1.0000
     1.0000   1.0000   1.0000   1.0000   1.0000   1.0000   1.0000   1.0000
     1.0000   1.0000   1.0000   1.0000   1.0000   1.0000   1.0000   1.0000
     1.0000   1.0000   1.0000   1.0000   1.0000   1.0000   1.0000   1.0000
     1.0000   1.0000   1.0000   1.0000   1.0000   1.0000   1.0000   1.0000
     1.0000   1.0000   1.0000   1.0000   1.0000   1.0000   1.0000   1.0000
     1.0000   1.0000   1.0000   1.0000   1.0000   1.0000   1.0000   1.0000
     1.0000   1.0000   1.0000   1.0000   1.0000   1.0000   1.0000   1.0000
     1.0000   1.0000   1.0000   1.0000   1.0000   1.0000   1.0000   1.0000
     1.0000   1.0000   1.0000   1.0000   1.0000   1.0000   1.0000   1.0000
     1.0000   1.0000   1.0000   1.0000   1.0000   1.0000   1.0000   1.0000
     1.0000   1.0000   1.0000   1.0000   1.0000   1.0000   1.0000   1.0000
     1.0000   1.0000   1.0000   1.0000   1.0000   1.0000   1.0000   1.0000
     1.0000   1.0000   1.0000   1.0000   1.0000   1.0000   1.0000   1.0000
     1.0000   1.0000   1.0000   1.0000   1.0000   1.0000   1.0000   1.0000
     1.0000   1.0000   1.0000   1.0000   1.0000   1.0000   1.0000   1.0000
     1.0000   1.0000   1.0000   1.0000   1.0000   1.0000   1.0000   1.0000
     1.0000   1.0000   1.0000   1.0000   1.0000   1.0000   1.0000   1.0000
     1.0000   1.0000   1.0000   1.0000   1.0000   1.0000   1.0000   1.0000
     1.0000   1.0000   1.0000   1.0000   1.0000   1.0000   1.0000   1.0000
     1.0000   1.0000   1.0000   1.0000   1.0000   1.0000   1.0000   1.0000
     1.0000   1.0000   1.0000   1.0000   1.0000   1.0000   1.0000   1.0000
     1.0000   1.0000   1.0000   1.0000   1.0000   1.0000   1.0000   1.0000
     1.0000   1.0000   1.0000   1.0000   1.0000   1.0000   1.0000   1.0000
     1.0000   1.0000   1.0000   1.0000   1.0000   1.0000   1.0000   1.0000
     1.0000   1.0000   1.0000   1.0000   1.0000   1.0000   1.0000   1.0000
     1.0000   1.0000   1.0000   1.0000   1.0000   1.0000   1.0000   1.0000
     1.0000   1.0000   1.0001   1.0270   1.0298   1.0548   1.0636   1.0708
     1.0771   1.0234   0.9319   0.3204   0.2503   0.1972   0.0001   0.0001
     0.0000   0.0000   0.0000   0.0000   0.0000   0.0000   0.0000   0.0000
     0.0000   0.0000   0.0000   0.0000   0.0000   0.0000   0.0000   0.0000
     0.0000   0.0000   0.0000   0.0000   0.0000   0.0000   0.0000   0.0000
     0.0000   0.0000   0.0000   0.0000   0.0000   0.0000   0.0000   0.0000
     0.0000   0.0000   0.0000   0.0000   0.0000   0.0000   0.0000   0.0000
     0.0000   0.0000   0.0000   0.0000   0.0000   0.0000   0.0000   0.0000
     0.0000   0.0000   0.0000   0.0000   0.0000   0.0000   0.0000   0.0000
     0.0000   0.0000   0.0000   0.0000   0.0000   0.0000   0.0000   0.0000
     0.0000   0.0000   0.0000   0.0000   0.0000   0.0000   0.0000   0.0000
     0.0000   0.0000   0.0000   0.0000   0.0000   0.0000   0.0000   0.0000
     0.0000   0.0000   0.0000   0.0000   0.0000   0.0000   0.0000   0.0000
     0.0000   0.0000   0.0000   0.0000   0.0000   0.0000

          k =-0.5000-0.6659-1.3845 ( 72036 PWs)   bands (ev):

  -125.2054-125.2004-125.1837-125.1829-125.1819-125.1777-125.1759-125.1734
  -125.1299-125.1290-125.1226-125.1201-125.0748-125.0644-125.0586-125.0560
  -125.0464-125.0385-125.0321-125.0288-125.0266-125.0232-125.0224-125.0029
  -125.0021-125.0011-124.9993-124.9989-124.9701-124.9671-124.9531-124.9381
  -124.9372-124.9362-124.9219-124.9167-124.9114-124.9034-124.9026-124.9014
  -124.8651-124.8614-124.8608-124.8571-124.8531-124.8479-124.8399-124.8386
   -79.3640 -79.3611 -79.3579 -79.3538 -79.3492 -79.3440 -79.3439 -79.3405
   -79.3402 -79.3398 -79.3390 -79.3377 -79.3359 -79.3346 -79.3299 -79.3297
   -79.3277 -79.3272 -79.3265 -79.3244 -79.3229 -79.3208 -79.3191 -79.3174
   -79.2927 -79.2868 -79.2838 -79.2827 -79.2765 -79.2759 -79.2754 -79.2739
   -79.2734 -79.2705 -79.2681 -79.2662 -79.2312 -79.2288 -79.2265 -79.2211
   -79.2187 -79.2147 -79.2125 -79.2091 -79.2078 -79.2066 -79.2053 -79.2042
   -79.2004 -79.1986 -79.1968 -79.1935 -79.1930 -79.1919 -79.1893 -79.1879
   -79.1840 -79.1832 -79.1822 -79.1819 -79.1796 -79.1780 -79.1777 -79.1740
   -79.1732 -79.1728 -79.1704 -79.1701 -79.1680 -79.1635 -79.1621 -79.1616
   -79.1608 -79.1598 -79.1588 -79.1583 -79.1524 -79.1515 -79.1504 -79.1493
   -79.1482 -79.1460 -79.1458 -79.1445 -79.1442 -79.1411 -79.1291 -79.1160
   -79.1128 -79.1115 -79.1110 -79.1053 -79.1045 -79.1029 -79.0971 -79.0964
   -79.0905 -79.0884 -79.0870 -79.0840 -79.0830 -79.0819 -79.0806 -79.0738
   -79.0734 -79.0733 -79.0702 -79.0678 -79.0649 -79.0646 -79.0644 -79.0640
   -79.0631 -79.0627 -79.0589 -79.0525 -79.0519 -79.0500 -79.0497 -79.0462
   -79.0367 -79.0329 -79.0319 -79.0284 -79.0150 -79.0150 -79.0135 -79.0113
   -79.0099 -79.0098 -79.0094 -79.0068 -79.0058 -79.0033 -79.0021 -79.0016
   -79.0014 -78.9968 -78.9942 -78.9937 -78.9930 -78.9918 -78.9816 -78.9745
   -17.8389 -15.6290 -13.2486 -12.7380  -9.9067  -9.6036  -7.8368  -7.6248
    -7.6015  -7.3177  -7.3062  -7.2876  -6.7662  -6.7555  -6.6947  -6.6856
    -6.6824  -6.6674  -6.6627  -6.6587  -6.6563  -6.6535  -6.6504  -6.6445
    -6.6281  -6.6215  -6.6064  -6.6043  -6.5955  -6.5935  -6.5846  -6.5808
    -6.5762  -6.5587  -6.5486  -6.5455  -6.5417  -6.5376  -6.5334  -6.5300
    -6.5255  -6.5216  -6.5042  -6.4939  -6.4868  -6.4683  -6.4579  -6.4565
    -6.4541  -6.4439  -6.4385  -6.4187  -6.4063  -6.3958  -6.3929  -6.3916
    -6.3835  -6.3832  -6.3755  -6.3630  -6.3580  -6.3518  -6.3489  -6.3431
    -6.3411  -6.3321  -6.3191  -6.3098  -6.3051  -6.2979  -6.2884  -6.2717
    -6.2645  -6.2533  -6.2503  -6.2373  -6.2310  -6.2228  -6.2185  -6.2130
    -6.2069  -6.2036  -6.1962  -6.1936  -6.1925  -6.1896  -6.1848  -6.1690
    -6.1617  -6.1538  -6.1466  -6.1426  -6.1415  -6.1339  -6.1307  -6.1258
    -6.1219  -6.1116  -6.1072  -6.1053  -6.1006  -6.0952  -6.0909  -6.0866
    -6.0815  -6.0802  -6.0756  -6.0643  -6.0624  -6.0493  -6.0468  -6.0264
    -6.0220  -6.0207  -6.0167  -5.9881  -5.9855  -5.9840  -5.9793  -5.9723
    -5.9707  -5.9674  -5.9552  -5.9492  -5.9458  -5.9401  -5.9375  -5.9311
    -5.9255  -5.9208  -5.9200  -5.9109  -5.9093  -5.9009  -5.8976  -5.8911
    -5.8878  -5.8758  -5.8729  -5.8700  -5.8676  -5.8647  -5.8553  -5.8508
    -5.8484  -5.8354  -5.8303  -5.8228  -5.8171  -5.8148  -5.8132  -5.8080
    -5.8045  -5.8004  -5.7957  -5.7858  -5.7802  -5.7676  -5.7612  -5.7526
    -5.7491  -5.7483  -5.7421  -5.7364  -5.7353  -5.7320  -5.7296  -5.7249
    -5.7222  -5.7156  -5.7145  -5.7109  -5.7050  -5.6929  -5.6886  -5.6854
    -5.6827  -5.6761  -5.6759  -5.6714  -5.6704  -5.6660  -5.6636  -5.6613
    -5.6589  -5.6557  -5.6504  -5.6466  -5.6420  -5.6355  -5.6335  -5.6313
    -5.6273  -5.6255  -5.6244  -5.6223  -5.6194  -5.6139  -5.6115  -5.6023
    -5.5981  -5.5954  -5.5908  -5.5901  -5.5867  -5.5851  -5.5841  -5.5749
    -5.5734  -5.5691  -5.5650  -5.5632  -5.5607  -5.5578  -5.5564  -5.5529
    -5.5502  -5.5454  -5.5427  -5.5408  -5.5400  -5.5371  -5.5343  -5.5280
    -5.5250  -5.5199  -5.5164  -5.5133  -5.5080  -5.5064  -5.5009  -5.4925
    -5.4903  -5.4890  -5.4878  -5.4824  -5.4796  -5.4704  -5.4659  -5.4640
    -5.4611  -5.4575  -5.4552  -5.4502  -5.4488  -5.4221  -5.4205  -5.4193
    -5.4177  -5.3772  -5.3753  -5.3290  -5.3265  -5.3206  -5.2285  -5.0829
    -5.0738  -4.9570  -4.7836  -4.7396  -4.4719  -4.4674  -4.3138  -4.2739
    -4.2457  -3.5189  -3.5149  -3.4304  -3.3793  -3.3723  -3.0124  -2.9665
    -2.9301  -2.7890  -2.7546  -2.6411  -2.6322  -2.5566  -2.3833  -2.3204
    -2.1416  -2.1366  -1.7656  -1.7435  -1.5022  -1.3900  -1.0688  -1.0114
    -0.9768  -0.0580   0.0205   0.0636   0.1056   0.2335   0.2416   0.2691
     0.2961   0.3208   0.8386   0.8513   0.9239   0.9530   0.9775   0.9923
     1.3779   1.4228   1.4367   1.5078   1.5160   1.5229   1.9078   1.9288
     2.1286   2.1609   2.2216   2.2383   2.4303   2.4532   2.7182   2.7732
     3.1663   3.1988   3.2954   3.3414   3.3635   3.3747   3.5829   3.6344
     3.8964   3.9343   3.9540   3.9555   3.9938   4.0297   4.1188   4.1746
     4.2461   4.2832   4.2862   4.4107   4.5092   4.5741   4.6612   4.7672
     4.8827   4.8915   5.1417   5.1951   5.2156   5.2764   5.3405   5.4110
     5.5696   5.6059   5.6312   5.7584   5.8627   5.9272   5.9563   5.9874
     6.0020   6.0544   6.0621   6.1489   6.2126   6.2615   6.2956   6.3289
     6.3948   6.4780   6.5833   6.5890   6.6644   6.7354   6.7597   6.8716
     6.9521   7.0038   7.0740   7.1212   7.1618   7.2002   7.2207   7.4216
     7.4480   7.5243   7.5490   7.5831   7.5944   7.6512   7.7279   7.7484
     7.7839   7.8035   7.8663   7.9009   7.9076   7.9480   8.0249   8.0659
     8.1111   8.1444   8.2356   8.2591   8.2881   8.3168

     occupation numbers 
     1.0000   1.0000   1.0000   1.0000   1.0000   1.0000   1.0000   1.0000
     1.0000   1.0000   1.0000   1.0000   1.0000   1.0000   1.0000   1.0000
     1.0000   1.0000   1.0000   1.0000   1.0000   1.0000   1.0000   1.0000
     1.0000   1.0000   1.0000   1.0000   1.0000   1.0000   1.0000   1.0000
     1.0000   1.0000   1.0000   1.0000   1.0000   1.0000   1.0000   1.0000
     1.0000   1.0000   1.0000   1.0000   1.0000   1.0000   1.0000   1.0000
     1.0000   1.0000   1.0000   1.0000   1.0000   1.0000   1.0000   1.0000
     1.0000   1.0000   1.0000   1.0000   1.0000   1.0000   1.0000   1.0000
     1.0000   1.0000   1.0000   1.0000   1.0000   1.0000   1.0000   1.0000
     1.0000   1.0000   1.0000   1.0000   1.0000   1.0000   1.0000   1.0000
     1.0000   1.0000   1.0000   1.0000   1.0000   1.0000   1.0000   1.0000
     1.0000   1.0000   1.0000   1.0000   1.0000   1.0000   1.0000   1.0000
     1.0000   1.0000   1.0000   1.0000   1.0000   1.0000   1.0000   1.0000
     1.0000   1.0000   1.0000   1.0000   1.0000   1.0000   1.0000   1.0000
     1.0000   1.0000   1.0000   1.0000   1.0000   1.0000   1.0000   1.0000
     1.0000   1.0000   1.0000   1.0000   1.0000   1.0000   1.0000   1.0000
     1.0000   1.0000   1.0000   1.0000   1.0000   1.0000   1.0000   1.0000
     1.0000   1.0000   1.0000   1.0000   1.0000   1.0000   1.0000   1.0000
     1.0000   1.0000   1.0000   1.0000   1.0000   1.0000   1.0000   1.0000
     1.0000   1.0000   1.0000   1.0000   1.0000   1.0000   1.0000   1.0000
     1.0000   1.0000   1.0000   1.0000   1.0000   1.0000   1.0000   1.0000
     1.0000   1.0000   1.0000   1.0000   1.0000   1.0000   1.0000   1.0000
     1.0000   1.0000   1.0000   1.0000   1.0000   1.0000   1.0000   1.0000
     1.0000   1.0000   1.0000   1.0000   1.0000   1.0000   1.0000   1.0000
     1.0000   1.0000   1.0000   1.0000   1.0000   1.0000   1.0000   1.0000
     1.0000   1.0000   1.0000   1.0000   1.0000   1.0000   1.0000   1.0000
     1.0000   1.0000   1.0000   1.0000   1.0000   1.0000   1.0000   1.0000
     1.0000   1.0000   1.0000   1.0000   1.0000   1.0000   1.0000   1.0000
     1.0000   1.0000   1.0000   1.0000   1.0000   1.0000   1.0000   1.0000
     1.0000   1.0000   1.0000   1.0000   1.0000   1.0000   1.0000   1.0000
     1.0000   1.0000   1.0000   1.0000   1.0000   1.0000   1.0000   1.0000
     1.0000   1.0000   1.0000   1.0000   1.0000   1.0000   1.0000   1.0000
     1.0000   1.0000   1.0000   1.0000   1.0000   1.0000   1.0000   1.0000
     1.0000   1.0000   1.0000   1.0000   1.0000   1.0000   1.0000   1.0000
     1.0000   1.0000   1.0000   1.0000   1.0000   1.0000   1.0000   1.0000
     1.0000   1.0000   1.0000   1.0000   1.0000   1.0000   1.0000   1.0000
     1.0000   1.0000   1.0000   1.0000   1.0000   1.0000   1.0000   1.0000
     1.0000   1.0000   1.0000   1.0000   1.0000   1.0000   1.0000   1.0000
     1.0000   1.0000   1.0000   1.0000   1.0000   1.0000   1.0000   1.0000
     1.0000   1.0000   1.0000   1.0000   1.0000   1.0000   1.0000   1.0000
     1.0000   1.0000   1.0000   1.0000   1.0000   1.0000   1.0000   1.0000
     1.0000   1.0000   1.0000   1.0000   1.0000   1.0000   1.0000   1.0000
     1.0000   1.0000   1.0000   1.0000   1.0000   1.0000   1.0000   1.0000
     1.0000   1.0000   1.0000   1.0000   1.0000   1.0000   1.0000   1.0000
     1.0000   1.0000   1.0000   1.0000   1.0000   1.0000   1.0000   1.0000
     1.0000   1.0000   1.0000   1.0000   1.0000   1.0000   1.0000   1.0000
     1.0000   1.0000   1.0000   1.0000   1.0000   1.0000   1.0000   1.0000
     1.0000   1.0000   1.0000   1.0000   1.0000   1.0000   1.0000   1.0000
     1.0000   1.0000   1.0000   1.0000   1.0000   1.0000   1.0000   1.0000
     1.0000   1.0000   1.0000   1.0000   1.0000   1.0000   1.0000   1.0000
     1.0000   1.0000   1.0000   1.0000   1.0000   1.0000   1.0000   1.0000
     1.0000   1.0000   1.0000   1.0000   1.0000   1.0000   1.0000   1.0000
     1.0000   1.0000   1.0000   1.0000   1.0000   1.0000   1.0000   1.0000
     1.0000   1.0000   1.0000   1.0000   1.0000   1.0000   1.0000   1.0000
     1.0000   1.0000   1.0000   1.0000   1.0000   1.0000   1.0000   1.0000
     1.0000   1.0000   1.0000   1.0000   1.0000   1.0000   1.0000   1.0000
     1.0000   1.0000   1.0000   1.0000   1.0000   1.0000   1.0000   1.0000
     1.0000   1.0000   1.0000   1.0000   1.0000   1.0000   1.0000   1.0000
     1.0000   1.0000   1.0000   1.0000   1.0000   1.0000   1.0000   1.0000
     1.0000   1.0000   1.0000   1.0000   1.0000   1.0000   1.0000   1.0000
     1.0000   1.0000   1.0000   1.0000   1.0000   1.0000   1.0000   1.0001
     1.0001   1.0002   1.0807   1.0824   1.0714   1.0535   1.0309   1.0138
     0.1526   0.0982   0.0848   0.0370   0.0334   0.0306   0.0000   0.0000
     0.0000   0.0000   0.0000   0.0000   0.0000   0.0000   0.0000   0.0000
     0.0000   0.0000   0.0000   0.0000   0.0000   0.0000   0.0000   0.0000
     0.0000   0.0000   0.0000   0.0000   0.0000   0.0000   0.0000   0.0000
     0.0000   0.0000   0.0000   0.0000   0.0000   0.0000   0.0000   0.0000
     0.0000   0.0000   0.0000   0.0000   0.0000   0.0000   0.0000   0.0000
     0.0000   0.0000   0.0000   0.0000   0.0000   0.0000   0.0000   0.0000
     0.0000   0.0000   0.0000   0.0000   0.0000   0.0000   0.0000   0.0000
     0.0000   0.0000   0.0000   0.0000   0.0000   0.0000   0.0000   0.0000
     0.0000   0.0000   0.0000   0.0000   0.0000   0.0000   0.0000   0.0000
     0.0000   0.0000   0.0000   0.0000   0.0000   0.0000   0.0000   0.0000
     0.0000   0.0000   0.0000   0.0000   0.0000   0.0000   0.0000   0.0000
     0.0000   0.0000   0.0000   0.0000   0.0000   0.0000

     the Fermi energy is     1.2534 ev

!    total energy              =  -22293.63661106 Ry
     estimated scf accuracy    <       0.00000003 Ry
     smearing contrib. (-TS)   =       0.01003068 Ry
     internal energy E=F+TS    =  -22293.64664174 Ry

     The total energy is F=E-TS. E is the sum of the following terms:
     one-electron contribution = -118388.83234964 Ry
     hartree contribution      =   59135.80762539 Ry
     xc contribution           =   -2060.77710578 Ry
     ewald contribution        =   39057.92665376 Ry
     DFT-D3 Dispersion         =      -0.76716053 Ry
     one-center paw contrib.   =     -37.00430494 Ry
      -> PAW hartree energy AE =       0.00000000 Ry
      -> PAW hartree energy PS =       0.00000000 Ry
      -> PAW xc energy AE      =       0.00000000 Ry
      -> PAW xc energy PS      =       0.00000000 Ry
      -> total E_H with PAW    =   59135.80762539 Ry
      -> total E_XC with PAW   =   -2060.77710578 Ry

     convergence has been achieved in  10 iterations
