--------------------------------------------------------------------------
By default, for Open MPI 4.0 and later, infiniband ports on a device
are not used by default.  The intent is to use UCX for these devices.
You can override this policy by setting the btl_openib_allow_ib MCA parameter
to true.

  Local host:              psid05
  Local adapter:           mlx4_0
  Local port:              1

--------------------------------------------------------------------------
--------------------------------------------------------------------------
WARNING: There was an error initializing an OpenFabrics device.

  Local host:   psid05
  Local device: mlx4_0
--------------------------------------------------------------------------

     Program PWSCF v.7.3.1 starts on 11Apr2025 at  0:35:11 

     This program is part of the open-source Quantum ESPRESSO suite
     for quantum simulation of materials; please cite
         "P. Giannozzi et al., J. Phys.:Condens. Matter 21 395502 (2009);
         "P. Giannozzi et al., J. Phys.:Condens. Matter 29 465901 (2017);
         "P. Giannozzi et al., J. Chem. Phys. 152 154105 (2020);
          URL http://www.quantum-espresso.org", 
     in publications or presentations arising from this work. More details at
     http://www.quantum-espresso.org/quote

     Parallel version (MPI), running on    33 processors

     MPI processes distributed on     1 nodes
     36254 MiB available memory on the printing compute node when the environment starts

     Waiting for input...
     Reading input from standard input
Warning: card &CELL ignored
Warning: card   CELL_DOFREE = 'ALL' ignored
Warning: card / ignored
Warning: card H       -7.5185213468      3.0683455692      9.4470175285 ignored
Warning: card H      -11.1683142148     -0.1868284842     10.2870483099 ignored
Warning: card H       -8.0707368490     -1.8116341561      9.8480531372 ignored

     Current dimensions of program PWSCF are:
     Max number of different atomic species (ntypx) = 10
     Max number of k-points (npk) =  40000
     Max angular momentum in pseudopotentials (lmaxx) =  4
     file C.pbe-n-kjpaw_psl.1.0.0.UPF: wavefunction(s)  2S 2P renormalized

     R & G space division:  proc/nbgrp/npool/nimage =      33
     Subspace diagonalization in iterative solution of the eigenvalue problem:
     one sub-group per band group will be used
     custom distributed-memory algorithm (size of sub-group:  5*  5 procs)


     Parallelization info
     --------------------
     sticks:   dense  smooth     PW     G-vecs:    dense   smooth      PW
     Min         270     154     45                40385    17444    2719
     Max         271     155     45                40396    17453    2727
     Sum        8941    5109   1485              1332973   575857   89907

     Using Slab Decomposition



     bravais-lattice index     =            0
     lattice parameter (alat)  =      20.9009  a.u.
     unit-cell volume          =   16846.7507 (a.u.)^3
     number of atoms/cell      =           62
     number of atomic types    =            4
     number of electrons       =       999.00
     number of Kohn-Sham states=          600
     kinetic-energy cutoff     =      40.0000  Ry
     charge density cutoff     =     280.0000  Ry
     scf convergence threshold =      1.0E-06
     mixing beta               =       0.4000
     number of iterations used =            8  plain     mixing
     energy convergence thresh.=      5.0E-05
     force convergence thresh. =      1.0E-03
     Exchange-correlation= PBE
                           (   1   4   3   4   0   0   0)
     nstep                     =          300


     celldm(1)=  20.900943  celldm(2)=   0.000000  celldm(3)=   0.000000
     celldm(4)=   0.000000  celldm(5)=   0.000000  celldm(6)=   0.000000

     crystal axes: (cart. coord. in units of alat)
               a(1) = (   1.000000   0.000000   0.000000 )  
               a(2) = (  -0.223489   0.918700   0.000000 )  
               a(3) = (  -4.200249  -1.021781   2.008375 )  

     reciprocal axes: (cart. coord. in units 2 pi/alat)
               b(1) = (  1.000000  0.243267  2.215131 )  
               b(2) = ( -0.000000  1.088495  0.553783 )  
               b(3) = (  0.000000 -0.000000  0.497915 )  


     PseudoPot. # 1 for Zn read from file:
     /home/ys/qepseudo/SSSP_1.3.0_PBE_efficiency/Zn_pbe_v1.uspp.F.UPF
     MD5 check sum: df62231357ef9e81f77b2b3087fa5675
     Pseudo is Ultrasoft, Zval = 20.0
     Generated by new atomic code, or converted to UPF format
     Using radial grid of  943 points,  6 beta functions with: 
                l(1) =   0
                l(2) =   0
                l(3) =   1
                l(4) =   1
                l(5) =   2
                l(6) =   2
     Q(r) pseudized with  8 coefficients,  rinner =    1.100   1.100   1.100
                                                       1.100   1.100

     PseudoPot. # 2 for N  read from file:
     /home/ys/qepseudo/SSSP_1.3.0_PBE_efficiency/N.pbe-n-radius_5.UPF
     MD5 check sum: 16739722b17309cd8fe442a2ace49922
     Pseudo is Ultrasoft + core correction, Zval =  5.0
     Generated using "atomic" code by A. Dal Corso  v.5.1
     Using radial grid of 1085 points,  4 beta functions with: 
                l(1) =   0
                l(2) =   0
                l(3) =   1
                l(4) =   1
     Q(r) pseudized with 0 coefficients 


     PseudoPot. # 3 for C  read from file:
     /home/ys/qepseudo/SSSP_1.3.0_PBE_efficiency/C.pbe-n-kjpaw_psl.1.0.0.UPF
     MD5 check sum: 5d2aebdfa2cae82b50a7e79e9516da0f
     Pseudo is Projector augmented-wave + core cor, Zval =  4.0
     Generated using "atomic" code by A. Dal Corso  v.5.1
     Shape of augmentation charge: PSQ
     Using radial grid of 1073 points,  4 beta functions with: 
                l(1) =   0
                l(2) =   0
                l(3) =   1
                l(4) =   1
     Q(r) pseudized with 0 coefficients 


     PseudoPot. # 4 for H  read from file:
     /home/ys/qepseudo/SSSP_1.3.0_PBE_efficiency/H.pbe-rrkjus_psl.1.0.0.UPF
     MD5 check sum: f52b6d4d1c606e5624b1dc7b2218f220
     Pseudo is Ultrasoft, Zval =  1.0
     Generated using "atomic" code by A. Dal Corso  v.5.1
     Using radial grid of  929 points,  2 beta functions with: 
                l(1) =   0
                l(2) =   0
     Q(r) pseudized with 0 coefficients 


     atomic species   valence    mass     pseudopotential
     Zn               20.00    65.38000     Zn( 1.00)
     N                 5.00    14.00674     N ( 1.00)
     C                 4.00    12.01070     C ( 1.00)
     H                 1.00     1.00794     H ( 1.00)

     No symmetry found


                                    s                        frac. trans.

      isym =  1     identity                                     

 cryst.   s( 1) = (     1          0          0      )
                  (     0          1          0      )
                  (     0          0          1      )

 cart.    s( 1) = (  1.0000000  0.0000000  0.0000000 )
                  (  0.0000000  1.0000000  0.0000000 )
                  (  0.0000000  0.0000000  1.0000000 )


   Cartesian axes

     site n.     atom                  positions (alat units)
         1        Zn     tau(   1) = (  -0.0970639   0.0980210   0.1082940  )
         2        Zn     tau(   2) = (  -0.2088085   0.5573710   0.1082940  )
         3        Zn     tau(   3) = (  -0.4436296   0.0133021   0.3267644  )
         4        Zn     tau(   4) = (  -0.5553466   0.4727589   0.3266326  )
         5        Zn     tau(   5) = (  -0.8015675  -0.0738560   0.5204735  )
         6        Zn     tau(   6) = (  -0.9136705   0.3857182   0.5203452  )
         7        Zn     tau(   7) = (  -0.1529361   0.3276960   0.1082940  )
         8        Zn     tau(   8) = (  -0.2646808   0.7870460   0.1082940  )
         9        Zn     tau(   9) = (  -0.4994158   0.2431043   0.3267310  )
        10        Zn     tau(  10) = (  -0.6113085   0.7023487   0.3266788  )
        11        Zn     tau(  11) = (  -0.8577155   0.1559534   0.5203020  )
        12        Zn     tau(  12) = (  -0.9693047   0.6153537   0.5205194  )
        13        Zn     tau(  13) = (   0.4029362   0.0980210   0.1082940  )
        14        Zn     tau(  14) = (   0.2911915   0.5573710   0.1082940  )
        15        Zn     tau(  15) = (   0.0565086   0.0133360   0.3241562  )
        16        Zn     tau(  16) = (  -0.0552146   0.4727957   0.3239770  )
        17        Zn     tau(  17) = (  -0.2990019  -0.0732614   0.5203282  )
        18        Zn     tau(  18) = (  -0.4111263   0.3864037   0.5201985  )
        19        Zn     tau(  19) = (   0.3470638   0.3276960   0.1082940  )
        20        Zn     tau(  20) = (   0.2353192   0.7870460   0.1082940  )
        21        Zn     tau(  21) = (   0.0007168   0.2430908   0.3241551  )
        22        Zn     tau(  22) = (  -0.1111493   0.7024087   0.3239982  )
        23        Zn     tau(  23) = (  -0.3551819   0.1565713   0.5201829  )
        24        Zn     tau(  24) = (  -0.4667146   0.6159736   0.5203598  )
        25        Zn     tau(  25) = (   0.1529361   0.0372043   0.0773528  )
        26        Zn     tau(  26) = (   0.0411915   0.4965543   0.0773528  )
        27        Zn     tau(  27) = (  -0.2122732  -0.0516715   0.2654630  )
        28        Zn     tau(  28) = (  -0.3239465   0.4077318   0.2654478  )
        29        Zn     tau(  29) = (  -0.5765287  -0.1406552   0.4574179  )
        30        Zn     tau(  30) = (  -0.6884677   0.3189336   0.4575418  )
        31        Zn     tau(  31) = (   0.0970639   0.2668793   0.0773528  )
        32        Zn     tau(  32) = (  -0.0146808   0.7262293   0.0773528  )
        33        Zn     tau(  33) = (  -0.2680871   0.1780502   0.2653609  )
        34        Zn     tau(  34) = (  -0.3798692   0.6373411   0.2655337  )
        35        Zn     tau(  35) = (  -0.6325059   0.0891251   0.4575687  )
        36        Zn     tau(  36) = (  -0.7442124   0.5485014   0.4573723  )
        37        Zn     tau(  37) = (   0.6529362   0.0372043   0.0773528  )
        38        Zn     tau(  38) = (   0.5411915   0.4965543   0.0773528  )
        39        Zn     tau(  39) = (   0.2881095  -0.0515887   0.2651273  )
        40        Zn     tau(  40) = (   0.1764595   0.4078348   0.2650500  )
        41        Zn     tau(  41) = (  -0.0738569  -0.1399537   0.4576836  )
        42        Zn     tau(  42) = (  -0.1858471   0.3195453   0.4578116  )
        43        Zn     tau(  43) = (   0.5970639   0.2668793   0.0773528  )
        44        Zn     tau(  44) = (   0.4853193   0.7262293   0.0773528  )
        45        Zn     tau(  45) = (   0.2323041   0.1780975   0.2650220  )
        46        Zn     tau(  46) = (   0.1205228   0.6374688   0.2651506  )
        47        Zn     tau(  47) = (  -0.1298290   0.0898017   0.4578049  )
        48        Zn     tau(  48) = (  -0.2415973   0.5491238   0.4576724  )
        49        C      tau(  49) = (  -0.7845242  -0.1191951   0.9605140  )
        50        C      tau(  50) = (  -0.9653742   0.1655380   0.8811058  )
        51        C      tau(  51) = (  -0.7256308   0.0944849   0.9031981  )
        52        C      tau(  52) = (  -0.8737728   0.2509067   0.8589976  )
        53        C      tau(  53) = (  -0.8163355   0.0085990   0.9253936  )
        54        C      tau(  54) = (  -0.7527775   0.2129262   0.8706906  )
        55        C      tau(  55) = (  -0.9363765   0.0471536   0.9135023  )
        56        N      tau(  56) = (  -0.9013035   0.3682459   0.8269475  )
        57        H      tau(  57) = (  -0.7315070  -0.1218802   1.0447305  )
        58        H      tau(  58) = (  -1.0600171   0.1925834   0.8727505  )
        59        H      tau(  59) = (  -0.6308040   0.0679584   0.9115918  )
        60        H      tau(  60) = (  -0.8659231  -0.1742895   0.9745179  )
        61        H      tau(  61) = (  -0.8355275   0.4293024   0.8111146  )
        62        H      tau(  62) = (  -0.9878412   0.3956436   0.8184535  )

     --------------------------------------------
     DFT-D3 Dispersion Correction (3-body terms):
     --------------------------------------------
       Reference C6 values for interpolation: 

         atom   Coordination number   C6
         H          0.912             6.05
         H          0.000            15.18
         C          0.000            98.23
         C          0.987            86.49
         C          1.998            58.72
         C          2.999            51.56
         C          3.984            36.41
         N          0.000            50.54
         N          0.994            44.25
         N          2.014            39.35
         N          2.990            31.16
         Zn         0.000           681.04
         Zn         1.942           306.91

       Values used:

         atom   Coordination number  R0_AB[au]  C6      C8
         Zn         5.577            3.053    306.91  23930.67
         Zn         5.581            3.053    306.91  23930.67
         Zn         7.262            3.053    306.91  23930.67
         Zn         7.270            3.053    306.91  23930.67
         Zn         5.106            3.053    306.91  23930.67
         Zn         5.121            3.053    306.91  23930.67
         Zn         5.580            3.053    306.91  23930.67
         Zn         5.578            3.053    306.91  23930.67
         Zn         7.265            3.053    306.91  23930.67
         Zn         7.268            3.053    306.91  23930.67
         Zn         5.117            3.053    306.91  23930.67
         Zn         5.103            3.053    306.91  23930.67
         Zn         5.546            3.053    306.91  23930.67
         Zn         5.549            3.053    306.91  23930.67
         Zn         7.336            3.053    306.91  23930.67
         Zn         7.339            3.053    306.91  23930.67
         Zn         5.108            3.053    306.91  23930.67
         Zn         5.115            3.053    306.91  23930.67
         Zn         5.549            3.053    306.91  23930.67
         Zn         5.547            3.053    306.91  23930.67
         Zn         7.337            3.053    306.91  23930.67
         Zn         7.340            3.053    306.91  23930.67
         Zn         5.111            3.053    306.91  23930.67
         Zn         5.110            3.053    306.91  23930.67
         Zn         5.382            3.053    306.91  23930.67
         Zn         5.384            3.053    306.91  23930.67
         Zn         8.154            3.053    306.91  23930.67
         Zn         8.160            3.053    306.91  23930.67
         Zn         6.503            3.053    306.91  23930.67
         Zn         6.494            3.053    306.91  23930.67
         Zn         5.382            3.053    306.91  23930.67
         Zn         5.383            3.053    306.91  23930.67
         Zn         8.153            3.053    306.91  23930.67
         Zn         8.159            3.053    306.91  23930.67
         Zn         6.493            3.053    306.91  23930.67
         Zn         6.503            3.053    306.91  23930.67
         Zn         5.342            3.053    306.91  23930.67
         Zn         5.343            3.053    306.91  23930.67
         Zn         8.196            3.053    306.91  23930.67
         Zn         8.199            3.053    306.91  23930.67
         Zn         6.508            3.053    306.91  23930.67
         Zn         6.500            3.053    306.91  23930.67
         Zn         5.343            3.053    306.91  23930.67
         Zn         5.341            3.053    306.91  23930.67
         Zn         8.194            3.053    306.91  23930.67
         Zn         8.201            3.053    306.91  23930.67
         Zn         6.500            3.053    306.91  23930.67
         Zn         6.509            3.053    306.91  23930.67
         C          3.047            2.750     51.16   1479.51
         C          3.162            2.750     50.43   1458.66
         C          3.163            2.750     50.42   1458.31
         C          3.139            2.750     50.62   1463.94
         C          3.122            2.750     50.75   1467.65
         C          2.175            2.750     58.30   1686.05
         C          2.173            2.750     58.31   1686.34
         N          3.090            2.478     31.24    689.19
         H          0.997            2.062      6.18     74.75
         H          1.003            2.062      6.18     74.68
         H          1.003            2.062      6.18     74.68
         H          0.998            2.062      6.18     74.74
         H          1.007            2.062      6.17     74.64
         H          1.007            2.062      6.18     74.65

         Molecular C6 ( Ry / a.u.^6 ) =    830256.39


   Crystallographic axes

     site n.     atom                  positions (cryst. coord.)
         1        Zn     tau(   1) = (  0.1666667  0.1666667  0.0539212  )
         2        Zn     tau(   2) = (  0.1666668  0.6666667  0.0539212  )
         3        Zn     tau(   3) = (  0.2834325  0.1954358  0.1627009  )
         4        Zn     tau(   4) = (  0.2831942  0.6954790  0.1626353  )
         5        Zn     tau(   5) = (  0.3333829  0.2078374  0.2591516  )
         6        Zn     tau(   6) = (  0.3327949  0.7080104  0.2590877  )
         7        Zn     tau(   7) = (  0.1666668  0.4166667  0.0539212  )
         8        Zn     tau(   8) = (  0.1666667  0.9166667  0.0539212  )
         9        Zn     tau(   9) = (  0.2834754  0.4455557  0.1626843  )
        10        Zn     tau(  10) = (  0.2831861  0.9454119  0.1626583  )
        11        Zn     tau(  11) = (  0.3327602  0.4578888  0.2590662  )
        12        Zn     tau(  12) = (  0.3334092  0.9580638  0.2591744  )
        13        Zn     tau(  13) = (  0.6666668  0.1666667  0.0539212  )
        14        Zn     tau(  14) = (  0.6666667  0.6666667  0.0539212  )
        15        Zn     tau(  15) = (  0.7778014  0.1940282  0.1614022  )
        16        Zn     tau(  16) = (  0.7774525  0.6940484  0.1613130  )
        17        Zn     tau(  17) = (  0.8357713  0.2084042  0.2590792  )
        18        Zn     tau(  18) = (  0.8351810  0.7086753  0.2590146  )
        19        Zn     tau(  19) = (  0.6666668  0.4166667  0.0539212  )
        20        Zn     tau(  20) = (  0.6666668  0.9166667  0.0539212  )
        21        Zn     tau(  21) = (  0.7778988  0.4441146  0.1614017  )
        22        Zn     tau(  22) = (  0.7774220  0.9439927  0.1613236  )
        23        Zn     tau(  23) = (  0.8351802  0.4584954  0.2590069  )
        24        Zn     tau(  24) = (  0.8357966  0.9586503  0.2590949  )
        25        Zn     tau(  25) = (  0.3333333  0.0833333  0.0385151  )
        26        Zn     tau(  26) = (  0.3333333  0.5833333  0.0385151  )
        27        Zn     tau(  27) = (  0.3631923  0.0907647  0.1321780  )
        28        Zn     tau(  28) = (  0.3632429  0.5908143  0.1321704  )
        29        Zn     tau(  29) = (  0.4024953  0.1002077  0.2277552  )
        30        Zn     tau(  30) = (  0.4026334  0.6005363  0.2278169  )
        31        Zn     tau(  31) = (  0.3333333  0.3333333  0.0385151  )
        32        Zn     tau(  32) = (  0.3333333  0.8333333  0.0385151  )
        33        Zn     tau(  33) = (  0.3630358  0.3407590  0.1321272  )
        34        Zn     tau(  34) = (  0.3633667  0.8407904  0.1322132  )
        35        Zn     tau(  35) = (  0.4027500  0.3504058  0.2278303  )
        36        Zn     tau(  36) = (  0.4023595  0.8503257  0.2277325  )
        37        Zn     tau(  37) = (  0.8333333  0.0833333  0.0385151  )
        38        Zn     tau(  38) = (  0.8333333  0.5833333  0.0385151  )
        39        Zn     tau(  39) = (  0.8628514  0.0906689  0.1320109  )
        40        Zn     tau(  40) = (  0.8627927  0.5907061  0.1319724  )
        41        Zn     tau(  41) = (  0.9059264  0.1011185  0.2278875  )
        42        Zn     tau(  42) = (  0.9060006  0.6013515  0.2279513  )
        43        Zn     tau(  43) = (  0.8333333  0.3333333  0.0385151  )
        44        Zn     tau(  44) = (  0.8333333  0.8333333  0.0385151  )
        45        Zn     tau(  45) = (  0.8626880  0.3406228  0.1319584  )
        46        Zn     tau(  46) = (  0.8629413  0.8407172  0.1320225  )
        47        Zn     tau(  47) = (  0.9061147  0.3512731  0.2279479  )
        48        Zn     tau(  48) = (  0.9057908  0.8511694  0.2278820  )
        49        C      tau(  49) = (  1.3141443  0.4021729  0.4782543  )
        50        C      tau(  50) = (  1.0266608  0.6681284  0.4387158  )
        51        C      tau(  51) = (  1.2980567  0.6030219  0.4497159  )
        52        C      tau(  52) = (  1.0900570  0.7488086  0.4277078  )
        53        C      tau(  53) = (  1.2356248  0.5218271  0.4607674  )
        54        C      tau(  54) = (  1.2277144  0.7139425  0.4335299  )
        55        C      tau(  55) = (  1.0986220  0.5572083  0.4548465  )
        56        N      tau(  56) = (  1.0200758  0.8587830  0.4117496  )
        57        H      tau(  57) = (  1.5530590  0.4458878  0.5201870  )
        58        H      tau(  58) = (  0.9200892  0.6929403  0.4345556  )
        59        H      tau(  59) = (  1.4050236  0.5787962  0.4538952  )
        60        H      tau(  60) = (  1.2503633  0.3499581  0.4852271  )
        61        H      tau(  61) = (  1.0656329  0.9164746  0.4038661  )
        62        H      tau(  62) = (  0.9213877  0.8839014  0.4075203  )

     number of k points=     4  Marzari-Vanderbilt smearing, width (Ry)=  0.0200
                       cart. coord. in units 2pi/alat
        k(    1) = (   0.0000000   0.0000000   0.0000000), wk =   0.5000000
        k(    2) = (   0.0000000  -0.5442473  -0.2768914), wk =   0.5000000
        k(    3) = (  -0.5000000  -0.1216334  -1.1075657), wk =   0.5000000
        k(    4) = (  -0.5000000  -0.6658807  -1.3844571), wk =   0.5000000

                       cryst. coord.
        k(    1) = (   0.0000000   0.0000000   0.0000000), wk =   0.5000000
        k(    2) = (   0.0000000  -0.5000000   0.0000000), wk =   0.5000000
        k(    3) = (  -0.5000000   0.0000000   0.0000000), wk =   0.5000000
        k(    4) = (  -0.5000000  -0.5000000   0.0000000), wk =   0.5000000

     Dense  grid:  1332973 G-vectors     FFT dimensions: ( 120, 108, 540)

     Smooth grid:   575857 G-vectors     FFT dimensions: (  90,  80, 405)

     Dynamical RAM for                 wfc:      19.96 MB

     Dynamical RAM for     wfc (w. buffer):      99.79 MB

     Dynamical RAM for           str. fact:       2.47 MB

     Dynamical RAM for           local pot:       0.00 MB

     Dynamical RAM for          nlocal pot:      31.27 MB

     Dynamical RAM for                qrad:       5.37 MB

     Dynamical RAM for          rho,v,vnew:       6.89 MB

     Dynamical RAM for               rhoin:       2.30 MB

     Dynamical RAM for            rho*nmix:       9.86 MB

     Dynamical RAM for           G-vectors:       2.44 MB

     Dynamical RAM for          h,s,v(r/c):       2.64 MB

     Dynamical RAM for          <psi|beta>:       8.61 MB

     Dynamical RAM for                 psi:      39.92 MB

     Dynamical RAM for                hpsi:      39.92 MB

     Dynamical RAM for                spsi:      39.92 MB

     Dynamical RAM for      wfcinit/wfcrot:      54.08 MB

     Dynamical RAM for           addusdens:     144.24 MB

     Dynamical RAM for          addusforce:     202.67 MB

     Dynamical RAM for         addusstress:     123.90 MB

     Estimated static dynamical RAM per process >     162.02 MB

     Estimated max dynamical RAM per process >     374.56 MB

     Estimated total dynamical RAM >      12.07 GB

     Initial potential from superposition of free atoms

     starting charge     998.9929, renormalised to     999.0000

     negative rho (up, down):  2.686E-03 0.000E+00
     Starting wfcs are  662 randomized atomic wfcs
[psid05:76097] 32 more processes have sent help message help-mpi-btl-openib.txt / ib port not selected
[psid05:76097] Set MCA parameter "orte_base_help_aggregate" to 0 to see all help / error messages
[psid05:76097] 32 more processes have sent help message help-mpi-btl-openib.txt / error in device init
     Checking if some PAW data can be deallocated... 
       PAW data deallocated on   29 nodes for type:  3

     total cpu time spent up to now is       68.4 secs

     Self-consistent Calculation

     iteration #  1     ecut=    40.00 Ry     beta= 0.40
     Davidson diagonalization with overlap

---- Real-time Memory Report at c_bands before calling an iterative solver
           244 MiB given to the printing process from OS
             0 MiB allocation reported by mallinfo(arena+hblkhd)
         30267 MiB available memory on the node where the printing process lives
------------------
     ethr =  1.00E-02,  avg # of iterations =  7.8

     negative rho (up, down):  3.186E-03 0.000E+00

     total cpu time spent up to now is      324.5 secs

     total energy              =  -22303.69033067 Ry
     estimated scf accuracy    <      13.98475419 Ry

     iteration #  2     ecut=    40.00 Ry     beta= 0.40
     Davidson diagonalization with overlap

---- Real-time Memory Report at c_bands before calling an iterative solver
           346 MiB given to the printing process from OS
             0 MiB allocation reported by mallinfo(arena+hblkhd)
         28938 MiB available memory on the node where the printing process lives
------------------
     ethr =  1.40E-03,  avg # of iterations =  9.8

     negative rho (up, down):  4.595E-03 0.000E+00

     total cpu time spent up to now is      586.3 secs

     total energy              =  -22289.19503552 Ry
     estimated scf accuracy    <     353.35779050 Ry

     iteration #  3     ecut=    40.00 Ry     beta= 0.40
     Davidson diagonalization with overlap

---- Real-time Memory Report at c_bands before calling an iterative solver
           363 MiB given to the printing process from OS
             0 MiB allocation reported by mallinfo(arena+hblkhd)
         28914 MiB available memory on the node where the printing process lives
------------------
     ethr =  1.40E-03,  avg # of iterations =  7.0

     negative rho (up, down):  4.452E-03 0.000E+00

     total cpu time spent up to now is      904.3 secs

     total energy              =  -22309.16863178 Ry
     estimated scf accuracy    <      17.65389958 Ry

     iteration #  4     ecut=    40.00 Ry     beta= 0.40
     Davidson diagonalization with overlap

---- Real-time Memory Report at c_bands before calling an iterative solver
           364 MiB given to the printing process from OS
             0 MiB allocation reported by mallinfo(arena+hblkhd)
         28890 MiB available memory on the node where the printing process lives
------------------
     ethr =  1.40E-03,  avg # of iterations =  2.2

     negative rho (up, down):  4.298E-03 0.000E+00

     total cpu time spent up to now is     1116.2 secs

     total energy              =  -22310.03208494 Ry
     estimated scf accuracy    <       4.33612891 Ry

     iteration #  5     ecut=    40.00 Ry     beta= 0.40
     Davidson diagonalization with overlap

---- Real-time Memory Report at c_bands before calling an iterative solver
           365 MiB given to the printing process from OS
             0 MiB allocation reported by mallinfo(arena+hblkhd)
         28866 MiB available memory on the node where the printing process lives
------------------
     ethr =  4.34E-04,  avg # of iterations =  2.5

     negative rho (up, down):  4.429E-03 0.000E+00

     total cpu time spent up to now is     1322.0 secs

     total energy              =  -22310.31585188 Ry
     estimated scf accuracy    <       0.77985480 Ry

     iteration #  6     ecut=    40.00 Ry     beta= 0.40
     Davidson diagonalization with overlap

---- Real-time Memory Report at c_bands before calling an iterative solver
           365 MiB given to the printing process from OS
             0 MiB allocation reported by mallinfo(arena+hblkhd)
         28842 MiB available memory on the node where the printing process lives
------------------
     ethr =  7.81E-05,  avg # of iterations = 11.8

     negative rho (up, down):  4.362E-03 0.000E+00

     total cpu time spent up to now is     1544.9 secs

     total energy              =  -22310.29216263 Ry
     estimated scf accuracy    <       0.25454322 Ry

     iteration #  7     ecut=    40.00 Ry     beta= 0.40
     Davidson diagonalization with overlap

---- Real-time Memory Report at c_bands before calling an iterative solver
           366 MiB given to the printing process from OS
             0 MiB allocation reported by mallinfo(arena+hblkhd)
         28820 MiB available memory on the node where the printing process lives
------------------
     ethr =  2.55E-05,  avg # of iterations =  6.5

     negative rho (up, down):  4.351E-03 0.000E+00

     total cpu time spent up to now is     1762.6 secs

     total energy              =  -22310.26075798 Ry
     estimated scf accuracy    <       0.93952233 Ry

     iteration #  8     ecut=    40.00 Ry     beta= 0.40
     Davidson diagonalization with overlap

---- Real-time Memory Report at c_bands before calling an iterative solver
           367 MiB given to the printing process from OS
             0 MiB allocation reported by mallinfo(arena+hblkhd)
         28798 MiB available memory on the node where the printing process lives
------------------
     ethr =  2.55E-05,  avg # of iterations =  3.0

     negative rho (up, down):  4.307E-03 0.000E+00

     total cpu time spent up to now is     1972.4 secs

     total energy              =  -22310.27774669 Ry
     estimated scf accuracy    <       0.32417744 Ry

     iteration #  9     ecut=    40.00 Ry     beta= 0.40
     Davidson diagonalization with overlap

---- Real-time Memory Report at c_bands before calling an iterative solver
           368 MiB given to the printing process from OS
             0 MiB allocation reported by mallinfo(arena+hblkhd)
         28776 MiB available memory on the node where the printing process lives
------------------
     ethr =  2.55E-05,  avg # of iterations =  2.0

     negative rho (up, down):  4.303E-03 0.000E+00

     total cpu time spent up to now is     2179.5 secs

     total energy              =  -22310.29832414 Ry
     estimated scf accuracy    <       0.08015827 Ry

     iteration # 10     ecut=    40.00 Ry     beta= 0.40
     Davidson diagonalization with overlap

---- Real-time Memory Report at c_bands before calling an iterative solver
           368 MiB given to the printing process from OS
             0 MiB allocation reported by mallinfo(arena+hblkhd)
         28754 MiB available memory on the node where the printing process lives
------------------
     c_bands:  1 eigenvalues not converged
     ethr =  8.02E-06,  avg # of iterations = 14.8

     negative rho (up, down):  4.306E-03 0.000E+00

     total cpu time spent up to now is     2405.5 secs

     total energy              =  -22310.30120455 Ry
     estimated scf accuracy    <       0.03159890 Ry

     iteration # 11     ecut=    40.00 Ry     beta= 0.40
     Davidson diagonalization with overlap

---- Real-time Memory Report at c_bands before calling an iterative solver
           369 MiB given to the printing process from OS
             0 MiB allocation reported by mallinfo(arena+hblkhd)
         28754 MiB available memory on the node where the printing process lives
------------------
     ethr =  3.16E-06,  avg # of iterations =  4.8

     negative rho (up, down):  4.303E-03 0.000E+00

     total cpu time spent up to now is     2613.9 secs

     total energy              =  -22310.30195996 Ry
     estimated scf accuracy    <       0.00427367 Ry

     iteration # 12     ecut=    40.00 Ry     beta= 0.40
     Davidson diagonalization with overlap

---- Real-time Memory Report at c_bands before calling an iterative solver
           369 MiB given to the printing process from OS
             0 MiB allocation reported by mallinfo(arena+hblkhd)
         28752 MiB available memory on the node where the printing process lives
------------------
     ethr =  4.28E-07,  avg # of iterations =  2.2

     negative rho (up, down):  4.306E-03 0.000E+00

     total cpu time spent up to now is     2821.9 secs

     total energy              =  -22310.30225056 Ry
     estimated scf accuracy    <       0.00346649 Ry

     iteration # 13     ecut=    40.00 Ry     beta= 0.40
     Davidson diagonalization with overlap

---- Real-time Memory Report at c_bands before calling an iterative solver
           369 MiB given to the printing process from OS
             0 MiB allocation reported by mallinfo(arena+hblkhd)
         28753 MiB available memory on the node where the printing process lives
------------------
     ethr =  3.47E-07,  avg # of iterations =  2.0

     negative rho (up, down):  4.308E-03 0.000E+00

     total cpu time spent up to now is     3018.6 secs

     total energy              =  -22310.30242778 Ry
     estimated scf accuracy    <       0.00053336 Ry

     iteration # 14     ecut=    40.00 Ry     beta= 0.40
     Davidson diagonalization with overlap

---- Real-time Memory Report at c_bands before calling an iterative solver
           369 MiB given to the printing process from OS
             0 MiB allocation reported by mallinfo(arena+hblkhd)
         28752 MiB available memory on the node where the printing process lives
------------------
     ethr =  5.34E-08,  avg # of iterations =  2.0

     negative rho (up, down):  4.308E-03 0.000E+00

     total cpu time spent up to now is     3224.8 secs

     total energy              =  -22310.30245090 Ry
     estimated scf accuracy    <       0.00078628 Ry

     iteration # 15     ecut=    40.00 Ry     beta= 0.40
     Davidson diagonalization with overlap

---- Real-time Memory Report at c_bands before calling an iterative solver
           369 MiB given to the printing process from OS
             0 MiB allocation reported by mallinfo(arena+hblkhd)
         28752 MiB available memory on the node where the printing process lives
------------------
     ethr =  5.34E-08,  avg # of iterations =  1.5

     negative rho (up, down):  4.309E-03 0.000E+00

     total cpu time spent up to now is     3404.5 secs

     total energy              =  -22310.30249711 Ry
     estimated scf accuracy    <       0.00015737 Ry

     iteration # 16     ecut=    40.00 Ry     beta= 0.40
     Davidson diagonalization with overlap

---- Real-time Memory Report at c_bands before calling an iterative solver
           369 MiB given to the printing process from OS
             0 MiB allocation reported by mallinfo(arena+hblkhd)
         28754 MiB available memory on the node where the printing process lives
------------------
     ethr =  1.58E-08,  avg # of iterations =  2.0

     negative rho (up, down):  4.309E-03 0.000E+00

     total cpu time spent up to now is     3609.4 secs

     total energy              =  -22310.30250375 Ry
     estimated scf accuracy    <       0.00014384 Ry

     iteration # 17     ecut=    40.00 Ry     beta= 0.40
     Davidson diagonalization with overlap

---- Real-time Memory Report at c_bands before calling an iterative solver
           369 MiB given to the printing process from OS
             0 MiB allocation reported by mallinfo(arena+hblkhd)
         28753 MiB available memory on the node where the printing process lives
------------------
     ethr =  1.44E-08,  avg # of iterations =  1.0

     negative rho (up, down):  4.309E-03 0.000E+00

     total cpu time spent up to now is     3780.4 secs

     total energy              =  -22310.30250893 Ry
     estimated scf accuracy    <       0.00000386 Ry

     iteration # 18     ecut=    40.00 Ry     beta= 0.40
     Davidson diagonalization with overlap

---- Real-time Memory Report at c_bands before calling an iterative solver
           369 MiB given to the printing process from OS
             0 MiB allocation reported by mallinfo(arena+hblkhd)
         28753 MiB available memory on the node where the printing process lives
------------------
     ethr =  3.87E-10,  avg # of iterations =  2.8

     negative rho (up, down):  4.309E-03 0.000E+00

     total cpu time spent up to now is     3989.1 secs

     total energy              =  -22310.30250927 Ry
     estimated scf accuracy    <       0.00000184 Ry

     iteration # 19     ecut=    40.00 Ry     beta= 0.40
     Davidson diagonalization with overlap

---- Real-time Memory Report at c_bands before calling an iterative solver
           369 MiB given to the printing process from OS
             0 MiB allocation reported by mallinfo(arena+hblkhd)
         28753 MiB available memory on the node where the printing process lives
------------------
     ethr =  1.84E-10,  avg # of iterations =  2.0

     negative rho (up, down):  4.309E-03 0.000E+00

     total cpu time spent up to now is     4193.2 secs

     End of self-consistent calculation

          k = 0.0000 0.0000 0.0000 ( 71933 PWs)   bands (ev):

  -125.3556-125.3547-125.3544-125.3530-125.3479-125.3459-125.3453-125.3433
  -125.2637-125.2630-125.2624-125.2616-125.2563-125.2537-125.2537-125.2509
  -125.1549-125.1507-125.1506-125.1491-125.1489-125.1479-125.1464-125.1451
  -125.0650-125.0644-125.0642-125.0638-125.0636-125.0631-125.0626-125.0624
  -124.9858-124.9818-124.9798-124.9766-124.9761-124.9731-124.9716-124.9693
  -124.8863-124.8818-124.8805-124.8789-124.8780-124.8770-124.8733-124.8710
   -79.5209 -79.5127 -79.5087 -79.5082 -79.5073 -79.5063 -79.5058 -79.5045
   -79.5033 -79.5022 -79.5018 -79.5003 -79.5002 -79.5000 -79.4993 -79.4975
   -79.4967 -79.4959 -79.4955 -79.4948 -79.4932 -79.4927 -79.4905 -79.4873
   -79.4311 -79.4225 -79.4191 -79.4185 -79.4175 -79.4165 -79.4159 -79.4151
   -79.4101 -79.4100 -79.4095 -79.4081 -79.4073 -79.4071 -79.4068 -79.4066
   -79.4063 -79.4056 -79.4042 -79.4006 -79.3981 -79.3981 -79.3973 -79.3951
   -79.3154 -79.3146 -79.3102 -79.3060 -79.3052 -79.3038 -79.3035 -79.3034
   -79.3028 -79.3025 -79.3025 -79.3021 -79.3021 -79.3010 -79.3009 -79.2992
   -79.2991 -79.2978 -79.2976 -79.2965 -79.2946 -79.2934 -79.2900 -79.2888
   -79.2288 -79.2283 -79.2230 -79.2223 -79.2220 -79.2217 -79.2216 -79.2209
   -79.2204 -79.2202 -79.2166 -79.2164 -79.2163 -79.2160 -79.2157 -79.2154
   -79.2150 -79.2147 -79.2144 -79.2140 -79.2134 -79.2131 -79.2041 -79.2037
   -79.1541 -79.1501 -79.1475 -79.1447 -79.1436 -79.1418 -79.1409 -79.1394
   -79.1371 -79.1332 -79.1330 -79.1294 -79.1289 -79.1283 -79.1274 -79.1243
   -79.1237 -79.1210 -79.1205 -79.1199 -79.1193 -79.1172 -79.1155 -79.1074
   -79.0588 -79.0551 -79.0547 -79.0530 -79.0520 -79.0509 -79.0474 -79.0454
   -79.0376 -79.0324 -79.0317 -79.0314 -79.0298 -79.0292 -79.0289 -79.0278
   -79.0245 -79.0223 -79.0192 -79.0170 -79.0165 -79.0140 -79.0044 -79.0021
   -18.2242 -15.6432 -13.4541 -12.4954 -11.0393  -9.6692  -8.8811  -8.3509
    -7.8945  -7.4918  -7.2196  -7.0766  -7.0763  -7.0625  -7.0059  -6.9619
    -6.9286  -6.9083  -6.8916  -6.8831  -6.8700  -6.8644  -6.8290  -6.8288
    -6.8221  -6.8037  -6.8010  -6.7501  -6.7359  -6.6900  -6.6891  -6.6854
    -6.6820  -6.6818  -6.6727  -6.6713  -6.6684  -6.6684  -6.6615  -6.6317
    -6.6317  -6.6282  -6.6281  -6.6117  -6.6111  -6.6078  -6.6077  -6.5931
    -6.5929  -6.5605  -6.5603  -6.5572  -6.5557  -6.5556  -6.5325  -6.5297
    -6.5295  -6.5014  -6.5012  -6.4909  -6.4871  -6.4862  -6.4778  -6.4775
    -6.4642  -6.4639  -6.4242  -6.4214  -6.4084  -6.3883  -6.3814  -6.3812
    -6.3777  -6.3494  -6.3493  -6.3293  -6.3265  -6.3221  -6.3193  -6.3138
    -6.3135  -6.3066  -6.3063  -6.3047  -6.2958  -6.2956  -6.2721  -6.2719
    -6.2703  -6.2701  -6.2654  -6.2291  -6.2287  -6.2239  -6.2184  -6.2184
    -6.2002  -6.1989  -6.1857  -6.1854  -6.1783  -6.1764  -6.1652  -6.1604
    -6.1602  -6.1586  -6.1572  -6.1523  -6.1352  -6.1350  -6.1315  -6.1314
    -6.1133  -6.1078  -6.0963  -6.0941  -6.0937  -6.0856  -6.0854  -6.0836
    -6.0765  -6.0719  -6.0556  -6.0521  -6.0519  -6.0385  -6.0384  -6.0300
    -6.0298  -6.0195  -6.0192  -6.0192  -6.0187  -6.0013  -5.9929  -5.9922
    -5.9919  -5.9790  -5.9789  -5.9777  -5.9703  -5.9624  -5.9604  -5.9512
    -5.9509  -5.9491  -5.9490  -5.9263  -5.9219  -5.9057  -5.9055  -5.9041
    -5.9040  -5.8948  -5.8870  -5.8866  -5.8856  -5.8854  -5.8659  -5.8599
    -5.8597  -5.8575  -5.8523  -5.8512  -5.8461  -5.8461  -5.8295  -5.8285
    -5.8246  -5.8216  -5.8215  -5.8126  -5.8125  -5.8118  -5.8113  -5.7946
    -5.7943  -5.7886  -5.7786  -5.7777  -5.7765  -5.7760  -5.7690  -5.7655
    -5.7602  -5.7571  -5.7543  -5.7540  -5.7501  -5.7403  -5.7311  -5.7290
    -5.7287  -5.7276  -5.7226  -5.7223  -5.7191  -5.7095  -5.7061  -5.7053
    -5.7008  -5.7007  -5.6968  -5.6907  -5.6885  -5.6875  -5.6870  -5.6862
    -5.6843  -5.6758  -5.6757  -5.6727  -5.6681  -5.6594  -5.6580  -5.6505
    -5.6500  -5.6472  -5.6464  -5.6430  -5.6426  -5.6358  -5.6343  -5.6201
    -5.6197  -5.6195  -5.6191  -5.6093  -5.6084  -5.5968  -5.5966  -5.5812
    -5.5694  -5.5691  -5.5661  -5.5652  -5.5584  -5.5549  -5.5544  -5.5470
    -5.5360  -5.5206  -5.5200  -5.5190  -5.4984  -5.4981  -5.4787  -5.4637
    -5.4625  -5.4322  -5.4233  -5.4046  -5.3957  -5.3877  -5.3824  -5.3212
    -5.3208  -5.3002  -5.2997  -4.9269  -4.7404  -4.4876  -4.3646  -4.3510
    -4.1341  -4.1135  -4.1132  -3.9223  -3.7206  -3.7142  -3.2609  -2.8263
    -2.5954  -2.4879  -2.3293  -2.3239  -2.2090  -2.1562  -2.1546  -1.8598
    -1.7969  -1.7963  -1.6061  -1.6031  -1.5221  -1.5109  -1.0375  -0.8188
    -0.7987  -0.7328  -0.5797  -0.4243  -0.3610  -0.2540  -0.2400  -0.1950
    -0.1923   0.2119   0.2156   0.4375   0.4447   0.4669   0.4675   0.5314
     0.5830   0.8369   0.8426   1.1419   1.2068   1.2402   1.5171   1.5247
     1.8299   1.8430   2.1535   2.1854   2.3785   2.3847   2.3951   2.4089
     2.5132   2.5172   2.9373   2.9417   3.0293   3.0893   3.0988   3.1690
     3.1767   3.4311   3.4673   3.7244   3.7665   3.8218   3.8248   4.2028
     4.2410   4.3282   4.3758   4.7285   4.8103   4.8725   4.9944   5.0526
     5.1412   5.2862   5.2876   5.3614   5.4596   5.4768   5.4900   5.5021
     5.5323   5.5701   5.6251   5.8180   5.8265   5.8515   5.8583   5.8691
     5.9492   5.9708   6.0148   6.0695   6.0787   6.1168   6.1279   6.1530
     6.2649   6.2791   6.3154   6.3685   6.4778   6.5096   6.5155   6.5414
     6.5953   6.6789   6.7155   6.7782   6.8195   6.8779   6.9145   7.0437
     7.0790   7.1486   7.1630   7.1936   7.2128   7.2713   7.3366   7.3479
     7.4251   7.5244   7.5327   7.5523   7.6286   7.6752   7.7737   7.7996
     7.8405   7.8546   7.8819   7.8977   7.8985   7.9319   7.9793   8.1244

     occupation numbers 
     1.0000   1.0000   1.0000   1.0000   1.0000   1.0000   1.0000   1.0000
     1.0000   1.0000   1.0000   1.0000   1.0000   1.0000   1.0000   1.0000
     1.0000   1.0000   1.0000   1.0000   1.0000   1.0000   1.0000   1.0000
     1.0000   1.0000   1.0000   1.0000   1.0000   1.0000   1.0000   1.0000
     1.0000   1.0000   1.0000   1.0000   1.0000   1.0000   1.0000   1.0000
     1.0000   1.0000   1.0000   1.0000   1.0000   1.0000   1.0000   1.0000
     1.0000   1.0000   1.0000   1.0000   1.0000   1.0000   1.0000   1.0000
     1.0000   1.0000   1.0000   1.0000   1.0000   1.0000   1.0000   1.0000
     1.0000   1.0000   1.0000   1.0000   1.0000   1.0000   1.0000   1.0000
     1.0000   1.0000   1.0000   1.0000   1.0000   1.0000   1.0000   1.0000
     1.0000   1.0000   1.0000   1.0000   1.0000   1.0000   1.0000   1.0000
     1.0000   1.0000   1.0000   1.0000   1.0000   1.0000   1.0000   1.0000
     1.0000   1.0000   1.0000   1.0000   1.0000   1.0000   1.0000   1.0000
     1.0000   1.0000   1.0000   1.0000   1.0000   1.0000   1.0000   1.0000
     1.0000   1.0000   1.0000   1.0000   1.0000   1.0000   1.0000   1.0000
     1.0000   1.0000   1.0000   1.0000   1.0000   1.0000   1.0000   1.0000
     1.0000   1.0000   1.0000   1.0000   1.0000   1.0000   1.0000   1.0000
     1.0000   1.0000   1.0000   1.0000   1.0000   1.0000   1.0000   1.0000
     1.0000   1.0000   1.0000   1.0000   1.0000   1.0000   1.0000   1.0000
     1.0000   1.0000   1.0000   1.0000   1.0000   1.0000   1.0000   1.0000
     1.0000   1.0000   1.0000   1.0000   1.0000   1.0000   1.0000   1.0000
     1.0000   1.0000   1.0000   1.0000   1.0000   1.0000   1.0000   1.0000
     1.0000   1.0000   1.0000   1.0000   1.0000   1.0000   1.0000   1.0000
     1.0000   1.0000   1.0000   1.0000   1.0000   1.0000   1.0000   1.0000
     1.0000   1.0000   1.0000   1.0000   1.0000   1.0000   1.0000   1.0000
     1.0000   1.0000   1.0000   1.0000   1.0000   1.0000   1.0000   1.0000
     1.0000   1.0000   1.0000   1.0000   1.0000   1.0000   1.0000   1.0000
     1.0000   1.0000   1.0000   1.0000   1.0000   1.0000   1.0000   1.0000
     1.0000   1.0000   1.0000   1.0000   1.0000   1.0000   1.0000   1.0000
     1.0000   1.0000   1.0000   1.0000   1.0000   1.0000   1.0000   1.0000
     1.0000   1.0000   1.0000   1.0000   1.0000   1.0000   1.0000   1.0000
     1.0000   1.0000   1.0000   1.0000   1.0000   1.0000   1.0000   1.0000
     1.0000   1.0000   1.0000   1.0000   1.0000   1.0000   1.0000   1.0000
     1.0000   1.0000   1.0000   1.0000   1.0000   1.0000   1.0000   1.0000
     1.0000   1.0000   1.0000   1.0000   1.0000   1.0000   1.0000   1.0000
     1.0000   1.0000   1.0000   1.0000   1.0000   1.0000   1.0000   1.0000
     1.0000   1.0000   1.0000   1.0000   1.0000   1.0000   1.0000   1.0000
     1.0000   1.0000   1.0000   1.0000   1.0000   1.0000   1.0000   1.0000
     1.0000   1.0000   1.0000   1.0000   1.0000   1.0000   1.0000   1.0000
     1.0000   1.0000   1.0000   1.0000   1.0000   1.0000   1.0000   1.0000
     1.0000   1.0000   1.0000   1.0000   1.0000   1.0000   1.0000   1.0000
     1.0000   1.0000   1.0000   1.0000   1.0000   1.0000   1.0000   1.0000
     1.0000   1.0000   1.0000   1.0000   1.0000   1.0000   1.0000   1.0000
     1.0000   1.0000   1.0000   1.0000   1.0000   1.0000   1.0000   1.0000
     1.0000   1.0000   1.0000   1.0000   1.0000   1.0000   1.0000   1.0000
     1.0000   1.0000   1.0000   1.0000   1.0000   1.0000   1.0000   1.0000
     1.0000   1.0000   1.0000   1.0000   1.0000   1.0000   1.0000   1.0000
     1.0000   1.0000   1.0000   1.0000   1.0000   1.0000   1.0000   1.0000
     1.0000   1.0000   1.0000   1.0000   1.0000   1.0000   1.0000   1.0000
     1.0000   1.0000   1.0000   1.0000   1.0000   1.0000   1.0000   1.0000
     1.0000   1.0000   1.0000   1.0000   1.0000   1.0000   1.0000   1.0000
     1.0000   1.0000   1.0000   1.0000   1.0000   1.0000   1.0000   1.0000
     1.0000   1.0000   1.0000   1.0000   1.0000   1.0000   1.0000   1.0000
     1.0000   1.0000   1.0000   1.0000   1.0000   1.0000   1.0000   1.0000
     1.0000   1.0000   1.0000   1.0000   1.0000   1.0000   1.0000   1.0000
     1.0000   1.0000   1.0000   1.0000   1.0000   1.0000   1.0000   1.0000
     1.0000   1.0000   1.0000   1.0000   1.0000   1.0000   1.0000   1.0000
     1.0000   1.0000   1.0000   1.0000   1.0000   1.0000   1.0000   1.0000
     1.0000   1.0000   1.0000   1.0000   1.0000   1.0000   1.0000   1.0000
     1.0000   1.0000   1.0000   1.0000   1.0000   1.0000   1.0000   1.0000
     1.0000   1.0000   1.0000   1.0000   1.0000   1.0000   1.0000   1.0000
     1.0000   1.0002   1.0003   1.0088   1.0096   1.0126   1.0127   1.0252
     1.0398   1.0489   1.0438   0.3751   0.2337   0.1762   0.0057   0.0051
     0.0000   0.0000   0.0000   0.0000   0.0000   0.0000   0.0000   0.0000
     0.0000   0.0000   0.0000   0.0000   0.0000   0.0000   0.0000   0.0000
     0.0000   0.0000   0.0000   0.0000   0.0000   0.0000   0.0000   0.0000
     0.0000   0.0000   0.0000   0.0000   0.0000   0.0000   0.0000   0.0000
     0.0000   0.0000   0.0000   0.0000   0.0000   0.0000   0.0000   0.0000
     0.0000   0.0000   0.0000   0.0000   0.0000   0.0000   0.0000   0.0000
     0.0000   0.0000   0.0000   0.0000   0.0000   0.0000   0.0000   0.0000
     0.0000   0.0000   0.0000   0.0000   0.0000   0.0000   0.0000   0.0000
     0.0000   0.0000   0.0000   0.0000   0.0000   0.0000   0.0000   0.0000
     0.0000   0.0000   0.0000   0.0000   0.0000   0.0000   0.0000   0.0000
     0.0000   0.0000   0.0000   0.0000   0.0000   0.0000   0.0000   0.0000
     0.0000   0.0000   0.0000   0.0000   0.0000   0.0000   0.0000   0.0000

          k = 0.0000-0.5442-0.2769 ( 71974 PWs)   bands (ev):

  -125.3555-125.3549-125.3542-125.3530-125.3479-125.3460-125.3452-125.3433
  -125.2636-125.2632-125.2622-125.2616-125.2563-125.2539-125.2536-125.2509
  -125.1549-125.1507-125.1506-125.1493-125.1486-125.1479-125.1464-125.1451
  -125.0650-125.0643-125.0642-125.0640-125.0635-125.0629-125.0626-125.0624
  -124.9858-124.9818-124.9798-124.9766-124.9761-124.9731-124.9716-124.9693
  -124.8863-124.8818-124.8804-124.8789-124.8779-124.8770-124.8733-124.8710
   -79.5177 -79.5167 -79.5100 -79.5078 -79.5073 -79.5066 -79.5056 -79.5046
   -79.5033 -79.5026 -79.5016 -79.5003 -79.5000 -79.4993 -79.4989 -79.4976
   -79.4966 -79.4956 -79.4948 -79.4934 -79.4927 -79.4921 -79.4906 -79.4899
   -79.4277 -79.4273 -79.4200 -79.4175 -79.4174 -79.4169 -79.4157 -79.4152
   -79.4103 -79.4097 -79.4097 -79.4078 -79.4075 -79.4072 -79.4068 -79.4064
   -79.4057 -79.4042 -79.4024 -79.4006 -79.3999 -79.3982 -79.3979 -79.3951
   -79.3138 -79.3115 -79.3105 -79.3102 -79.3084 -79.3060 -79.3051 -79.3040
   -79.3034 -79.3033 -79.3026 -79.3021 -79.3009 -79.2992 -79.2991 -79.2980
   -79.2973 -79.2966 -79.2952 -79.2946 -79.2940 -79.2934 -79.2931 -79.2906
   -79.2257 -79.2249 -79.2247 -79.2245 -79.2229 -79.2223 -79.2221 -79.2220
   -79.2214 -79.2206 -79.2205 -79.2204 -79.2159 -79.2153 -79.2152 -79.2150
   -79.2143 -79.2138 -79.2135 -79.2132 -79.2082 -79.2075 -79.2073 -79.2071
   -79.1541 -79.1501 -79.1475 -79.1447 -79.1436 -79.1409 -79.1401 -79.1394
   -79.1371 -79.1353 -79.1332 -79.1310 -79.1293 -79.1274 -79.1272 -79.1242
   -79.1237 -79.1220 -79.1210 -79.1193 -79.1173 -79.1172 -79.1130 -79.1095
   -79.0588 -79.0551 -79.0547 -79.0530 -79.0520 -79.0509 -79.0474 -79.0454
   -79.0376 -79.0324 -79.0314 -79.0307 -79.0299 -79.0289 -79.0279 -79.0261
   -79.0249 -79.0245 -79.0228 -79.0222 -79.0104 -79.0088 -79.0073 -79.0032
   -18.2242 -15.6433 -13.4534 -12.4952 -11.0421  -9.6692  -8.8769  -7.9829
    -7.9797  -7.8937  -7.2727  -7.2707  -6.9480  -6.9458  -6.9303  -6.8826
    -6.8812  -6.8559  -6.8535  -6.8380  -6.8370  -6.8304  -6.8283  -6.8047
    -6.8040  -6.8033  -6.8021  -6.7971  -6.7965  -6.7537  -6.7528  -6.7462
    -6.7445  -6.7428  -6.7425  -6.7101  -6.7089  -6.6551  -6.6532  -6.6479
    -6.6469  -6.6356  -6.6349  -6.6347  -6.6335  -6.6253  -6.6245  -6.6241
    -6.6239  -6.5747  -6.5736  -6.5607  -6.5595  -6.5528  -6.5525  -6.5500
    -6.5482  -6.4890  -6.4874  -6.4700  -6.4682  -6.4483  -6.4475  -6.4446
    -6.4438  -6.4211  -6.4203  -6.4019  -6.4007  -6.3972  -6.3966  -6.3906
    -6.3901  -6.3584  -6.3572  -6.3499  -6.3488  -6.3414  -6.3412  -6.3286
    -6.3280  -6.3180  -6.3179  -6.3140  -6.3136  -6.2844  -6.2828  -6.2762
    -6.2759  -6.2597  -6.2588  -6.2543  -6.2539  -6.2503  -6.2489  -6.2401
    -6.2390  -6.2010  -6.2007  -6.1872  -6.1868  -6.1810  -6.1802  -6.1649
    -6.1646  -6.1564  -6.1560  -6.1516  -6.1502  -6.1474  -6.1459  -6.1272
    -6.1266  -6.1260  -6.1251  -6.1202  -6.1179  -6.1127  -6.1122  -6.0944
    -6.0921  -6.0832  -6.0823  -6.0768  -6.0764  -6.0593  -6.0583  -6.0331
    -6.0330  -6.0280  -6.0267  -6.0200  -6.0200  -6.0135  -6.0124  -6.0114
    -6.0100  -5.9810  -5.9801  -5.9716  -5.9710  -5.9664  -5.9657  -5.9589
    -5.9587  -5.9239  -5.9236  -5.9038  -5.9032  -5.9027  -5.9024  -5.9004
    -5.8997  -5.8747  -5.8740  -5.8598  -5.8594  -5.8531  -5.8529  -5.8504
    -5.8500  -5.8365  -5.8356  -5.8279  -5.8276  -5.8250  -5.8244  -5.8180
    -5.8178  -5.8108  -5.8101  -5.8062  -5.8053  -5.7981  -5.7977  -5.7635
    -5.7632  -5.7614  -5.7608  -5.7536  -5.7527  -5.7509  -5.7502  -5.7497
    -5.7494  -5.7444  -5.7434  -5.7409  -5.7397  -5.7327  -5.7317  -5.7254
    -5.7251  -5.7109  -5.7101  -5.7083  -5.7070  -5.7019  -5.7011  -5.6951
    -5.6947  -5.6715  -5.6705  -5.6700  -5.6686  -5.6676  -5.6651  -5.6597
    -5.6591  -5.6460  -5.6442  -5.6434  -5.6430  -5.6417  -5.6407  -5.6380
    -5.6374  -5.6317  -5.6307  -5.6253  -5.6248  -5.6203  -5.6195  -5.5948
    -5.5939  -5.5934  -5.5931  -5.5916  -5.5911  -5.5863  -5.5840  -5.5815
    -5.5797  -5.5789  -5.5655  -5.5649  -5.5633  -5.5616  -5.5403  -5.5383
    -5.5224  -5.5210  -5.5127  -5.5115  -5.5069  -5.5048  -5.5041  -5.5027
    -5.4639  -5.4621  -5.4526  -5.4496  -5.4314  -5.4291  -5.4285  -5.2204
    -5.2190  -5.1955  -5.1903  -4.9275  -4.5344  -4.4603  -4.4110  -4.3257
    -4.3242  -4.0425  -4.0417  -3.9160  -3.6472  -3.6454  -3.2609  -2.6670
    -2.6358  -2.6056  -2.5752  -2.5507  -2.4566  -2.4449  -2.2536  -2.2489
    -2.0380  -2.0361  -1.6225  -1.6122  -1.2954  -1.2941  -1.0620  -1.0605
    -0.7627  -0.6766  -0.6708  -0.5324  -0.5059  -0.4456  -0.2853  -0.2732
     0.0940   0.1097   0.3817   0.3922   0.5720   0.6788   0.6863   0.9824
     0.9868   1.0578   1.0840   1.1787   1.2652   1.4386   1.4405   1.4924
     1.5050   1.6305   1.6325   2.2213   2.2274   2.6792   2.7039   2.8848
     2.8866   3.0190   3.0215   3.3839   3.3880   3.5410   3.5531   3.6584
     3.6637   3.6943   3.6998   3.8794   3.8796   3.9896   4.0000   4.0245
     4.0433   4.0891   4.1483   4.1653   4.1781   4.3632   4.6232   4.6820
     4.8310   4.8388   4.8451   4.9557   4.9580   5.0802   5.1312   5.1331
     5.2368   5.2440   5.2578   5.3911   5.4254   5.6167   5.6189   5.7112
     5.8446   5.8971   5.9409   5.9457   6.0031   6.0308   6.1707   6.2676
     6.2967   6.3033   6.3855   6.4232   6.4491   6.5003   6.5059   6.5563
     6.5934   6.6061   6.6188   6.7084   6.8420   6.9223   6.9341   6.9382
     6.9628   7.0857   7.1441   7.1652   7.2693   7.2981   7.3490   7.3655
     7.3959   7.4518   7.5655   7.6144   7.6742   7.7849   7.8420   7.8741
     7.9193   7.9284   7.9477   8.0118   8.0573   8.1096   8.1227   8.2352

     occupation numbers 
     1.0000   1.0000   1.0000   1.0000   1.0000   1.0000   1.0000   1.0000
     1.0000   1.0000   1.0000   1.0000   1.0000   1.0000   1.0000   1.0000
     1.0000   1.0000   1.0000   1.0000   1.0000   1.0000   1.0000   1.0000
     1.0000   1.0000   1.0000   1.0000   1.0000   1.0000   1.0000   1.0000
     1.0000   1.0000   1.0000   1.0000   1.0000   1.0000   1.0000   1.0000
     1.0000   1.0000   1.0000   1.0000   1.0000   1.0000   1.0000   1.0000
     1.0000   1.0000   1.0000   1.0000   1.0000   1.0000   1.0000   1.0000
     1.0000   1.0000   1.0000   1.0000   1.0000   1.0000   1.0000   1.0000
     1.0000   1.0000   1.0000   1.0000   1.0000   1.0000   1.0000   1.0000
     1.0000   1.0000   1.0000   1.0000   1.0000   1.0000   1.0000   1.0000
     1.0000   1.0000   1.0000   1.0000   1.0000   1.0000   1.0000   1.0000
     1.0000   1.0000   1.0000   1.0000   1.0000   1.0000   1.0000   1.0000
     1.0000   1.0000   1.0000   1.0000   1.0000   1.0000   1.0000   1.0000
     1.0000   1.0000   1.0000   1.0000   1.0000   1.0000   1.0000   1.0000
     1.0000   1.0000   1.0000   1.0000   1.0000   1.0000   1.0000   1.0000
     1.0000   1.0000   1.0000   1.0000   1.0000   1.0000   1.0000   1.0000
     1.0000   1.0000   1.0000   1.0000   1.0000   1.0000   1.0000   1.0000
     1.0000   1.0000   1.0000   1.0000   1.0000   1.0000   1.0000   1.0000
     1.0000   1.0000   1.0000   1.0000   1.0000   1.0000   1.0000   1.0000
     1.0000   1.0000   1.0000   1.0000   1.0000   1.0000   1.0000   1.0000
     1.0000   1.0000   1.0000   1.0000   1.0000   1.0000   1.0000   1.0000
     1.0000   1.0000   1.0000   1.0000   1.0000   1.0000   1.0000   1.0000
     1.0000   1.0000   1.0000   1.0000   1.0000   1.0000   1.0000   1.0000
     1.0000   1.0000   1.0000   1.0000   1.0000   1.0000   1.0000   1.0000
     1.0000   1.0000   1.0000   1.0000   1.0000   1.0000   1.0000   1.0000
     1.0000   1.0000   1.0000   1.0000   1.0000   1.0000   1.0000   1.0000
     1.0000   1.0000   1.0000   1.0000   1.0000   1.0000   1.0000   1.0000
     1.0000   1.0000   1.0000   1.0000   1.0000   1.0000   1.0000   1.0000
     1.0000   1.0000   1.0000   1.0000   1.0000   1.0000   1.0000   1.0000
     1.0000   1.0000   1.0000   1.0000   1.0000   1.0000   1.0000   1.0000
     1.0000   1.0000   1.0000   1.0000   1.0000   1.0000   1.0000   1.0000
     1.0000   1.0000   1.0000   1.0000   1.0000   1.0000   1.0000   1.0000
     1.0000   1.0000   1.0000   1.0000   1.0000   1.0000   1.0000   1.0000
     1.0000   1.0000   1.0000   1.0000   1.0000   1.0000   1.0000   1.0000
     1.0000   1.0000   1.0000   1.0000   1.0000   1.0000   1.0000   1.0000
     1.0000   1.0000   1.0000   1.0000   1.0000   1.0000   1.0000   1.0000
     1.0000   1.0000   1.0000   1.0000   1.0000   1.0000   1.0000   1.0000
     1.0000   1.0000   1.0000   1.0000   1.0000   1.0000   1.0000   1.0000
     1.0000   1.0000   1.0000   1.0000   1.0000   1.0000   1.0000   1.0000
     1.0000   1.0000   1.0000   1.0000   1.0000   1.0000   1.0000   1.0000
     1.0000   1.0000   1.0000   1.0000   1.0000   1.0000   1.0000   1.0000
     1.0000   1.0000   1.0000   1.0000   1.0000   1.0000   1.0000   1.0000
     1.0000   1.0000   1.0000   1.0000   1.0000   1.0000   1.0000   1.0000
     1.0000   1.0000   1.0000   1.0000   1.0000   1.0000   1.0000   1.0000
     1.0000   1.0000   1.0000   1.0000   1.0000   1.0000   1.0000   1.0000
     1.0000   1.0000   1.0000   1.0000   1.0000   1.0000   1.0000   1.0000
     1.0000   1.0000   1.0000   1.0000   1.0000   1.0000   1.0000   1.0000
     1.0000   1.0000   1.0000   1.0000   1.0000   1.0000   1.0000   1.0000
     1.0000   1.0000   1.0000   1.0000   1.0000   1.0000   1.0000   1.0000
     1.0000   1.0000   1.0000   1.0000   1.0000   1.0000   1.0000   1.0000
     1.0000   1.0000   1.0000   1.0000   1.0000   1.0000   1.0000   1.0000
     1.0000   1.0000   1.0000   1.0000   1.0000   1.0000   1.0000   1.0000
     1.0000   1.0000   1.0000   1.0000   1.0000   1.0000   1.0000   1.0000
     1.0000   1.0000   1.0000   1.0000   1.0000   1.0000   1.0000   1.0000
     1.0000   1.0000   1.0000   1.0000   1.0000   1.0000   1.0000   1.0000
     1.0000   1.0000   1.0000   1.0000   1.0000   1.0000   1.0000   1.0000
     1.0000   1.0000   1.0000   1.0000   1.0000   1.0000   1.0000   1.0000
     1.0000   1.0000   1.0000   1.0000   1.0000   1.0000   1.0000   1.0000
     1.0000   1.0000   1.0000   1.0000   1.0000   1.0000   1.0000   1.0000
     1.0000   1.0000   1.0000   1.0000   1.0000   1.0000   1.0000   1.0000
     1.0000   1.0000   1.0000   1.0000   1.0000   1.0000   1.0000   1.0000
     1.0000   1.0000   1.0041   1.0048   1.0364   1.0717   1.0738   0.8001
     0.7892   0.5987   0.5263   0.2904   0.1400   0.0184   0.0180   0.0084
     0.0069   0.0008   0.0008   0.0000   0.0000   0.0000   0.0000   0.0000
     0.0000   0.0000   0.0000   0.0000   0.0000   0.0000   0.0000   0.0000
     0.0000   0.0000   0.0000   0.0000   0.0000   0.0000   0.0000   0.0000
     0.0000   0.0000   0.0000   0.0000   0.0000   0.0000   0.0000   0.0000
     0.0000   0.0000   0.0000   0.0000   0.0000   0.0000   0.0000   0.0000
     0.0000   0.0000   0.0000   0.0000   0.0000   0.0000   0.0000   0.0000
     0.0000   0.0000   0.0000   0.0000   0.0000   0.0000   0.0000   0.0000
     0.0000   0.0000   0.0000   0.0000   0.0000   0.0000   0.0000   0.0000
     0.0000   0.0000   0.0000   0.0000   0.0000   0.0000   0.0000   0.0000
     0.0000   0.0000   0.0000   0.0000   0.0000   0.0000   0.0000   0.0000
     0.0000   0.0000   0.0000   0.0000   0.0000   0.0000   0.0000   0.0000
     0.0000   0.0000   0.0000   0.0000   0.0000   0.0000   0.0000   0.0000

          k =-0.5000-0.1216-1.1076 ( 71976 PWs)   bands (ev):

  -125.3556-125.3547-125.3544-125.3530-125.3479-125.3459-125.3453-125.3433
  -125.2637-125.2630-125.2624-125.2616-125.2563-125.2537-125.2537-125.2509
  -125.1549-125.1507-125.1506-125.1491-125.1489-125.1479-125.1464-125.1451
  -125.0650-125.0644-125.0642-125.0638-125.0636-125.0631-125.0626-125.0624
  -124.9858-124.9818-124.9798-124.9766-124.9761-124.9731-124.9716-124.9693
  -124.8863-124.8818-124.8805-124.8789-124.8780-124.8770-124.8733-124.8710
   -79.5209 -79.5127 -79.5087 -79.5082 -79.5073 -79.5063 -79.5058 -79.5045
   -79.5033 -79.5022 -79.5018 -79.5003 -79.5002 -79.5000 -79.4993 -79.4975
   -79.4967 -79.4959 -79.4955 -79.4948 -79.4932 -79.4927 -79.4905 -79.4873
   -79.4311 -79.4225 -79.4191 -79.4185 -79.4175 -79.4165 -79.4159 -79.4151
   -79.4101 -79.4100 -79.4095 -79.4081 -79.4073 -79.4071 -79.4068 -79.4066
   -79.4063 -79.4056 -79.4042 -79.4006 -79.3981 -79.3981 -79.3973 -79.3951
   -79.3154 -79.3146 -79.3102 -79.3060 -79.3052 -79.3038 -79.3035 -79.3034
   -79.3028 -79.3025 -79.3025 -79.3021 -79.3021 -79.3010 -79.3009 -79.2992
   -79.2991 -79.2978 -79.2976 -79.2965 -79.2946 -79.2934 -79.2900 -79.2888
   -79.2288 -79.2283 -79.2230 -79.2223 -79.2220 -79.2217 -79.2216 -79.2209
   -79.2204 -79.2202 -79.2166 -79.2164 -79.2163 -79.2160 -79.2157 -79.2154
   -79.2150 -79.2147 -79.2144 -79.2140 -79.2134 -79.2131 -79.2041 -79.2037
   -79.1541 -79.1501 -79.1475 -79.1447 -79.1436 -79.1418 -79.1409 -79.1394
   -79.1371 -79.1332 -79.1330 -79.1294 -79.1289 -79.1283 -79.1274 -79.1243
   -79.1237 -79.1210 -79.1205 -79.1199 -79.1193 -79.1172 -79.1155 -79.1074
   -79.0588 -79.0551 -79.0547 -79.0530 -79.0520 -79.0509 -79.0474 -79.0454
   -79.0376 -79.0324 -79.0318 -79.0314 -79.0298 -79.0292 -79.0289 -79.0278
   -79.0245 -79.0223 -79.0192 -79.0170 -79.0165 -79.0140 -79.0044 -79.0021
   -18.2242 -15.6432 -13.4541 -12.4954 -11.0393  -9.6692  -8.8811  -8.0676
    -8.0479  -7.8945  -7.0772  -7.0759  -7.0758  -7.0664  -6.9845  -6.9828
    -6.9286  -6.9064  -6.9016  -6.8629  -6.8520  -6.8413  -6.8397  -6.8298
    -6.8297  -6.7799  -6.7762  -6.7599  -6.7523  -6.7193  -6.7110  -6.6854
    -6.6818  -6.6815  -6.6783  -6.6685  -6.6684  -6.6562  -6.6551  -6.6317
    -6.6316  -6.6282  -6.6282  -6.6077  -6.6075  -6.5932  -6.5931  -6.5766
    -6.5764  -6.5627  -6.5603  -6.5603  -6.5580  -6.5557  -6.5556  -6.5299
    -6.5297  -6.5014  -6.5014  -6.4958  -6.4903  -6.4779  -6.4776  -6.4641
    -6.4638  -6.4497  -6.4403  -6.4295  -6.4258  -6.3811  -6.3809  -6.3613
    -6.3598  -6.3493  -6.3491  -6.3339  -6.3317  -6.3296  -6.3259  -6.3138
    -6.3136  -6.3016  -6.2962  -6.2956  -6.2955  -6.2720  -6.2719  -6.2703
    -6.2703  -6.2578  -6.2563  -6.2400  -6.2347  -6.2294  -6.2293  -6.2187
    -6.2185  -6.2108  -6.2067  -6.1861  -6.1858  -6.1732  -6.1710  -6.1599
    -6.1598  -6.1477  -6.1386  -6.1358  -6.1351  -6.1347  -6.1339  -6.1314
    -6.1311  -6.1292  -6.1261  -6.0953  -6.0941  -6.0938  -6.0856  -6.0854
    -6.0838  -6.0520  -6.0520  -6.0390  -6.0387  -6.0385  -6.0327  -6.0298
    -6.0297  -6.0194  -6.0192  -6.0103  -6.0089  -5.9921  -5.9920  -5.9857
    -5.9837  -5.9788  -5.9788  -5.9712  -5.9628  -5.9511  -5.9510  -5.9491
    -5.9490  -5.9341  -5.9339  -5.9257  -5.9222  -5.9056  -5.9055  -5.9041
    -5.9039  -5.8949  -5.8941  -5.8870  -5.8868  -5.8857  -5.8857  -5.8845
    -5.8798  -5.8727  -5.8716  -5.8596  -5.8595  -5.8462  -5.8460  -5.8446
    -5.8443  -5.8216  -5.8213  -5.8120  -5.8118  -5.7972  -5.7947  -5.7943
    -5.7938  -5.7912  -5.7891  -5.7783  -5.7778  -5.7765  -5.7761  -5.7688
    -5.7662  -5.7558  -5.7543  -5.7538  -5.7527  -5.7372  -5.7352  -5.7343
    -5.7341  -5.7288  -5.7287  -5.7228  -5.7225  -5.7156  -5.7112  -5.7007
    -5.7006  -5.6980  -5.6963  -5.6864  -5.6864  -5.6789  -5.6780  -5.6764
    -5.6756  -5.6629  -5.6614  -5.6541  -5.6525  -5.6505  -5.6495  -5.6467
    -5.6463  -5.6428  -5.6426  -5.6306  -5.6302  -5.6211  -5.6203  -5.6196
    -5.6193  -5.6162  -5.6148  -5.6093  -5.6085  -5.5968  -5.5966  -5.5937
    -5.5914  -5.5804  -5.5698  -5.5688  -5.5551  -5.5546  -5.5542  -5.5473
    -5.5218  -5.5217  -5.5022  -5.5015  -5.4998  -5.4970  -5.4632  -5.4626
    -5.4274  -5.4010  -5.3996  -5.3779  -5.3732  -5.3165  -5.3162  -5.2999
    -5.2997  -5.2823  -5.2640  -4.9261  -4.6011  -4.5925  -4.4912  -4.3647
    -4.3512  -4.1140  -4.1137  -3.9225  -3.7208  -3.7140  -3.2608  -2.9361
    -2.9237  -2.5963  -2.3305  -2.3246  -2.3012  -2.2736  -2.1561  -2.1546
    -1.9998  -1.9979  -1.5221  -1.5109  -0.9856  -0.9853  -0.8300  -0.8031
    -0.7251  -0.6124  -0.6106  -0.4154  -0.3079  -0.2942  -0.1955  -0.1911
    -0.0491  -0.0263   0.4658   0.4677   0.4932   0.5005   0.5833   0.8356
     0.8406   0.8427   0.8484   0.9542   0.9759   1.1665   1.2390   1.3024
     1.3070   1.8311   1.8407   2.3934   2.4097   2.5122   2.5175   2.7057
     2.7145   2.7251   2.7346   2.9386   2.9431   3.4424   3.4460   3.4914
     3.4981   3.5018   3.5482   3.6367   3.6402   3.8182   3.8243   3.9731
     4.0304   4.1754   4.2454   4.4107   4.6625   4.6834   4.7939   4.7983
     4.8406   4.9163   5.0041   5.1336   5.2017   5.2869   5.2876   5.4400
     5.4909   5.5321   5.5377   5.5762   5.6122   5.6656   5.6899   5.7942
     5.8027   5.8250   5.8256   5.9378   5.9532   6.0466   6.0712   6.1265
     6.2217   6.3410   6.3677   6.4869   6.5081   6.5643   6.6114   6.7216
     6.7773   6.8764   6.9574   7.0272   7.0464   7.0982   7.1563   7.1653
     7.1963   7.2378   7.2841   7.3396   7.3428   7.3491   7.4739   7.5531
     7.6071   7.6476   7.7120   7.7210   7.7499   7.8070   7.8515   7.8524
     7.8828   7.8871   7.8944   7.9335   8.0184   8.0573   8.0776   8.1304

     occupation numbers 
     1.0000   1.0000   1.0000   1.0000   1.0000   1.0000   1.0000   1.0000
     1.0000   1.0000   1.0000   1.0000   1.0000   1.0000   1.0000   1.0000
     1.0000   1.0000   1.0000   1.0000   1.0000   1.0000   1.0000   1.0000
     1.0000   1.0000   1.0000   1.0000   1.0000   1.0000   1.0000   1.0000
     1.0000   1.0000   1.0000   1.0000   1.0000   1.0000   1.0000   1.0000
     1.0000   1.0000   1.0000   1.0000   1.0000   1.0000   1.0000   1.0000
     1.0000   1.0000   1.0000   1.0000   1.0000   1.0000   1.0000   1.0000
     1.0000   1.0000   1.0000   1.0000   1.0000   1.0000   1.0000   1.0000
     1.0000   1.0000   1.0000   1.0000   1.0000   1.0000   1.0000   1.0000
     1.0000   1.0000   1.0000   1.0000   1.0000   1.0000   1.0000   1.0000
     1.0000   1.0000   1.0000   1.0000   1.0000   1.0000   1.0000   1.0000
     1.0000   1.0000   1.0000   1.0000   1.0000   1.0000   1.0000   1.0000
     1.0000   1.0000   1.0000   1.0000   1.0000   1.0000   1.0000   1.0000
     1.0000   1.0000   1.0000   1.0000   1.0000   1.0000   1.0000   1.0000
     1.0000   1.0000   1.0000   1.0000   1.0000   1.0000   1.0000   1.0000
     1.0000   1.0000   1.0000   1.0000   1.0000   1.0000   1.0000   1.0000
     1.0000   1.0000   1.0000   1.0000   1.0000   1.0000   1.0000   1.0000
     1.0000   1.0000   1.0000   1.0000   1.0000   1.0000   1.0000   1.0000
     1.0000   1.0000   1.0000   1.0000   1.0000   1.0000   1.0000   1.0000
     1.0000   1.0000   1.0000   1.0000   1.0000   1.0000   1.0000   1.0000
     1.0000   1.0000   1.0000   1.0000   1.0000   1.0000   1.0000   1.0000
     1.0000   1.0000   1.0000   1.0000   1.0000   1.0000   1.0000   1.0000
     1.0000   1.0000   1.0000   1.0000   1.0000   1.0000   1.0000   1.0000
     1.0000   1.0000   1.0000   1.0000   1.0000   1.0000   1.0000   1.0000
     1.0000   1.0000   1.0000   1.0000   1.0000   1.0000   1.0000   1.0000
     1.0000   1.0000   1.0000   1.0000   1.0000   1.0000   1.0000   1.0000
     1.0000   1.0000   1.0000   1.0000   1.0000   1.0000   1.0000   1.0000
     1.0000   1.0000   1.0000   1.0000   1.0000   1.0000   1.0000   1.0000
     1.0000   1.0000   1.0000   1.0000   1.0000   1.0000   1.0000   1.0000
     1.0000   1.0000   1.0000   1.0000   1.0000   1.0000   1.0000   1.0000
     1.0000   1.0000   1.0000   1.0000   1.0000   1.0000   1.0000   1.0000
     1.0000   1.0000   1.0000   1.0000   1.0000   1.0000   1.0000   1.0000
     1.0000   1.0000   1.0000   1.0000   1.0000   1.0000   1.0000   1.0000
     1.0000   1.0000   1.0000   1.0000   1.0000   1.0000   1.0000   1.0000
     1.0000   1.0000   1.0000   1.0000   1.0000   1.0000   1.0000   1.0000
     1.0000   1.0000   1.0000   1.0000   1.0000   1.0000   1.0000   1.0000
     1.0000   1.0000   1.0000   1.0000   1.0000   1.0000   1.0000   1.0000
     1.0000   1.0000   1.0000   1.0000   1.0000   1.0000   1.0000   1.0000
     1.0000   1.0000   1.0000   1.0000   1.0000   1.0000   1.0000   1.0000
     1.0000   1.0000   1.0000   1.0000   1.0000   1.0000   1.0000   1.0000
     1.0000   1.0000   1.0000   1.0000   1.0000   1.0000   1.0000   1.0000
     1.0000   1.0000   1.0000   1.0000   1.0000   1.0000   1.0000   1.0000
     1.0000   1.0000   1.0000   1.0000   1.0000   1.0000   1.0000   1.0000
     1.0000   1.0000   1.0000   1.0000   1.0000   1.0000   1.0000   1.0000
     1.0000   1.0000   1.0000   1.0000   1.0000   1.0000   1.0000   1.0000
     1.0000   1.0000   1.0000   1.0000   1.0000   1.0000   1.0000   1.0000
     1.0000   1.0000   1.0000   1.0000   1.0000   1.0000   1.0000   1.0000
     1.0000   1.0000   1.0000   1.0000   1.0000   1.0000   1.0000   1.0000
     1.0000   1.0000   1.0000   1.0000   1.0000   1.0000   1.0000   1.0000
     1.0000   1.0000   1.0000   1.0000   1.0000   1.0000   1.0000   1.0000
     1.0000   1.0000   1.0000   1.0000   1.0000   1.0000   1.0000   1.0000
     1.0000   1.0000   1.0000   1.0000   1.0000   1.0000   1.0000   1.0000
     1.0000   1.0000   1.0000   1.0000   1.0000   1.0000   1.0000   1.0000
     1.0000   1.0000   1.0000   1.0000   1.0000   1.0000   1.0000   1.0000
     1.0000   1.0000   1.0000   1.0000   1.0000   1.0000   1.0000   1.0000
     1.0000   1.0000   1.0000   1.0000   1.0000   1.0000   1.0000   1.0000
     1.0000   1.0000   1.0000   1.0000   1.0000   1.0000   1.0000   1.0000
     1.0000   1.0000   1.0000   1.0000   1.0000   1.0000   1.0000   1.0000
     1.0000   1.0000   1.0000   1.0000   1.0000   1.0000   1.0000   1.0000
     1.0000   1.0000   1.0000   1.0000   1.0000   1.0000   1.0000   1.0000
     1.0000   1.0000   1.0000   1.0000   1.0000   1.0000   1.0000   1.0000
     1.0000   1.0000   1.0124   1.0127   1.0170   1.0184   1.0400   1.0500
     1.0456   1.0438   1.0384   0.8666   0.8161   0.3172   0.1781   0.0967
     0.0922   0.0000   0.0000   0.0000   0.0000   0.0000   0.0000   0.0000
     0.0000   0.0000   0.0000   0.0000   0.0000   0.0000   0.0000   0.0000
     0.0000   0.0000   0.0000   0.0000   0.0000   0.0000   0.0000   0.0000
     0.0000   0.0000   0.0000   0.0000   0.0000   0.0000   0.0000   0.0000
     0.0000   0.0000   0.0000   0.0000   0.0000   0.0000   0.0000   0.0000
     0.0000   0.0000   0.0000   0.0000   0.0000   0.0000   0.0000   0.0000
     0.0000   0.0000   0.0000   0.0000   0.0000   0.0000   0.0000   0.0000
     0.0000   0.0000   0.0000   0.0000   0.0000   0.0000   0.0000   0.0000
     0.0000   0.0000   0.0000   0.0000   0.0000   0.0000   0.0000   0.0000
     0.0000   0.0000   0.0000   0.0000   0.0000   0.0000   0.0000   0.0000
     0.0000   0.0000   0.0000   0.0000   0.0000   0.0000   0.0000   0.0000
     0.0000   0.0000   0.0000   0.0000   0.0000   0.0000   0.0000   0.0000

          k =-0.5000-0.6659-1.3845 ( 72036 PWs)   bands (ev):

  -125.3555-125.3549-125.3542-125.3530-125.3479-125.3460-125.3452-125.3433
  -125.2636-125.2632-125.2622-125.2616-125.2563-125.2539-125.2536-125.2509
  -125.1549-125.1507-125.1506-125.1493-125.1487-125.1479-125.1464-125.1451
  -125.0650-125.0643-125.0642-125.0640-125.0635-125.0629-125.0626-125.0624
  -124.9858-124.9818-124.9798-124.9766-124.9761-124.9731-124.9716-124.9693
  -124.8863-124.8818-124.8804-124.8789-124.8779-124.8770-124.8733-124.8710
   -79.5177 -79.5167 -79.5100 -79.5078 -79.5073 -79.5066 -79.5056 -79.5046
   -79.5033 -79.5026 -79.5016 -79.5003 -79.5000 -79.4993 -79.4989 -79.4976
   -79.4966 -79.4956 -79.4948 -79.4934 -79.4927 -79.4921 -79.4906 -79.4899
   -79.4277 -79.4273 -79.4200 -79.4175 -79.4174 -79.4169 -79.4157 -79.4152
   -79.4103 -79.4097 -79.4097 -79.4078 -79.4075 -79.4072 -79.4068 -79.4064
   -79.4057 -79.4042 -79.4024 -79.4006 -79.3999 -79.3982 -79.3979 -79.3951
   -79.3138 -79.3115 -79.3105 -79.3102 -79.3084 -79.3060 -79.3051 -79.3040
   -79.3034 -79.3033 -79.3026 -79.3021 -79.3009 -79.2992 -79.2991 -79.2980
   -79.2973 -79.2966 -79.2952 -79.2946 -79.2940 -79.2934 -79.2931 -79.2906
   -79.2257 -79.2249 -79.2247 -79.2245 -79.2229 -79.2223 -79.2221 -79.2220
   -79.2214 -79.2206 -79.2205 -79.2204 -79.2159 -79.2153 -79.2152 -79.2150
   -79.2143 -79.2138 -79.2135 -79.2132 -79.2082 -79.2075 -79.2073 -79.2071
   -79.1541 -79.1501 -79.1475 -79.1447 -79.1436 -79.1409 -79.1401 -79.1394
   -79.1371 -79.1353 -79.1331 -79.1310 -79.1293 -79.1274 -79.1272 -79.1242
   -79.1237 -79.1220 -79.1210 -79.1193 -79.1173 -79.1172 -79.1130 -79.1095
   -79.0588 -79.0551 -79.0547 -79.0530 -79.0520 -79.0509 -79.0474 -79.0454
   -79.0376 -79.0324 -79.0314 -79.0307 -79.0299 -79.0289 -79.0279 -79.0261
   -79.0249 -79.0245 -79.0228 -79.0222 -79.0104 -79.0088 -79.0073 -79.0032
   -18.2242 -15.6433 -13.4534 -12.4952 -11.0421  -9.6692  -8.8769  -7.8938
    -7.8385  -7.8373  -7.5736  -7.5725  -6.9304  -6.9030  -6.9024  -6.8854
    -6.8836  -6.8562  -6.8560  -6.8388  -6.8381  -6.8369  -6.8359  -6.8253
    -6.8249  -6.8003  -6.7997  -6.7814  -6.7801  -6.7511  -6.7509  -6.7157
    -6.7148  -6.7101  -6.7090  -6.7048  -6.7033  -6.6641  -6.6639  -6.6554
    -6.6544  -6.6467  -6.6460  -6.6418  -6.6408  -6.6391  -6.6388  -6.6219
    -6.6217  -6.5650  -6.5644  -6.5550  -6.5546  -6.5348  -6.5340  -6.5307
    -6.5287  -6.4710  -6.4707  -6.4704  -6.4694  -6.4605  -6.4601  -6.4188
    -6.4185  -6.4173  -6.4173  -6.4115  -6.4101  -6.4063  -6.4056  -6.3830
    -6.3827  -6.3592  -6.3590  -6.3565  -6.3559  -6.3352  -6.3348  -6.3283
    -6.3277  -6.3182  -6.3179  -6.3150  -6.3149  -6.2725  -6.2721  -6.2721
    -6.2717  -6.2690  -6.2681  -6.2642  -6.2632  -6.2466  -6.2449  -6.2392
    -6.2376  -6.2163  -6.2157  -6.2030  -6.2023  -6.1922  -6.1915  -6.1880
    -6.1870  -6.1526  -6.1516  -6.1364  -6.1357  -6.1346  -6.1334  -6.1295
    -6.1291  -6.1287  -6.1278  -6.1171  -6.1159  -6.0940  -6.0936  -6.0859
    -6.0850  -6.0659  -6.0656  -6.0655  -6.0646  -6.0478  -6.0470  -6.0340
    -6.0332  -6.0316  -6.0311  -6.0219  -6.0210  -6.0175  -6.0166  -6.0063
    -6.0055  -5.9866  -5.9856  -5.9842  -5.9835  -5.9701  -5.9691  -5.9473
    -5.9468  -5.9340  -5.9333  -5.9152  -5.9148  -5.9121  -5.9119  -5.8988
    -5.8980  -5.8886  -5.8872  -5.8633  -5.8621  -5.8580  -5.8578  -5.8537
    -5.8533  -5.8364  -5.8348  -5.8326  -5.8322  -5.8300  -5.8299  -5.8174
    -5.8168  -5.8151  -5.8141  -5.8076  -5.8070  -5.7947  -5.7940  -5.7816
    -5.7813  -5.7722  -5.7719  -5.7688  -5.7681  -5.7670  -5.7666  -5.7479
    -5.7458  -5.7403  -5.7396  -5.7237  -5.7226  -5.7222  -5.7207  -5.7168
    -5.7165  -5.7162  -5.7140  -5.6967  -5.6960  -5.6955  -5.6948  -5.6820
    -5.6814  -5.6752  -5.6746  -5.6742  -5.6719  -5.6700  -5.6687  -5.6662
    -5.6653  -5.6602  -5.6593  -5.6550  -5.6544  -5.6533  -5.6523  -5.6412
    -5.6403  -5.6309  -5.6302  -5.6237  -5.6221  -5.6138  -5.6123  -5.6057
    -5.6027  -5.6023  -5.6017  -5.5943  -5.5936  -5.5826  -5.5776  -5.5770
    -5.5766  -5.5764  -5.5660  -5.5655  -5.5525  -5.5501  -5.5411  -5.5383
    -5.5338  -5.5317  -5.5181  -5.5167  -5.4949  -5.4930  -5.4857  -5.4835
    -5.4797  -5.4779  -5.4641  -5.4604  -5.4287  -5.4156  -5.4122  -5.0877
    -5.0811  -4.9287  -4.8445  -4.8390  -4.6320  -4.6303  -4.4773  -4.4550
    -4.4506  -3.9176  -3.7353  -3.7338  -3.6040  -3.6032  -3.2614  -2.9465
    -2.9408  -2.8480  -2.8478  -2.7480  -2.7410  -2.5971  -2.4370  -2.4221
    -1.9084  -1.9028  -1.7824  -1.7788  -1.7058  -1.7051  -0.9943  -0.9918
    -0.7469  -0.4453   0.0007   0.0115   0.0625   0.0659   0.1032   0.1063
     0.1098   0.1189   0.5712   0.8108   0.8304   0.9113   0.9184   1.0261
     1.0485   1.1677   1.1941   1.2100   1.2125   1.2200   1.2665   1.2678
     1.2985   1.8565   1.8595   2.0021   2.0046   2.3534   2.3550   2.3665
     2.3730   2.5559   2.5572   3.1762   3.1773   3.2320   3.2346   3.3953
     3.4242   3.5119   3.5133   3.9473   3.9832   3.9906   3.9956   4.0058
     4.0822   4.2360   4.2519   4.3093   4.3770   4.4028   4.4364   4.4545
     4.5026   4.5358   4.7610   4.7729   4.8715   5.0560   5.1921   5.1970
     5.2488   5.2763   5.5003   5.6050   5.6439   5.6593   5.6956   5.8782
     5.9434   5.9460   5.9608   5.9982   6.0579   6.0737   6.0776   6.2233
     6.2309   6.2996   6.3807   6.3881   6.4333   6.4842   6.5887   6.7471
     6.7933   6.8060   6.8576   6.9730   7.0396   7.1278   7.1613   7.1688
     7.2064   7.2332   7.3026   7.4083   7.4204   7.4249   7.4396   7.6388
     7.7166   7.7312   7.7678   7.7809   7.8176   7.8821   7.9158   7.9245
     7.9761   8.0508   8.0558   8.1278   8.1613   8.1907   8.2062   8.2375

     occupation numbers 
     1.0000   1.0000   1.0000   1.0000   1.0000   1.0000   1.0000   1.0000
     1.0000   1.0000   1.0000   1.0000   1.0000   1.0000   1.0000   1.0000
     1.0000   1.0000   1.0000   1.0000   1.0000   1.0000   1.0000   1.0000
     1.0000   1.0000   1.0000   1.0000   1.0000   1.0000   1.0000   1.0000
     1.0000   1.0000   1.0000   1.0000   1.0000   1.0000   1.0000   1.0000
     1.0000   1.0000   1.0000   1.0000   1.0000   1.0000   1.0000   1.0000
     1.0000   1.0000   1.0000   1.0000   1.0000   1.0000   1.0000   1.0000
     1.0000   1.0000   1.0000   1.0000   1.0000   1.0000   1.0000   1.0000
     1.0000   1.0000   1.0000   1.0000   1.0000   1.0000   1.0000   1.0000
     1.0000   1.0000   1.0000   1.0000   1.0000   1.0000   1.0000   1.0000
     1.0000   1.0000   1.0000   1.0000   1.0000   1.0000   1.0000   1.0000
     1.0000   1.0000   1.0000   1.0000   1.0000   1.0000   1.0000   1.0000
     1.0000   1.0000   1.0000   1.0000   1.0000   1.0000   1.0000   1.0000
     1.0000   1.0000   1.0000   1.0000   1.0000   1.0000   1.0000   1.0000
     1.0000   1.0000   1.0000   1.0000   1.0000   1.0000   1.0000   1.0000
     1.0000   1.0000   1.0000   1.0000   1.0000   1.0000   1.0000   1.0000
     1.0000   1.0000   1.0000   1.0000   1.0000   1.0000   1.0000   1.0000
     1.0000   1.0000   1.0000   1.0000   1.0000   1.0000   1.0000   1.0000
     1.0000   1.0000   1.0000   1.0000   1.0000   1.0000   1.0000   1.0000
     1.0000   1.0000   1.0000   1.0000   1.0000   1.0000   1.0000   1.0000
     1.0000   1.0000   1.0000   1.0000   1.0000   1.0000   1.0000   1.0000
     1.0000   1.0000   1.0000   1.0000   1.0000   1.0000   1.0000   1.0000
     1.0000   1.0000   1.0000   1.0000   1.0000   1.0000   1.0000   1.0000
     1.0000   1.0000   1.0000   1.0000   1.0000   1.0000   1.0000   1.0000
     1.0000   1.0000   1.0000   1.0000   1.0000   1.0000   1.0000   1.0000
     1.0000   1.0000   1.0000   1.0000   1.0000   1.0000   1.0000   1.0000
     1.0000   1.0000   1.0000   1.0000   1.0000   1.0000   1.0000   1.0000
     1.0000   1.0000   1.0000   1.0000   1.0000   1.0000   1.0000   1.0000
     1.0000   1.0000   1.0000   1.0000   1.0000   1.0000   1.0000   1.0000
     1.0000   1.0000   1.0000   1.0000   1.0000   1.0000   1.0000   1.0000
     1.0000   1.0000   1.0000   1.0000   1.0000   1.0000   1.0000   1.0000
     1.0000   1.0000   1.0000   1.0000   1.0000   1.0000   1.0000   1.0000
     1.0000   1.0000   1.0000   1.0000   1.0000   1.0000   1.0000   1.0000
     1.0000   1.0000   1.0000   1.0000   1.0000   1.0000   1.0000   1.0000
     1.0000   1.0000   1.0000   1.0000   1.0000   1.0000   1.0000   1.0000
     1.0000   1.0000   1.0000   1.0000   1.0000   1.0000   1.0000   1.0000
     1.0000   1.0000   1.0000   1.0000   1.0000   1.0000   1.0000   1.0000
     1.0000   1.0000   1.0000   1.0000   1.0000   1.0000   1.0000   1.0000
     1.0000   1.0000   1.0000   1.0000   1.0000   1.0000   1.0000   1.0000
     1.0000   1.0000   1.0000   1.0000   1.0000   1.0000   1.0000   1.0000
[...]
     atom   57 type  4   force =     0.00000000    0.00000000    0.00000000
     atom   58 type  4   force =     0.00000000    0.00000000    0.00000000
     atom   59 type  4   force =     0.00000000    0.00000000    0.00000000
     atom   60 type  4   force =     0.00000000    0.00000000    0.00000000
     atom   61 type  4   force =     0.00000000    0.00000000    0.00000000
     atom   62 type  4   force =     0.00000000    0.00000000    0.00000000
     The SCF correction term to forces
     atom    1 type  1   force =    -0.00000000   -0.00000000    0.00000000
     atom    2 type  1   force =    -0.00000000   -0.00000000   -0.00000000
     atom    3 type  1   force =     0.00064652    0.00009163    0.00007061
     atom    4 type  1   force =     0.00048549    0.00016859    0.00004960
     atom    5 type  1   force =    -0.00023309    0.00005518    0.00034840
     atom    6 type  1   force =    -0.00008031   -0.00016566    0.00022101
     atom    7 type  1   force =    -0.00000000   -0.00000000   -0.00000000
     atom    8 type  1   force =    -0.00000000   -0.00000000   -0.00000000
     atom    9 type  1   force =     0.00048084    0.00015559    0.00005308
     atom   10 type  1   force =     0.00064639    0.00011211    0.00006702
     atom   11 type  1   force =    -0.00019276    0.00000477    0.00039093
     atom   12 type  1   force =    -0.00013393   -0.00004932    0.00031392
     atom   13 type  1   force =     0.00000000    0.00000000   -0.00000000
     atom   14 type  1   force =     0.00000000    0.00000000   -0.00000000
     atom   15 type  1   force =    -0.00060423   -0.00004100    0.00003402
     atom   16 type  1   force =    -0.00046238   -0.00022369    0.00000877
     atom   17 type  1   force =     0.00018088   -0.00001255   -0.00006577
     atom   18 type  1   force =     0.00003839    0.00004359    0.00000194
     atom   19 type  1   force =     0.00000000    0.00000000   -0.00000000
     atom   20 type  1   force =     0.00000000    0.00000000   -0.00000000
     atom   21 type  1   force =    -0.00045209   -0.00023861   -0.00005138
     atom   22 type  1   force =    -0.00060968   -0.00003337    0.00009958
     atom   23 type  1   force =     0.00014090   -0.00004779   -0.00000923
     atom   24 type  1   force =     0.00008171    0.00008129   -0.00005874
     atom   25 type  1   force =    -0.00000000    0.00000000   -0.00000000
     atom   26 type  1   force =    -0.00000000   -0.00000000   -0.00000000
     atom   27 type  1   force =    -0.00005698   -0.00002184    0.00002449
     atom   28 type  1   force =    -0.00014047   -0.00002364   -0.00001162
     atom   29 type  1   force =     0.00051417    0.00011809    0.00024731
     atom   30 type  1   force =     0.00038792    0.00009510    0.00027622
     atom   31 type  1   force =    -0.00000000   -0.00000000   -0.00000000
     atom   32 type  1   force =    -0.00000000   -0.00000000   -0.00000000
     atom   33 type  1   force =    -0.00001034   -0.00012583   -0.00002416
     atom   34 type  1   force =    -0.00019400    0.00007284    0.00003419
     atom   35 type  1   force =     0.00039095    0.00016692    0.00030204
     atom   36 type  1   force =     0.00052049    0.00005011    0.00022613
     atom   37 type  1   force =     0.00000000    0.00000000    0.00000000
     atom   38 type  1   force =     0.00000000    0.00000000    0.00000000
     atom   39 type  1   force =     0.00011559    0.00013909    0.00003955
     atom   40 type  1   force =     0.00021298   -0.00005781   -0.00006072
     atom   41 type  1   force =    -0.00048557   -0.00003885    0.00002678
     atom   42 type  1   force =    -0.00036577   -0.00019695    0.00009018
     atom   43 type  1   force =     0.00000000    0.00000000    0.00000000
     atom   44 type  1   force =     0.00000000    0.00000000    0.00000000
     atom   45 type  1   force =     0.00006864    0.00010287   -0.00003408
     atom   46 type  1   force =     0.00026717   -0.00002133    0.00001954
     atom   47 type  1   force =    -0.00036877   -0.00018641    0.00005145
     atom   48 type  1   force =    -0.00048481   -0.00004915    0.00007479
     atom   49 type  3   force =    -0.00000063    0.00001040   -0.00000448
     atom   50 type  3   force =     0.00000752    0.00000081    0.00000994
     atom   51 type  3   force =    -0.00000993    0.00004815    0.00000961
     atom   52 type  3   force =     0.00001028    0.00000128    0.00005293
     atom   53 type  3   force =    -0.00001712    0.00004840    0.00000679
     atom   54 type  3   force =     0.00000092    0.00001511    0.00003742
     atom   55 type  3   force =    -0.00000253    0.00002446   -0.00001415
     atom   56 type  2   force =     0.00001192   -0.00001259    0.00006039
     atom   57 type  4   force =     0.00000793    0.00000375    0.00000264
     atom   58 type  4   force =     0.00000111   -0.00000217   -0.00000024
     atom   59 type  4   force =     0.00000072    0.00000743    0.00000051
     atom   60 type  4   force =    -0.00000744   -0.00000572   -0.00000645
     atom   61 type  4   force =     0.00000047   -0.00000260    0.00001315
     atom   62 type  4   force =    -0.00000015   -0.00000284    0.00001242

     DFT-D3 dispersion contribution to forces:
     atom    1 type  1   force =    -0.00102425   -0.00025208    0.00203398
     atom    2 type  1   force =    -0.00095629   -0.00025529    0.00210119
     atom    3 type  1   force =     0.00079818    0.00020601    0.00087335
     atom    4 type  1   force =     0.00075050    0.00024578    0.00077170
     atom    5 type  1   force =    -0.00026261    0.00037269   -0.00059001
     atom    6 type  1   force =    -0.00011299   -0.00041664   -0.00041601
     atom    7 type  1   force =    -0.00097951   -0.00021972    0.00208316
     atom    8 type  1   force =    -0.00100811   -0.00026146    0.00204789
     atom    9 type  1   force =     0.00066080    0.00020689    0.00081645
     atom   10 type  1   force =     0.00081263    0.00023750    0.00085639
     atom   11 type  1   force =    -0.00026291    0.00024936    0.00001441
     atom   12 type  1   force =    -0.00009113   -0.00042690   -0.00094342
     atom   13 type  1   force =    -0.00116922   -0.00028569    0.00161816
     atom   14 type  1   force =    -0.00117400   -0.00028793    0.00162760
     atom   15 type  1   force =     0.00041356    0.00011292    0.00021349
     atom   16 type  1   force =     0.00023596    0.00014101   -0.00005550
     atom   17 type  1   force =     0.00091400    0.00024683   -0.00231800
     atom   18 type  1   force =     0.00082167    0.00014401   -0.00231593
     atom   19 type  1   force =    -0.00117496   -0.00028814    0.00161057
     atom   20 type  1   force =    -0.00116548   -0.00028873    0.00162916
     atom   21 type  1   force =     0.00049661    0.00019132    0.00030736
     atom   22 type  1   force =     0.00044370    0.00013134    0.00011754
     atom   23 type  1   force =     0.00090114    0.00021650   -0.00222879
     atom   24 type  1   force =     0.00086631    0.00018264   -0.00237544
     atom   25 type  1   force =     0.00049607    0.00011865    0.00220590
     atom   26 type  1   force =     0.00049092    0.00013535    0.00227150
     atom   27 type  1   force =    -0.00055266   -0.00018497   -0.00046020
     atom   28 type  1   force =    -0.00053379   -0.00015555   -0.00039384
     atom   29 type  1   force =    -0.00063904   -0.00007309   -0.00236882
     atom   30 type  1   force =    -0.00091245   -0.00017663   -0.00117588
     atom   31 type  1   force =     0.00047245    0.00011840    0.00219835
     atom   32 type  1   force =     0.00050990    0.00013625    0.00221892
     atom   33 type  1   force =    -0.00059707   -0.00018791   -0.00046050
     atom   34 type  1   force =    -0.00058939   -0.00018151   -0.00044306
     atom   35 type  1   force =    -0.00079097    0.00000854   -0.00168234
     atom   36 type  1   force =    -0.00072214   -0.00042154   -0.00188233
     atom   37 type  1   force =     0.00062431    0.00015028    0.00206856
     atom   38 type  1   force =     0.00063446    0.00016157    0.00206532
     atom   39 type  1   force =    -0.00063847   -0.00025361    0.00010586
     atom   40 type  1   force =    -0.00055945   -0.00012368    0.00022682
     atom   41 type  1   force =     0.00098226    0.00039203   -0.00124874
     atom   42 type  1   force =     0.00138828    0.00015721   -0.00076598
     atom   43 type  1   force =     0.00063986    0.00015786    0.00204937
     atom   44 type  1   force =     0.00062464    0.00015340    0.00207886
     atom   45 type  1   force =    -0.00047384   -0.00019263    0.00007876
     atom   46 type  1   force =    -0.00064693   -0.00017055    0.00021362
     atom   47 type  1   force =     0.00119423    0.00039260   -0.00081270
     atom   48 type  1   force =     0.00103780    0.00020808   -0.00139393
     atom   49 type  3   force =    -0.00015432   -0.00015231   -0.00052490
     atom   50 type  3   force =    -0.00033557   -0.00035396   -0.00111594
     atom   51 type  3   force =     0.00028439    0.00027668   -0.00101958
     atom   52 type  3   force =     0.00012400    0.00024728   -0.00133197
     atom   53 type  3   force =    -0.00021951   -0.00015085   -0.00080200
     atom   54 type  3   force =     0.00033553   -0.00005299   -0.00114403
     atom   55 type  3   force =    -0.00026542   -0.00018034   -0.00101283
     atom   56 type  2   force =     0.00008574    0.00014928   -0.00127962
     atom   57 type  4   force =     0.00004624   -0.00020427   -0.00003939
     atom   58 type  4   force =    -0.00008152   -0.00011783   -0.00065435
     atom   59 type  4   force =     0.00015006    0.00022272   -0.00033639
     atom   60 type  4   force =    -0.00003008   -0.00001594   -0.00012583
     atom   61 type  4   force =    -0.00015437    0.00007131   -0.00136918
     atom   62 type  4   force =     0.00004227    0.00019043   -0.00141680

     Total force =     0.023780     Total SCF correction =     0.002367

     DFT-D3 dispersion Force =     0.012442


     Computing stress (Cartesian axis) and pressure


     negative rho (up, down):  4.453E-03 0.000E+00
          total   stress  (Ry/bohr**3)                   (kbar)     P=      -16.61
  -0.00013227   0.00002950   0.00000249          -19.46        4.34        0.37
   0.00002950  -0.00018624   0.00000180            4.34      -27.40        0.27
   0.00000249   0.00000180  -0.00002021            0.37        0.27       -2.97

     kinetic stress (kbar)  11622.46     19.99     -0.43
                               19.99  11588.18     16.73
                               -0.43     16.73  11695.16

     local   stress (kbar)-845247.54   2915.80   1473.77
                             2915.80-856219.96   1025.41
                             1473.77   1025.41 853523.68

     nonloc. stress (kbar)  -1120.82     -4.65     -0.72
                               -4.65  -1103.74     -2.18
                               -0.72     -2.18  -1144.75

     hartree stress (kbar) 447516.01  -1264.08   -635.40
                            -1264.08 452313.33   -407.82
                             -635.40   -407.82-395279.92

     exc-cor stress (kbar)  -5684.46     -0.90     -0.05
                               -0.90  -5681.92     -1.20
                               -0.05     -1.20  -5692.06

     corecor stress (kbar)    -71.98      0.16     -0.14
                                0.16    -72.20      0.44
                               -0.14      0.44    -70.90

     ewald   stress (kbar) 392973.17  -1662.42   -836.97
                            -1662.42 399156.81   -631.17
                             -836.97   -631.17-463030.88

     hubbard stress (kbar)      0.00      0.00      0.00
                                0.00      0.00      0.00
                                0.00      0.00      0.00

     DFT-D   stress (kbar)     -6.28      0.44      0.32
                                0.44     -7.90      0.07
                                0.32      0.07     -3.30

     XDM     stress (kbar)      0.00      0.00      0.00
                                0.00      0.00      0.00
                                0.00      0.00      0.00

     dft-nl  stress (kbar)      0.00      0.00      0.00
                                0.00      0.00      0.00
                                0.00      0.00      0.00

     TS-vdW  stress (kbar)      0.00      0.00      0.00
                                0.00      0.00      0.00
                                0.00      0.00      0.00

     MDB     stress (kbar)      0.00      0.00      0.00
                                0.00      0.00      0.00
                                0.00      0.00      0.00

     3D-RISM stress (kbar)      0.00      0.00      0.00
                                0.00      0.00      0.00
                                0.00      0.00      0.00

     Energy error            =      1.0E-03 Ry
     Gradient error          =      1.2E-02 Ry/Bohr

     number of scf cycles    =  31
     number of bfgs steps    =  30

     energy             old  =  -22310.4227476339 Ry
     energy             new  =  -22310.4237931607 Ry

     CASE: energy            _new < energy            _old

     new trust radius        =       0.0904442295 bohr
     new conv_thr            =       0.0000001157 Ry


ATOMIC_POSITIONS (angstrom)
Zn              -1.0735560000        1.0841420000        1.1977640000    0   0   0
Zn              -2.3094850000        6.1646920000        1.1977640000    0   0   0
Zn              -4.9764908619        0.1397625426        3.7184571101
Zn              -6.2165555952        5.2221527237        3.7105661448
Zn              -9.0327788445       -0.8574907023        5.8468233126
Zn             -10.2660525647        4.2227098664        5.7737973804
Zn              -1.6915200000        3.6244170000        1.1977640000    0   0   0
Zn              -2.9274500000        8.7049670000        1.1977640000    0   0   0
Zn              -5.6060542447        2.6797427870        3.7168901752
Zn              -6.8287390339        7.7626457811        3.7158243992
Zn              -9.6437887786        1.6801273345        5.8144286895
Zn             -10.8959932442        6.7592908502        5.8079277489
Zn               4.4565960000        1.0841420000        1.1977640000    0   0   0
Zn               3.2206660000        6.1646920000        1.1977640000    0   0   0
Zn               0.5162766742        0.1289178674        3.5620619688
Zn              -0.7436898274        5.2127363338        3.5158042115
Zn              -3.2616192279       -0.7859709123        5.6864845492
Zn              -4.5046949893        4.2900252942        5.7027598320
Zn               3.8386310000        3.6244170000        1.1977640000    0   0   0
Zn               2.6027020000        8.7049670000        1.1977640000    0   0   0
Zn              -0.0955067163        2.6744480300        3.5548260430
Zn              -1.3394821252        7.7541877491        3.5577891584
Zn              -3.8816157280        1.7559369339        5.6931124375
Zn              -5.1183165530        6.8312096123        5.6939984638
Zn               1.6915200000        0.4114910000        0.8555450000    0   0   0
Zn               0.4555910000        5.4920410000        0.8555450000    0   0   0
Zn              -2.3331908331       -0.5712961669        3.0002743578
Zn              -3.5753841737        4.5076300235        3.0146636102
Zn              -6.4679190292       -1.5703840370        5.2966689632
Zn              -7.6748108321        3.5175603841        5.3783298964
Zn               1.0735560000        2.9517660000        0.8555450000    0   0   0
Zn              -0.1623740000        8.0323160000        0.8555450000    0   0   0
Zn              -2.9558449367        1.9673395460        3.0052722144
Zn              -4.1918310289        7.0492918152        3.0052632094
Zn              -7.0701021961        0.9721010514        5.3418834041
Zn              -8.3067555060        6.0571033771        5.3229411176
Zn               7.2216720000        0.4114910000        0.8555450000    0   0   0
Zn               5.9857420000        5.4920410000        0.8555450000    0   0   0
Zn               3.1691916840       -0.5804691514        3.0331360028
Zn               1.9469675922        4.5091384026        3.0413766104
Zn              -0.6768669676       -1.4994475492        5.4711908157
Zn              -1.8996368275        3.5856540843        5.4802001252
Zn               6.6037070000        2.9517660000        0.8555450000    0   0   0
Zn               5.3677780000        8.0323160000        0.8555450000    0   0   0
Zn               2.5727990512        1.9654048666        3.0340864021
Zn               1.3132932142        7.0430444611        3.0369273257
Zn              -1.2927986747        1.0422698331        5.4677288001
Zn              -2.5284362369        6.1212179256        5.4655362012
C               -8.8010563066       -1.1038766308       10.6776646420
C              -10.7565614750        1.7947416853        9.5979147366
C               -8.0554509957        1.1160701946        9.9549884204
C               -9.6542249010        2.7557830800        9.3956161873
C               -9.1581696497        0.1138540970       10.1944358233
C               -8.3042066934        2.3781546837        9.5895184107
C              -10.5002484651        0.5305602514        9.9659961796
N               -9.9465054805        3.9843828848        8.9510588024
H               -7.7507548705       -1.3041752461       10.8765732607
H              -11.7624124899        2.2049554920        9.4461808010
H               -7.0421679535        0.7274743247       10.1202685962
H               -9.5378461738       -1.8798395769       10.8750115695
H               -9.1763751704        4.6150421830        8.7460817881
H              -10.8880004045        4.2872347757        8.7162713964



     Writing config-only to output data dir ./tmp/Zn101_3layer_ptoluidine_relax.save/ :
     XML data file
     NEW-OLD atomic charge density approx. for the potential

     negative rho (up, down):  4.470E-03 0.000E+00

     total cpu time spent up to now is    89865.2 secs

     Self-consistent Calculation

     iteration #  1     ecut=    40.00 Ry     beta= 0.40
     Davidson diagonalization with overlap

---- Real-time Memory Report at c_bands before calling an iterative solver
           465 MiB given to the printing process from OS
             0 MiB allocation reported by mallinfo(arena+hblkhd)
         28869 MiB available memory on the node where the printing process lives
------------------
     ethr =  1.00E-06,  avg # of iterations =  6.0

     negative rho (up, down):  4.459E-03 0.000E+00

     total cpu time spent up to now is    90357.3 secs

     total energy              =  -22310.42331980 Ry
     estimated scf accuracy    <       0.00408355 Ry

     iteration #  2     ecut=    40.00 Ry     beta= 0.40
     Davidson diagonalization with overlap

---- Real-time Memory Report at c_bands before calling an iterative solver
           465 MiB given to the printing process from OS
             0 MiB allocation reported by mallinfo(arena+hblkhd)
         28751 MiB available memory on the node where the printing process lives
------------------
     ethr =  4.09E-07,  avg # of iterations =  9.5

     negative rho (up, down):  4.489E-03 0.000E+00

     total cpu time spent up to now is    90582.6 secs

     total energy              =  -22310.41803128 Ry
     estimated scf accuracy    <       0.19951407 Ry

     iteration #  3     ecut=    40.00 Ry     beta= 0.40
     Davidson diagonalization with overlap

---- Real-time Memory Report at c_bands before calling an iterative solver
           465 MiB given to the printing process from OS
             0 MiB allocation reported by mallinfo(arena+hblkhd)
         28728 MiB available memory on the node where the printing process lives
------------------
