
     Program PWSCF v.7.3.1 starts on  4Apr2025 at 23:30:55 

     This program is part of the open-source Quantum ESPRESSO suite
     for quantum simulation of materials; please cite
         "P. Giannozzi et al., J. Phys.:Condens. Matter 21 395502 (2009);
         "P. Giannozzi et al., J. Phys.:Condens. Matter 29 465901 (2017);
         "P. Giannozzi et al., J. Chem. Phys. 152 154105 (2020);
          URL http://www.quantum-espresso.org", 
     in publications or presentations arising from this work. More details at
     http://www.quantum-espresso.org/quote

     Parallel version (MPI), running on    33 processors

     MPI processes distributed on     1 nodes
     34097 MiB available memory on the printing compute node when the environment starts

     Waiting for input...
     Reading input from standard input
Warning: card &CELL ignored
Warning: card   CELL_DOFREE = 'ALL' ignored
Warning: card / ignored

     Current dimensions of program PWSCF are:
     Max number of different atomic species (ntypx) = 10
     Max number of k-points (npk) =  40000
     Max angular momentum in pseudopotentials (lmaxx) =  4

     File ./tmp/03_Zn100_ABN_topsite_tilt.update deleted, as requested

     File ./tmp/03_Zn100_ABN_topsite_tilt.bfgs deleted, as requested
     file C.pbe-n-kjpaw_psl.1.0.0.UPF: wavefunction(s)  2S 2P renormalized

     R & G space division:  proc/nbgrp/npool/nimage =      33
     Subspace diagonalization in iterative solution of the eigenvalue problem:
     one sub-group per band group will be used
     custom distributed-memory algorithm (size of sub-group:  5*  5 procs)


     Parallelization info
     --------------------
     sticks:   dense  smooth     PW     G-vecs:    dense   smooth      PW
     Min         245     140     36                38015    16424    2211
     Max         246     141     37                38023    16429    2226
     Sum        8103    4637   1215              1254623   542067   73181

     Using Slab Decomposition



     bravais-lattice index     =            0
     lattice parameter (alat)  =      18.4179  a.u.
     unit-cell volume          =   15858.2170 (a.u.)^3
     number of atoms/cell      =           63
     number of atomic types    =            4
     number of electrons       =      1004.00
     number of Kohn-Sham states=          602
     kinetic-energy cutoff     =      40.0000  Ry
     charge density cutoff     =     280.0000  Ry
     scf convergence threshold =      1.0E-06
     mixing beta               =       0.4000
     number of iterations used =            8  plain     mixing
     energy convergence thresh.=      1.0E-05
     force convergence thresh. =      5.0E-04
     Exchange-correlation= PBE
                           (   1   4   3   4   0   0   0)
     nstep                     =          500


     celldm(1)=  18.417879  celldm(2)=   0.000000  celldm(3)=   0.000000
     celldm(4)=   0.000000  celldm(5)=   0.000000  celldm(6)=   0.000000

     crystal axes: (cart. coord. in units of alat)
               a(1) = (   1.000000   0.000000   0.000000 )  
               a(2) = (   0.000000   1.072963   0.000000 )  
               a(3) = (   0.000000  -1.365810   2.365652 )  

     reciprocal axes: (cart. coord. in units 2 pi/alat)
               b(1) = (  1.000000  0.000000 -0.000000 )  
               b(2) = ( -0.000000  0.931999  0.538090 )  
               b(3) = (  0.000000  0.000000  0.422716 )  


     PseudoPot. # 1 for Zn read from file:
     /home/ys/qepseudo/SSSP_1.3.0_PBE_efficiency/Zn_pbe_v1.uspp.F.UPF
     MD5 check sum: df62231357ef9e81f77b2b3087fa5675
     Pseudo is Ultrasoft, Zval = 20.0
     Generated by new atomic code, or converted to UPF format
     Using radial grid of  943 points,  6 beta functions with: 
                l(1) =   0
                l(2) =   0
                l(3) =   1
                l(4) =   1
                l(5) =   2
                l(6) =   2
     Q(r) pseudized with  8 coefficients,  rinner =    1.100   1.100   1.100
                                                       1.100   1.100

     PseudoPot. # 2 for N  read from file:
     /home/ys/qepseudo/SSSP_1.3.0_PBE_efficiency/N.pbe-n-radius_5.UPF
     MD5 check sum: 16739722b17309cd8fe442a2ace49922
     Pseudo is Ultrasoft + core correction, Zval =  5.0
     Generated using "atomic" code by A. Dal Corso  v.5.1
     Using radial grid of 1085 points,  4 beta functions with: 
                l(1) =   0
                l(2) =   0
                l(3) =   1
                l(4) =   1
     Q(r) pseudized with 0 coefficients 


     PseudoPot. # 3 for C  read from file:
     /home/ys/qepseudo/SSSP_1.3.0_PBE_efficiency/C.pbe-n-kjpaw_psl.1.0.0.UPF
     MD5 check sum: 5d2aebdfa2cae82b50a7e79e9516da0f
     Pseudo is Projector augmented-wave + core cor, Zval =  4.0
     Generated using "atomic" code by A. Dal Corso  v.5.1
     Shape of augmentation charge: PSQ
     Using radial grid of 1073 points,  4 beta functions with: 
                l(1) =   0
                l(2) =   0
                l(3) =   1
                l(4) =   1
     Q(r) pseudized with 0 coefficients 


     PseudoPot. # 4 for H  read from file:
     /home/ys/qepseudo/SSSP_1.3.0_PBE_efficiency/H.pbe-rrkjus_psl.1.0.0.UPF
     MD5 check sum: f52b6d4d1c606e5624b1dc7b2218f220
     Pseudo is Ultrasoft, Zval =  1.0
     Generated using "atomic" code by A. Dal Corso  v.5.1
     Using radial grid of  929 points,  2 beta functions with: 
                l(1) =   0
                l(2) =   0
     Q(r) pseudized with 0 coefficients 


     atomic species   valence    mass     pseudopotential
     Zn               20.00    65.38000     Zn( 1.00)
     N                 5.00    14.00674     N ( 1.00)
     C                 4.00    12.01070     C ( 1.00)
     H                 1.00     1.00794     H ( 1.00)

     No symmetry found


                                    s                        frac. trans.

      isym =  1     identity                                     

 cryst.   s( 1) = (     1          0          0      )
                  (     0          1          0      )
                  (     0          0          1      )

 cart.    s( 1) = (  1.0000000  0.0000000  0.0000000 )
                  (  0.0000000  1.0000000 -0.0000000 )
                  (  0.0000000  0.0000000  1.0000000 )


   Cartesian axes

     site n.     atom                  positions (alat units)
         1        Zn     tau(   1) = (   0.1250000   0.1341203   0.0774344  )
         2        Zn     tau(   2) = (   0.1250000   0.6706017   0.0774344  )
         3        Zn     tau(   3) = (   0.0508363   0.0009643   0.3752629  )
         4        Zn     tau(   4) = (   0.0501534   0.5389363   0.3721821  )
         5        Zn     tau(   5) = (   0.1215161  -0.1324080   0.6244402  )
         6        Zn     tau(   6) = (   0.1166788   0.4046652   0.6114315  )
         7        Zn     tau(   7) = (   0.1250000   0.4023610   0.0774344  )
         8        Zn     tau(   8) = (   0.1250000   0.9388424   0.0774344  )
         9        Zn     tau(   9) = (   0.0516553   0.2686625   0.3688024  )
        10        Zn     tau(  10) = (   0.0507316   0.8071426   0.3739401  )
        11        Zn     tau(  11) = (   0.1199712   0.1363666   0.6205128  )
        12        Zn     tau(  12) = (   0.1214440   0.6723090   0.6237016  )
        13        Zn     tau(  13) = (   0.6250000   0.1341203   0.0774344  )
        14        Zn     tau(  14) = (   0.6250000   0.6706017   0.0774344  )
        15        Zn     tau(  15) = (   0.5485255   0.0015880   0.3782331  )
        16        Zn     tau(  16) = (   0.5518731   0.5377654   0.3719959  )
        17        Zn     tau(  17) = (   0.6209162  -0.1320215   0.6242596  )
        18        Zn     tau(  18) = (   0.6207475   0.4040995   0.6213690  )
        19        Zn     tau(  19) = (   0.6250000   0.4023610   0.0774344  )
        20        Zn     tau(  20) = (   0.6250000   0.9388424   0.0774344  )
        21        Zn     tau(  21) = (   0.5500076   0.2692430   0.3737070  )
        22        Zn     tau(  22) = (   0.5503612   0.8064404   0.3730049  )
        23        Zn     tau(  23) = (   0.6193497   0.1367547   0.6288109  )
        24        Zn     tau(  24) = (   0.6216913   0.6729985   0.6223646  )
        25        Zn     tau(  25) = (   0.3750000   0.0000000   0.1548688  )
        26        Zn     tau(  26) = (   0.3750000   0.5364814   0.1548688  )
        27        Zn     tau(  27) = (   0.2927744  -0.1320001   0.3789826  )
        28        Zn     tau(  28) = (   0.2937551   0.4017228   0.3805227  )
        29        Zn     tau(  29) = (   0.3720819  -0.2649862   0.6155200  )
        30        Zn     tau(  30) = (   0.3704677   0.2713380   0.6362927  )
        31        Zn     tau(  31) = (   0.3750000   0.2682407   0.1548688  )
        32        Zn     tau(  32) = (   0.3750000   0.8047221   0.1548688  )
        33        Zn     tau(  33) = (   0.2940706   0.1353883   0.3800274  )
        34        Zn     tau(  34) = (   0.2900704   0.6729037   0.3751738  )
        35        Zn     tau(  35) = (   0.3703611   0.0029571   0.6188672  )
        36        Zn     tau(  36) = (   0.3730923   0.5415788   0.6030066  )
        37        Zn     tau(  37) = (   0.8750000   0.0000000   0.1548688  )
        38        Zn     tau(  38) = (   0.8750000   0.5364814   0.1548688  )
        39        Zn     tau(  39) = (   0.7904863  -0.1322817   0.3786622  )
        40        Zn     tau(  40) = (   0.7923980   0.4027398   0.3785096  )
        41        Zn     tau(  41) = (   0.8722474  -0.2668138   0.6158037  )
        42        Zn     tau(  42) = (   0.8703117   0.2691359   0.6159814  )
        43        Zn     tau(  43) = (   0.8750000   0.2682407   0.1548688  )
        44        Zn     tau(  44) = (   0.8750000   0.8047221   0.1548688  )
        45        Zn     tau(  45) = (   0.7902886   0.1348826   0.3780155  )
        46        Zn     tau(  46) = (   0.7912321   0.6717996   0.3773507  )
        47        Zn     tau(  47) = (   0.8710614   0.0019409   0.6159964  )
        48        Zn     tau(  48) = (   0.8703003   0.5385786   0.6149325  )
        49        C      tau(  49) = (   0.5427567  -0.0026181   1.3040569  )
        50        C      tau(  50) = (   0.4932337   0.0786749   1.1929019  )
        51        C      tau(  51) = (   0.5712580   0.1895452   1.1429712  )
        52        C      tau(  52) = (   0.3647421   0.0498008   1.1335054  )
        53        C      tau(  53) = (   0.5201205   0.2718307   1.0385708  )
        54        C      tau(  54) = (   0.3136442   0.1322758   1.0292911  )
        55        C      tau(  55) = (   0.3895751   0.2458326   0.9834129  )
        56        N      tau(  56) = (   0.5826367  -0.0682232   1.3959689  )
        57        N      tau(  57) = (   0.3375892   0.3298018   0.8788909  )
        58        H      tau(  58) = (   0.2332079   0.3332182   0.8722412  )
        59        H      tau(  59) = (   0.3769000   0.4267146   0.8768364  )
        60        H      tau(  60) = (   0.3050223  -0.0368412   1.1713139  )
        61        H      tau(  61) = (   0.6709954   0.2114502   1.1885897  )
        62        H      tau(  62) = (   0.2138249   0.1102955   0.9834317  )
        63        H      tau(  63) = (   0.5799916   0.3586026   1.0007339  )

     --------------------------------------------
     DFT-D3 Dispersion Correction (3-body terms):
     --------------------------------------------
       Reference C6 values for interpolation: 

         atom   Coordination number   C6
         H          0.912             6.05
         H          0.000            15.18
         C          0.000            98.23
         C          0.987            86.49
         C          1.998            58.72
         C          2.999            51.56
         C          3.984            36.41
         N          0.000            50.54
         N          0.994            44.25
         N          2.014            39.35
         N          2.990            31.16
         Zn         0.000           681.04
         Zn         1.942           306.91

       Values used:

         atom   Coordination number  R0_AB[au]  C6      C8
         Zn         4.415            3.053    306.91  23930.67
         Zn         4.424            3.053    306.91  23930.67
         Zn         7.292            3.053    306.91  23930.67
         Zn         7.387            3.053    306.91  23930.67
         Zn         6.228            3.053    306.91  23930.67
         Zn         6.502            3.053    306.91  23930.67
         Zn         4.423            3.053    306.91  23930.67
         Zn         4.394            3.053    306.91  23930.67
         Zn         7.333            3.053    306.91  23930.67
         Zn         7.279            3.053    306.91  23930.67
         Zn         6.309            3.053    306.91  23930.67
         Zn         6.161            3.053    306.91  23930.67
         Zn         4.384            3.053    306.91  23930.67
         Zn         4.420            3.053    306.91  23930.67
         Zn         7.355            3.053    306.91  23930.67
         Zn         7.406            3.053    306.91  23930.67
         Zn         6.238            3.053    306.91  23930.67
         Zn         6.291            3.053    306.91  23930.67
         Zn         4.410            3.053    306.91  23930.67
         Zn         4.386            3.053    306.91  23930.67
         Zn         7.156            3.053    306.91  23930.67
         Zn         7.306            3.053    306.91  23930.67
         Zn         6.095            3.053    306.91  23930.67
         Zn         6.267            3.053    306.91  23930.67
         Zn         6.372            3.053    306.91  23930.67
         Zn         6.406            3.053    306.91  23930.67
         Zn         8.200            3.053    306.91  23930.67
         Zn         8.155            3.053    306.91  23930.67
         Zn         6.409            3.053    306.91  23930.67
         Zn         6.161            3.053    306.91  23930.67
         Zn         6.400            3.053    306.91  23930.67
         Zn         6.429            3.053    306.91  23930.67
         Zn         8.049            3.053    306.91  23930.67
         Zn         8.202            3.053    306.91  23930.67
         Zn         6.428            3.053    306.91  23930.67
         Zn         6.673            3.053    306.91  23930.67
         Zn         6.385            3.053    306.91  23930.67
         Zn         6.426            3.053    306.91  23930.67
         Zn         8.130            3.053    306.91  23930.67
         Zn         8.187            3.053    306.91  23930.67
         Zn         6.397            3.053    306.91  23930.67
         Zn         6.388            3.053    306.91  23930.67
         Zn         6.440            3.053    306.91  23930.67
         Zn         6.398            3.053    306.91  23930.67
         Zn         8.066            3.053    306.91  23930.67
         Zn         8.181            3.053    306.91  23930.67
         Zn         6.400            3.053    306.91  23930.67
         Zn         6.456            3.053    306.91  23930.67
         C          2.099            2.750     58.60   1694.92
         C          3.150            2.750     50.53   1461.42
         C          3.172            2.750     50.35   1456.07
         C          3.173            2.750     50.33   1455.70
         C          3.167            2.750     50.39   1457.42
         C          3.167            2.750     50.39   1457.37
         C          3.167            2.750     50.39   1457.26
         N          1.022            2.478     44.24    976.02
         N          3.515            2.478     31.17    687.55
         H          1.019            2.062      6.16     74.52
         H          1.017            2.062      6.17     74.54
         H          1.004            2.062      6.18     74.68
         H          1.004            2.062      6.18     74.68
         H          1.004            2.062      6.18     74.67
         H          1.004            2.062      6.18     74.67

         Molecular C6 ( Ry / a.u.^6 ) =    840931.69


   Crystallographic axes

     site n.     atom                  positions (cryst. coord.)
         1        Zn     tau(   1) = (  0.1250000  0.1666667  0.0327328  )
         2        Zn     tau(   2) = (  0.1250000  0.6666667  0.0327328  )
         3        Zn     tau(   3) = (  0.0508363  0.2028238  0.1586298  )
         4        Zn     tau(   4) = (  0.0501534  0.7025554  0.1573275  )
         5        Zn     tau(   5) = (  0.1215161  0.2126008  0.2639611  )
         6        Zn     tau(   6) = (  0.1166788  0.7061525  0.2584621  )
         7        Zn     tau(   7) = (  0.1250000  0.4166667  0.0327328  )
         8        Zn     tau(   8) = (  0.1250000  0.9166667  0.0327328  )
         9        Zn     tau(   9) = (  0.0516553  0.4488420  0.1558988  )
        10        Zn     tau(  10) = (  0.0507316  0.9534693  0.1580706  )
        11        Zn     tau(  11) = (  0.1199712  0.4609852  0.2623009  )
        12        Zn     tau(  12) = (  0.1214440  0.9621987  0.2636489  )
        13        Zn     tau(  13) = (  0.6250000  0.1666667  0.0327328  )
        14        Zn     tau(  14) = (  0.6250000  0.6666667  0.0327328  )
        15        Zn     tau(  15) = (  0.5485255  0.2050034  0.1598853  )
        16        Zn     tau(  16) = (  0.5518731  0.7013639  0.1572488  )
        17        Zn     tau(  17) = (  0.6209162  0.2128638  0.2638847  )
        18        Zn     tau(  18) = (  0.6207475  0.7109726  0.2626629  )
        19        Zn     tau(  19) = (  0.6250000  0.4166667  0.0327328  )
        20        Zn     tau(  20) = (  0.6250000  0.9166667  0.0327328  )
        21        Zn     tau(  21) = (  0.5500076  0.4520221  0.1579721  )
        22        Zn     tau(  22) = (  0.5503612  0.9523117  0.1576753  )
        23        Zn     tau(  23) = (  0.6193497  0.4658120  0.2658087  )
        24        Zn     tau(  24) = (  0.6216913  0.9621219  0.2630837  )
        25        Zn     tau(  25) = (  0.3750000  0.0833333  0.0654656  )
        26        Zn     tau(  26) = (  0.3750000  0.5833333  0.0654656  )
        27        Zn     tau(  27) = (  0.2927744  0.0809027  0.1602022  )
        28        Zn     tau(  28) = (  0.2937551  0.5791606  0.1608532  )
        29        Zn     tau(  29) = (  0.3720819  0.0842382  0.2601904  )
        30        Zn     tau(  30) = (  0.3704677  0.5952693  0.2689713  )
        31        Zn     tau(  31) = (  0.3750000  0.3333333  0.0654656  )
        32        Zn     tau(  32) = (  0.3750000  0.8333334  0.0654656  )
        33        Zn     tau(  33) = (  0.2940706  0.3306706  0.1606438  )
        34        Zn     tau(  34) = (  0.2900704  0.8290227  0.1585921  )
        35        Zn     tau(  35) = (  0.3703611  0.3357622  0.2616053  )
        36        Zn     tau(  36) = (  0.3730923  0.8292225  0.2549008  )
        37        Zn     tau(  37) = (  0.8750000  0.0833333  0.0654656  )
        38        Zn     tau(  38) = (  0.8750000  0.5833333  0.0654656  )
        39        Zn     tau(  39) = (  0.7904863  0.0804678  0.1600667  )
        40        Zn     tau(  40) = (  0.7923980  0.5790252  0.1600022  )
        41        Zn     tau(  41) = (  0.8722474  0.0826876  0.2603103  )
        42        Zn     tau(  42) = (  0.8703117  0.5822877  0.2603854  )
        43        Zn     tau(  43) = (  0.8750000  0.3333333  0.0654656  )
        44        Zn     tau(  44) = (  0.8750000  0.8333334  0.0654656  )
        45        Zn     tau(  45) = (  0.7902886  0.3291167  0.1597934  )
        46        Zn     tau(  46) = (  0.7912321  0.8291650  0.1595123  )
        47        Zn     tau(  47) = (  0.8710614  0.3332703  0.2603918  )
        48        Zn     tau(  48) = (  0.8703003  0.8328436  0.2599420  )
        49        C      tau(  49) = (  0.5427567  0.6992597  0.5512462  )
        50        C      tau(  50) = (  0.4932337  0.7152133  0.5042592  )
        51        C      tau(  51) = (  0.5712580  0.7916770  0.4831526  )
        52        C      tau(  52) = (  0.3647421  0.6563420  0.4791513  )
        53        C      tau(  53) = (  0.5201205  0.8121903  0.4390209  )
        54        C      tau(  54) = (  0.3136442  0.6771320  0.4350982  )
        55        C      tau(  55) = (  0.3895751  0.7582802  0.4157048  )
        56        N      tau(  56) = (  0.5826367  0.6875727  0.5900989  )
        57        N      tau(  57) = (  0.3375892  0.7802972  0.3715216  )
        58        H      tau(  58) = (  0.2332079  0.7799030  0.3687107  )
        59        H      tau(  59) = (  0.3769000  0.8695142  0.3706531  )
        60        H      tau(  60) = (  0.3050223  0.5959361  0.4951336  )
        61        H      tau(  61) = (  0.6709954  0.8366394  0.5024363  )
        62        H      tau(  62) = (  0.2138249  0.6319699  0.4157127  )
        63        H      tau(  63) = (  0.5799916  0.8727019  0.4230266  )

     number of k points=     5  Marzari-Vanderbilt smearing, width (Ry)=  0.0200
                       cart. coord. in units 2pi/alat
        k(    1) = (   0.0000000   0.0000000   0.0000000), wk =   0.2222222
        k(    2) = (   0.0000000   0.3106663   0.1793633), wk =   0.4444444
        k(    3) = (   0.3333333   0.0000000   0.0000000), wk =   0.4444444
        k(    4) = (   0.3333333   0.3106663   0.1793633), wk =   0.4444444
        k(    5) = (   0.3333333  -0.3106663  -0.1793633), wk =   0.4444444

                       cryst. coord.
        k(    1) = (   0.0000000   0.0000000   0.0000000), wk =   0.2222222
        k(    2) = (   0.0000000   0.3333333  -0.0000000), wk =   0.4444444
        k(    3) = (   0.3333333   0.0000000   0.0000000), wk =   0.4444444
        k(    4) = (   0.3333333   0.3333333  -0.0000000), wk =   0.4444444
        k(    5) = (   0.3333333  -0.3333333   0.0000000), wk =   0.4444444

     Dense  grid:  1254623 G-vectors     FFT dimensions: ( 100, 108, 270)

     Smooth grid:   542067 G-vectors     FFT dimensions: (  75,  80, 216)

     Dynamical RAM for                 wfc:      18.85 MB

     Dynamical RAM for     wfc (w. buffer):     113.10 MB

     Dynamical RAM for           str. fact:       2.32 MB

     Dynamical RAM for           local pot:       0.00 MB

     Dynamical RAM for          nlocal pot:      29.68 MB

     Dynamical RAM for                qrad:       5.37 MB

     Dynamical RAM for          rho,v,vnew:       3.97 MB

     Dynamical RAM for               rhoin:       1.32 MB

     Dynamical RAM for            rho*nmix:       9.28 MB

     Dynamical RAM for           G-vectors:       2.30 MB

     Dynamical RAM for          h,s,v(r/c):       2.64 MB

     Dynamical RAM for          <psi|beta>:       8.71 MB

     Dynamical RAM for                 psi:      37.70 MB

     Dynamical RAM for                hpsi:      37.70 MB

     Dynamical RAM for                spsi:      37.70 MB

     Dynamical RAM for      wfcinit/wfcrot:      51.86 MB

     Dynamical RAM for           addusdens:     135.76 MB

     Dynamical RAM for          addusforce:     190.77 MB

     Dynamical RAM for         addusstress:     116.61 MB

     Estimated static dynamical RAM per process >     164.67 MB

     Estimated max dynamical RAM per process >     364.72 MB

     Estimated total dynamical RAM >      11.75 GB

     Initial potential from superposition of free atoms

     starting charge    1003.9929, renormalised to    1004.0000

     negative rho (up, down):  2.284E-03 0.000E+00
     Starting wfcs are  666 randomized atomic wfcs
     Checking if some PAW data can be deallocated... 
       PAW data deallocated on   29 nodes for type:  3

     total cpu time spent up to now is      198.2 secs

     Self-consistent Calculation

     iteration #  1     ecut=    40.00 Ry     beta= 0.40
     Davidson diagonalization with overlap

---- Real-time Memory Report at c_bands before calling an iterative solver
           242 MiB given to the printing process from OS
             0 MiB allocation reported by mallinfo(arena+hblkhd)
         28052 MiB available memory on the node where the printing process lives
------------------
     ethr =  1.00E-02,  avg # of iterations =  8.0

     Threshold (ethr) on eigenvalues was too large:
     Diagonalizing with lowered threshold

     Davidson diagonalization with overlap

---- Real-time Memory Report at c_bands before calling an iterative solver
           335 MiB given to the printing process from OS
             0 MiB allocation reported by mallinfo(arena+hblkhd)
         26855 MiB available memory on the node where the printing process lives
------------------
     ethr =  9.96E-04,  avg # of iterations =  1.6

     negative rho (up, down):  2.958E-03 0.000E+00

     total cpu time spent up to now is     1523.7 secs

     total energy              =  -22326.78444686 Ry
     estimated scf accuracy    <      10.08816268 Ry

     iteration #  2     ecut=    40.00 Ry     beta= 0.40
     Davidson diagonalization with overlap

---- Real-time Memory Report at c_bands before calling an iterative solver
           352 MiB given to the printing process from OS
             0 MiB allocation reported by mallinfo(arena+hblkhd)
         26700 MiB available memory on the node where the printing process lives
------------------
     ethr =  1.00E-03,  avg # of iterations =  9.8

     negative rho (up, down):  4.384E-03 0.000E+00

     total cpu time spent up to now is     2271.8 secs

     total energy              =  -22314.00988994 Ry
     estimated scf accuracy    <     250.07661767 Ry

     iteration #  3     ecut=    40.00 Ry     beta= 0.40
     Davidson diagonalization with overlap

---- Real-time Memory Report at c_bands before calling an iterative solver
           357 MiB given to the printing process from OS
             0 MiB allocation reported by mallinfo(arena+hblkhd)
         26663 MiB available memory on the node where the printing process lives
------------------
     ethr =  1.00E-03,  avg # of iterations =  7.4

     negative rho (up, down):  4.234E-03 0.000E+00

     total cpu time spent up to now is     3138.2 secs

     total energy              =  -22330.12572793 Ry
     estimated scf accuracy    <      12.42827922 Ry

     iteration #  4     ecut=    40.00 Ry     beta= 0.40
     Davidson diagonalization with overlap

---- Real-time Memory Report at c_bands before calling an iterative solver
           358 MiB given to the printing process from OS
             0 MiB allocation reported by mallinfo(arena+hblkhd)
         26623 MiB available memory on the node where the printing process lives
------------------
     ethr =  1.00E-03,  avg # of iterations =  5.6

     negative rho (up, down):  4.063E-03 0.000E+00

     total cpu time spent up to now is     3782.7 secs

     total energy              =  -22330.94003306 Ry
     estimated scf accuracy    <       4.67767860 Ry

     iteration #  5     ecut=    40.00 Ry     beta= 0.40
     Davidson diagonalization with overlap

---- Real-time Memory Report at c_bands before calling an iterative solver
           363 MiB given to the printing process from OS
             0 MiB allocation reported by mallinfo(arena+hblkhd)
         26588 MiB available memory on the node where the printing process lives
------------------
     ethr =  4.66E-04,  avg # of iterations =  2.8

     negative rho (up, down):  3.940E-03 0.000E+00

     total cpu time spent up to now is     4403.5 secs

     total energy              =  -22331.25786908 Ry
     estimated scf accuracy    <       0.28345877 Ry

     iteration #  6     ecut=    40.00 Ry     beta= 0.40
     Davidson diagonalization with overlap

---- Real-time Memory Report at c_bands before calling an iterative solver
           364 MiB given to the printing process from OS
             0 MiB allocation reported by mallinfo(arena+hblkhd)
         26559 MiB available memory on the node where the printing process lives
------------------
     ethr =  2.82E-05,  avg # of iterations = 13.0

     negative rho (up, down):  3.938E-03 0.000E+00

     total cpu time spent up to now is     5105.4 secs

     total energy              =  -22331.26159949 Ry
     estimated scf accuracy    <       0.14329090 Ry

     iteration #  7     ecut=    40.00 Ry     beta= 0.40
     Davidson diagonalization with overlap

---- Real-time Memory Report at c_bands before calling an iterative solver
           365 MiB given to the printing process from OS
             0 MiB allocation reported by mallinfo(arena+hblkhd)
         26531 MiB available memory on the node where the printing process lives
------------------
     ethr =  1.43E-05,  avg # of iterations =  2.8

     negative rho (up, down):  4.006E-03 0.000E+00

     total cpu time spent up to now is     5736.7 secs

     total energy              =  -22331.26555360 Ry
     estimated scf accuracy    <       0.03464732 Ry

     iteration #  8     ecut=    40.00 Ry     beta= 0.40
     Davidson diagonalization with overlap

---- Real-time Memory Report at c_bands before calling an iterative solver
           366 MiB given to the printing process from OS
             0 MiB allocation reported by mallinfo(arena+hblkhd)
         26494 MiB available memory on the node where the printing process lives
------------------
     ethr =  3.45E-06,  avg # of iterations = 16.0

     negative rho (up, down):  4.035E-03 0.000E+00

     total cpu time spent up to now is     6444.4 secs

     total energy              =  -22331.26473836 Ry
     estimated scf accuracy    <       0.02524601 Ry

     iteration #  9     ecut=    40.00 Ry     beta= 0.40
     Davidson diagonalization with overlap

---- Real-time Memory Report at c_bands before calling an iterative solver
           366 MiB given to the printing process from OS
             0 MiB allocation reported by mallinfo(arena+hblkhd)
         26468 MiB available memory on the node where the printing process lives
------------------
     ethr =  2.51E-06,  avg # of iterations =  3.0

     negative rho (up, down):  4.059E-03 0.000E+00

     total cpu time spent up to now is     7069.9 secs

     total energy              =  -22331.26457592 Ry
     estimated scf accuracy    <       0.01431080 Ry

     iteration # 10     ecut=    40.00 Ry     beta= 0.40
     Davidson diagonalization with overlap

---- Real-time Memory Report at c_bands before calling an iterative solver
           367 MiB given to the printing process from OS
             0 MiB allocation reported by mallinfo(arena+hblkhd)
         26427 MiB available memory on the node where the printing process lives
------------------
     c_bands:  1 eigenvalues not converged
     ethr =  1.43E-06,  avg # of iterations = 16.0

     negative rho (up, down):  4.083E-03 0.000E+00

     total cpu time spent up to now is     7729.8 secs

     total energy              =  -22331.26304449 Ry
     estimated scf accuracy    <       0.00979302 Ry

     iteration # 11     ecut=    40.00 Ry     beta= 0.40
     Davidson diagonalization with overlap

---- Real-time Memory Report at c_bands before calling an iterative solver
           368 MiB given to the printing process from OS
             0 MiB allocation reported by mallinfo(arena+hblkhd)
         26427 MiB available memory on the node where the printing process lives
------------------
     ethr =  9.75E-07,  avg # of iterations = 12.2

     negative rho (up, down):  4.130E-03 0.000E+00

     total cpu time spent up to now is     8390.4 secs

     total energy              =  -22331.25959223 Ry
     estimated scf accuracy    <       0.00612724 Ry

     iteration # 12     ecut=    40.00 Ry     beta= 0.40
     Davidson diagonalization with overlap

---- Real-time Memory Report at c_bands before calling an iterative solver
           368 MiB given to the printing process from OS
             0 MiB allocation reported by mallinfo(arena+hblkhd)
         26431 MiB available memory on the node where the printing process lives
------------------
     c_bands:  1 eigenvalues not converged
     c_bands:  1 eigenvalues not converged
     c_bands:  1 eigenvalues not converged
     ethr =  6.10E-07,  avg # of iterations = 20.0

     negative rho (up, down):  4.118E-03 0.000E+00

     total cpu time spent up to now is     9151.2 secs

     total energy              =  -22331.26038829 Ry
     estimated scf accuracy    <       0.00063401 Ry

     iteration # 13     ecut=    40.00 Ry     beta= 0.40
     Davidson diagonalization with overlap

---- Real-time Memory Report at c_bands before calling an iterative solver
           368 MiB given to the printing process from OS
             0 MiB allocation reported by mallinfo(arena+hblkhd)
         26425 MiB available memory on the node where the printing process lives
------------------
     ethr =  6.31E-08,  avg # of iterations =  3.8

     negative rho (up, down):  4.110E-03 0.000E+00

     total cpu time spent up to now is     9780.6 secs

     total energy              =  -22331.26042599 Ry
     estimated scf accuracy    <       0.00023516 Ry

     iteration # 14     ecut=    40.00 Ry     beta= 0.40
     Davidson diagonalization with overlap

---- Real-time Memory Report at c_bands before calling an iterative solver
           368 MiB given to the printing process from OS
             0 MiB allocation reported by mallinfo(arena+hblkhd)
         26427 MiB available memory on the node where the printing process lives
------------------
     ethr =  2.34E-08,  avg # of iterations =  2.0

     negative rho (up, down):  4.110E-03 0.000E+00

     total cpu time spent up to now is    10403.6 secs

     total energy              =  -22331.26041336 Ry
     estimated scf accuracy    <       0.00068367 Ry

     iteration # 15     ecut=    40.00 Ry     beta= 0.40
     Davidson diagonalization with overlap

---- Real-time Memory Report at c_bands before calling an iterative solver
           368 MiB given to the printing process from OS
             0 MiB allocation reported by mallinfo(arena+hblkhd)
         26426 MiB available memory on the node where the printing process lives
------------------
     ethr =  2.34E-08,  avg # of iterations =  2.0

     negative rho (up, down):  4.105E-03 0.000E+00

     total cpu time spent up to now is    10996.0 secs

     total energy              =  -22331.26046892 Ry
     estimated scf accuracy    <       0.00006682 Ry

     iteration # 16     ecut=    40.00 Ry     beta= 0.40
     Davidson diagonalization with overlap

---- Real-time Memory Report at c_bands before calling an iterative solver
           368 MiB given to the printing process from OS
             0 MiB allocation reported by mallinfo(arena+hblkhd)
         26427 MiB available memory on the node where the printing process lives
------------------
     ethr =  6.66E-09,  avg # of iterations =  2.0

     negative rho (up, down):  4.104E-03 0.000E+00

     total cpu time spent up to now is    11611.2 secs

     total energy              =  -22331.26047318 Ry
     estimated scf accuracy    <       0.00000556 Ry

     iteration # 17     ecut=    40.00 Ry     beta= 0.40
     Davidson diagonalization with overlap

---- Real-time Memory Report at c_bands before calling an iterative solver
           368 MiB given to the printing process from OS
             0 MiB allocation reported by mallinfo(arena+hblkhd)
         26425 MiB available memory on the node where the printing process lives
------------------
     ethr =  5.54E-10,  avg # of iterations =  2.0

     negative rho (up, down):  4.103E-03 0.000E+00

     total cpu time spent up to now is    12239.7 secs

     total energy              =  -22331.26047373 Ry
     estimated scf accuracy    <       0.00000304 Ry

     iteration # 18     ecut=    40.00 Ry     beta= 0.40
     Davidson diagonalization with overlap

---- Real-time Memory Report at c_bands before calling an iterative solver
           368 MiB given to the printing process from OS
             0 MiB allocation reported by mallinfo(arena+hblkhd)
         26425 MiB available memory on the node where the printing process lives
------------------
     ethr =  3.03E-10,  avg # of iterations =  2.0

     negative rho (up, down):  4.103E-03 0.000E+00

     total cpu time spent up to now is    12862.4 secs

     total energy              =  -22331.26047410 Ry
     estimated scf accuracy    <       0.00000101 Ry

     iteration # 19     ecut=    40.00 Ry     beta= 0.40
     Davidson diagonalization with overlap

---- Real-time Memory Report at c_bands before calling an iterative solver
           368 MiB given to the printing process from OS
             0 MiB allocation reported by mallinfo(arena+hblkhd)
         26426 MiB available memory on the node where the printing process lives
------------------
     ethr =  1.01E-10,  avg # of iterations =  2.0

     negative rho (up, down):  4.103E-03 0.000E+00

     total cpu time spent up to now is    13482.4 secs

     End of self-consistent calculation

          k = 0.0000 0.0000 0.0000 ( 67685 PWs)   bands (ev):

  -124.8370-124.8330-124.8313-124.8301-124.8272-124.8251-124.8147-124.8118
  -124.7484-124.7422-124.7384-124.7382-124.7367-124.7356-124.7278-124.7250
  -124.7127-124.6643-124.6642-124.6625-124.6584-124.6540-124.6528-124.6495
  -124.6493-124.6483-124.6477-124.6456-124.6408-124.6361-124.6336-124.6325
  -124.6204-124.6188-124.6140-124.6056-124.6047-124.6019-124.5997-124.5897
  -124.4155-124.4149-124.4138-124.4109-124.4100-124.4089-124.4083-124.4064
   -78.9977 -78.9933 -78.9908 -78.9870 -78.9851 -78.9840 -78.9834 -78.9825
   -78.9810 -78.9805 -78.9797 -78.9789 -78.9778 -78.9771 -78.9758 -78.9757
   -78.9724 -78.9691 -78.9686 -78.9650 -78.9640 -78.9611 -78.9594 -78.9559
   -78.9053 -78.9003 -78.8998 -78.8992 -78.8972 -78.8955 -78.8953 -78.8937
   -78.8927 -78.8923 -78.8898 -78.8890 -78.8884 -78.8875 -78.8852 -78.8847
   -78.8843 -78.8834 -78.8821 -78.8803 -78.8778 -78.8769 -78.8762 -78.8692
   -78.8673 -78.8613 -78.8528 -78.8256 -78.8250 -78.8238 -78.8232 -78.8196
   -78.8167 -78.8147 -78.8129 -78.8114 -78.8105 -78.8097 -78.8092 -78.8089
   -78.8085 -78.8079 -78.8076 -78.8074 -78.8074 -78.8071 -78.8046 -78.8044
   -78.8015 -78.7989 -78.7982 -78.7976 -78.7961 -78.7960 -78.7960 -78.7954
   -78.7953 -78.7937 -78.7931 -78.7931 -78.7927 -78.7919 -78.7910 -78.7905
   -78.7891 -78.7886 -78.7847 -78.7825 -78.7808 -78.7808 -78.7790 -78.7777
   -78.7766 -78.7763 -78.7755 -78.7718 -78.7687 -78.7677 -78.7664 -78.7658
   -78.7652 -78.7634 -78.7623 -78.7613 -78.7604 -78.7589 -78.7545 -78.7526
   -78.7524 -78.7521 -78.7494 -78.7487 -78.7464 -78.7422 -78.7365 -78.7325
   -78.5897 -78.5891 -78.5882 -78.5841 -78.5837 -78.5824 -78.5819 -78.5800
   -78.5691 -78.5676 -78.5618 -78.5610 -78.5604 -78.5587 -78.5580 -78.5572
   -78.5564 -78.5561 -78.5551 -78.5543 -78.5534 -78.5522 -78.5439 -78.5417
   -18.3186 -16.7346 -15.9621 -13.5477 -13.5053 -10.5164 -10.2862  -8.3469
    -7.9625  -7.8214  -7.7063  -6.8571  -6.7089  -6.7010  -6.6835  -6.5902
    -6.5598  -6.5109  -6.4575  -6.4380  -6.3887  -6.3696  -6.3577  -6.3213
    -6.3041  -6.3022  -6.2921  -6.2875  -6.2651  -6.2614  -6.2595  -6.2531
    -6.2387  -6.2107  -6.2009  -6.1706  -6.1640  -6.1569  -6.1509  -6.1463
    -6.1390  -6.1289  -6.1251  -6.1153  -6.1089  -6.1074  -6.0871  -6.0841
    -6.0769  -6.0729  -6.0716  -6.0475  -6.0371  -6.0280  -6.0189  -6.0161
    -6.0150  -6.0090  -6.0004  -5.9933  -5.9865  -5.9833  -5.9734  -5.9715
    -5.9629  -5.9547  -5.9453  -5.9374  -5.9337  -5.9292  -5.9237  -5.9136
    -5.9058  -5.8917  -5.8878  -5.8866  -5.8803  -5.8767  -5.8759  -5.8628
    -5.8620  -5.8568  -5.8514  -5.8401  -5.8364  -5.8327  -5.8288  -5.8187
    -5.8075  -5.7975  -5.7957  -5.7926  -5.7827  -5.7790  -5.7776  -5.7637
    -5.7616  -5.7535  -5.7471  -5.7381  -5.7247  -5.7207  -5.7140  -5.7076
    -5.7035  -5.6986  -5.6897  -5.6860  -5.6839  -5.6770  -5.6759  -5.6712
    -5.6604  -5.6535  -5.6489  -5.6460  -5.6395  -5.6358  -5.6290  -5.6265
    -5.6194  -5.6151  -5.6082  -5.6065  -5.6032  -5.6022  -5.6002  -5.5948
    -5.5918  -5.5870  -5.5849  -5.5825  -5.5724  -5.5595  -5.5583  -5.5553
    -5.5498  -5.5427  -5.5370  -5.5276  -5.5192  -5.5155  -5.5143  -5.5106
    -5.5081  -5.5034  -5.4999  -5.4990  -5.4959  -5.4930  -5.4869  -5.4844
    -5.4796  -5.4638  -5.4506  -5.4481  -5.4451  -5.4404  -5.4324  -5.4255
    -5.4220  -5.4150  -5.4127  -5.4035  -5.4005  -5.3940  -5.3931  -5.3877
    -5.3849  -5.3769  -5.3726  -5.3703  -5.3663  -5.3632  -5.3578  -5.3543
    -5.3483  -5.3397  -5.3255  -5.3206  -5.3166  -5.3147  -5.3102  -5.3088
    -5.3051  -5.3027  -5.2958  -5.2890  -5.2869  -5.2847  -5.2809  -5.2794
    -5.2769  -5.2740  -5.2719  -5.2705  -5.2691  -5.2677  -5.2648  -5.2571
    -5.2544  -5.2514  -5.2494  -5.2477  -5.2464  -5.2428  -5.2399  -5.2391
    -5.2371  -5.2333  -5.2318  -5.2281  -5.2256  -5.2227  -5.2199  -5.2185
    -5.2163  -5.2017  -5.1963  -5.1952  -5.1935  -5.1911  -5.1909  -5.1870
    -5.1851  -5.1847  -5.1734  -5.1723  -5.1655  -5.1635  -5.1527  -5.1517
    -5.1504  -5.1474  -5.1434  -5.1414  -5.1394  -5.1376  -5.1209  -5.1137
    -5.1091  -5.1073  -5.1014  -5.1003  -5.0806  -5.0671  -5.0651  -5.0568
    -5.0214  -5.0207  -5.0055  -4.9935  -4.9853  -4.9683  -4.9598  -4.9307
    -4.9190  -4.9182  -4.8184  -4.7996  -4.4163  -4.2760  -4.2624  -4.2105
    -4.1945  -4.0852  -4.0721  -4.0319  -3.9705  -3.6509  -3.3809  -3.0402
    -2.7136  -2.6940  -2.6104  -2.5916  -2.5803  -2.3000  -2.2825  -1.9442
    -1.8778  -1.8223  -1.5887  -1.5525  -1.4983  -1.3560  -1.1145  -0.6453
    -0.6176  -0.6007  -0.5940  -0.4593  -0.3070  -0.2581  -0.1847  -0.0780
    -0.0103   0.1084   0.1957   0.2152   0.4462   0.4557   0.4879   0.7666
     0.8400   0.8682   0.9958   1.2826   1.3357   1.5144   1.6042   1.7492
     1.8810   2.2204   2.2361   2.2660   2.4782   2.5625   2.7288   2.7849
     2.8181   3.0271   3.0294   3.1736   3.2579   3.3496   3.4507   3.5374
     3.6844   3.7300   3.8060   4.0901   4.0977   4.2754   4.3765   4.4121
     4.4951   4.6024   4.6366   4.7175   4.7805   4.9282   5.0009   5.0494
     5.3119   5.3302   5.3896   5.4978   5.5484   5.5757   5.6206   5.6256
     5.6481   5.6729   5.8388   5.9245   6.1078   6.1717   6.3615   6.3898
     6.4788   6.5058   6.5912   6.6541   6.6948   6.7299   6.7695   6.7750
     6.8671   6.9038   6.9645   7.0079   7.0501   7.0867   7.0989   7.1266
     7.1451   7.1637   7.2270   7.2708   7.3051   7.3126   7.3518   7.3822
     7.5424   7.5926   7.6116   7.6423   7.6975   7.7294   7.7508   7.7846
     7.8687   8.0127   8.0423   8.1084   8.1198   8.2093   8.2803   8.3212
     8.3330   8.3683   8.4041   8.4549   8.4637   8.5587   8.6039   8.6119
     8.6980   8.7499

     occupation numbers 
     1.0000   1.0000   1.0000   1.0000   1.0000   1.0000   1.0000   1.0000
     1.0000   1.0000   1.0000   1.0000   1.0000   1.0000   1.0000   1.0000
     1.0000   1.0000   1.0000   1.0000   1.0000   1.0000   1.0000   1.0000
     1.0000   1.0000   1.0000   1.0000   1.0000   1.0000   1.0000   1.0000
     1.0000   1.0000   1.0000   1.0000   1.0000   1.0000   1.0000   1.0000
     1.0000   1.0000   1.0000   1.0000   1.0000   1.0000   1.0000   1.0000
     1.0000   1.0000   1.0000   1.0000   1.0000   1.0000   1.0000   1.0000
     1.0000   1.0000   1.0000   1.0000   1.0000   1.0000   1.0000   1.0000
     1.0000   1.0000   1.0000   1.0000   1.0000   1.0000   1.0000   1.0000
     1.0000   1.0000   1.0000   1.0000   1.0000   1.0000   1.0000   1.0000
     1.0000   1.0000   1.0000   1.0000   1.0000   1.0000   1.0000   1.0000
     1.0000   1.0000   1.0000   1.0000   1.0000   1.0000   1.0000   1.0000
     1.0000   1.0000   1.0000   1.0000   1.0000   1.0000   1.0000   1.0000
     1.0000   1.0000   1.0000   1.0000   1.0000   1.0000   1.0000   1.0000
     1.0000   1.0000   1.0000   1.0000   1.0000   1.0000   1.0000   1.0000
     1.0000   1.0000   1.0000   1.0000   1.0000   1.0000   1.0000   1.0000
     1.0000   1.0000   1.0000   1.0000   1.0000   1.0000   1.0000   1.0000
     1.0000   1.0000   1.0000   1.0000   1.0000   1.0000   1.0000   1.0000
     1.0000   1.0000   1.0000   1.0000   1.0000   1.0000   1.0000   1.0000
     1.0000   1.0000   1.0000   1.0000   1.0000   1.0000   1.0000   1.0000
     1.0000   1.0000   1.0000   1.0000   1.0000   1.0000   1.0000   1.0000
     1.0000   1.0000   1.0000   1.0000   1.0000   1.0000   1.0000   1.0000
     1.0000   1.0000   1.0000   1.0000   1.0000   1.0000   1.0000   1.0000
     1.0000   1.0000   1.0000   1.0000   1.0000   1.0000   1.0000   1.0000
     1.0000   1.0000   1.0000   1.0000   1.0000   1.0000   1.0000   1.0000
     1.0000   1.0000   1.0000   1.0000   1.0000   1.0000   1.0000   1.0000
     1.0000   1.0000   1.0000   1.0000   1.0000   1.0000   1.0000   1.0000
     1.0000   1.0000   1.0000   1.0000   1.0000   1.0000   1.0000   1.0000
     1.0000   1.0000   1.0000   1.0000   1.0000   1.0000   1.0000   1.0000
     1.0000   1.0000   1.0000   1.0000   1.0000   1.0000   1.0000   1.0000
     1.0000   1.0000   1.0000   1.0000   1.0000   1.0000   1.0000   1.0000
     1.0000   1.0000   1.0000   1.0000   1.0000   1.0000   1.0000   1.0000
     1.0000   1.0000   1.0000   1.0000   1.0000   1.0000   1.0000   1.0000
     1.0000   1.0000   1.0000   1.0000   1.0000   1.0000   1.0000   1.0000
     1.0000   1.0000   1.0000   1.0000   1.0000   1.0000   1.0000   1.0000
     1.0000   1.0000   1.0000   1.0000   1.0000   1.0000   1.0000   1.0000
     1.0000   1.0000   1.0000   1.0000   1.0000   1.0000   1.0000   1.0000
     1.0000   1.0000   1.0000   1.0000   1.0000   1.0000   1.0000   1.0000
     1.0000   1.0000   1.0000   1.0000   1.0000   1.0000   1.0000   1.0000
     1.0000   1.0000   1.0000   1.0000   1.0000   1.0000   1.0000   1.0000
     1.0000   1.0000   1.0000   1.0000   1.0000   1.0000   1.0000   1.0000
     1.0000   1.0000   1.0000   1.0000   1.0000   1.0000   1.0000   1.0000
     1.0000   1.0000   1.0000   1.0000   1.0000   1.0000   1.0000   1.0000
     1.0000   1.0000   1.0000   1.0000   1.0000   1.0000   1.0000   1.0000
     1.0000   1.0000   1.0000   1.0000   1.0000   1.0000   1.0000   1.0000
     1.0000   1.0000   1.0000   1.0000   1.0000   1.0000   1.0000   1.0000
     1.0000   1.0000   1.0000   1.0000   1.0000   1.0000   1.0000   1.0000
     1.0000   1.0000   1.0000   1.0000   1.0000   1.0000   1.0000   1.0000
     1.0000   1.0000   1.0000   1.0000   1.0000   1.0000   1.0000   1.0000
     1.0000   1.0000   1.0000   1.0000   1.0000   1.0000   1.0000   1.0000
     1.0000   1.0000   1.0000   1.0000   1.0000   1.0000   1.0000   1.0000
     1.0000   1.0000   1.0000   1.0000   1.0000   1.0000   1.0000   1.0000
     1.0000   1.0000   1.0000   1.0000   1.0000   1.0000   1.0000   1.0000
     1.0000   1.0000   1.0000   1.0000   1.0000   1.0000   1.0000   1.0000
     1.0000   1.0000   1.0000   1.0000   1.0000   1.0000   1.0000   1.0000
     1.0000   1.0000   1.0000   1.0000   1.0000   1.0000   1.0000   1.0000
     1.0000   1.0000   1.0000   1.0000   1.0000   1.0000   1.0000   1.0000
     1.0000   1.0000   1.0000   1.0000   1.0000   1.0000   1.0000   1.0000
     1.0000   1.0000   1.0000   1.0000   1.0000   1.0000   1.0000   1.0000
     1.0000   1.0000   1.0000   1.0000   1.0000   1.0000   1.0000   1.0000
     1.0000   1.0000   1.0000   1.0000   1.0000   1.0000   1.0000   1.0000
     1.0000   1.0000   1.0000   1.0000   1.0000   1.0000   1.0000   1.0004
     1.0013   1.0020   1.0119   1.0833   1.0715   0.8045   0.5636   0.2178
     0.0591   0.0003   0.0002   0.0001   0.0000   0.0000   0.0000   0.0000
     0.0000   0.0000   0.0000   0.0000   0.0000   0.0000   0.0000   0.0000
     0.0000   0.0000   0.0000   0.0000   0.0000   0.0000   0.0000   0.0000
     0.0000   0.0000   0.0000   0.0000   0.0000   0.0000   0.0000   0.0000
     0.0000   0.0000   0.0000   0.0000   0.0000   0.0000   0.0000   0.0000
     0.0000   0.0000   0.0000   0.0000   0.0000   0.0000   0.0000   0.0000
     0.0000   0.0000   0.0000   0.0000   0.0000   0.0000   0.0000   0.0000
     0.0000   0.0000   0.0000   0.0000   0.0000   0.0000   0.0000   0.0000
     0.0000   0.0000   0.0000   0.0000   0.0000   0.0000   0.0000   0.0000
     0.0000   0.0000   0.0000   0.0000   0.0000   0.0000   0.0000   0.0000
     0.0000   0.0000   0.0000   0.0000   0.0000   0.0000   0.0000   0.0000
     0.0000   0.0000   0.0000   0.0000   0.0000   0.0000   0.0000   0.0000
     0.0000   0.0000

          k = 0.0000 0.3107 0.1794 ( 67822 PWs)   bands (ev):

  -124.8370-124.8330-124.8313-124.8301-124.8272-124.8251-124.8147-124.8118
  -124.7484-124.7422-124.7384-124.7382-124.7367-124.7356-124.7278-124.7250
  -124.7127-124.6643-124.6642-124.6625-124.6584-124.6540-124.6528-124.6495
  -124.6493-124.6483-124.6477-124.6456-124.6408-124.6361-124.6336-124.6325
  -124.6204-124.6188-124.6140-124.6056-124.6047-124.6019-124.5997-124.5897
  -124.4155-124.4149-124.4138-124.4109-124.4100-124.4089-124.4083-124.4064
   -78.9970 -78.9925 -78.9908 -78.9881 -78.9870 -78.9844 -78.9837 -78.9834
   -78.9806 -78.9804 -78.9794 -78.9790 -78.9772 -78.9757 -78.9757 -78.9745
   -78.9724 -78.9691 -78.9686 -78.9651 -78.9644 -78.9615 -78.9594 -78.9559
   -78.9053 -78.8999 -78.8998 -78.8991 -78.8961 -78.8955 -78.8953 -78.8937
   -78.8927 -78.8923 -78.8903 -78.8897 -78.8893 -78.8890 -78.8874 -78.8852
   -78.8844 -78.8821 -78.8792 -78.8786 -78.8778 -78.8769 -78.8762 -78.8700
   -78.8678 -78.8612 -78.8528 -78.8256 -78.8249 -78.8238 -78.8222 -78.8196
   -78.8168 -78.8153 -78.8147 -78.8129 -78.8113 -78.8097 -78.8086 -78.8085
   -78.8074 -78.8074 -78.8073 -78.8071 -78.8068 -78.8047 -78.8045 -78.8044
   -78.8014 -78.8000 -78.7989 -78.7982 -78.7980 -78.7976 -78.7969 -78.7954
   -78.7953 -78.7937 -78.7931 -78.7931 -78.7919 -78.7910 -78.7904 -78.7891
   -78.7889 -78.7866 -78.7847 -78.7825 -78.7818 -78.7808 -78.7790 -78.7777
   -78.7769 -78.7766 -78.7755 -78.7714 -78.7687 -78.7677 -78.7665 -78.7661
   -78.7653 -78.7634 -78.7623 -78.7615 -78.7608 -78.7593 -78.7538 -78.7526
   -78.7523 -78.7521 -78.7493 -78.7478 -78.7464 -78.7425 -78.7365 -78.7327
   -78.5897 -78.5891 -78.5882 -78.5841 -78.5837 -78.5824 -78.5819 -78.5800
   -78.5676 -78.5664 -78.5630 -78.5618 -78.5609 -78.5606 -78.5604 -78.5580
   -78.5570 -78.5561 -78.5550 -78.5534 -78.5502 -78.5482 -78.5453 -78.5431
   -18.3186 -16.7346 -15.9621 -13.5477 -13.5053 -10.5164 -10.2862  -8.3470
    -7.8249  -7.8084  -7.7006  -7.3406  -6.7283  -6.5977  -6.4838  -6.4834
    -6.4725  -6.4172  -6.4079  -6.4011  -6.3756  -6.3680  -6.3388  -6.3290
    -6.3190  -6.3120  -6.2949  -6.2886  -6.2718  -6.2439  -6.2351  -6.2304
    -6.2264  -6.2205  -6.2173  -6.2155  -6.2068  -6.1928  -6.1868  -6.1815
    -6.1803  -6.1692  -6.1541  -6.1481  -6.1299  -6.1191  -6.1101  -6.1039
    -6.0883  -6.0815  -6.0765  -6.0684  -6.0606  -6.0536  -6.0316  -6.0203
    -6.0152  -6.0134  -6.0040  -6.0014  -5.9904  -5.9820  -5.9701  -5.9662
    -5.9633  -5.9612  -5.9509  -5.9476  -5.9384  -5.9298  -5.9262  -5.9146
    -5.9045  -5.9031  -5.9005  -5.8927  -5.8876  -5.8843  -5.8711  -5.8665
    -5.8611  -5.8565  -5.8529  -5.8480  -5.8440  -5.8400  -5.8338  -5.8317
    -5.8223  -5.8120  -5.8048  -5.8016  -5.7869  -5.7847  -5.7785  -5.7736
    -5.7686  -5.7618  -5.7573  -5.7484  -5.7456  -5.7415  -5.7342  -5.7315
    -5.7271  -5.7230  -5.7171  -5.7118  -5.7078  -5.7004  -5.6887  -5.6822
    -5.6779  -5.6758  -5.6664  -5.6584  -5.6557  -5.6521  -5.6512  -5.6471
    -5.6347  -5.6326  -5.6224  -5.6188  -5.6156  -5.6056  -5.6004  -5.5986
    -5.5971  -5.5896  -5.5863  -5.5828  -5.5747  -5.5710  -5.5694  -5.5631
    -5.5582  -5.5532  -5.5518  -5.5425  -5.5407  -5.5292  -5.5197  -5.5139
    -5.5080  -5.5043  -5.4948  -5.4893  -5.4850  -5.4788  -5.4745  -5.4708
    -5.4638  -5.4515  -5.4478  -5.4402  -5.4358  -5.4322  -5.4238  -5.4075
    -5.4019  -5.3993  -5.3986  -5.3884  -5.3834  -5.3768  -5.3758  -5.3712
    -5.3684  -5.3633  -5.3592  -5.3443  -5.3408  -5.3360  -5.3321  -5.3288
    -5.3264  -5.3232  -5.3188  -5.3168  -5.3160  -5.3114  -5.3045  -5.2965
    -5.2909  -5.2885  -5.2857  -5.2818  -5.2746  -5.2718  -5.2688  -5.2670
    -5.2652  -5.2640  -5.2610  -5.2579  -5.2552  -5.2471  -5.2431  -5.2414
    -5.2383  -5.2347  -5.2320  -5.2302  -5.2278  -5.2245  -5.2227  -5.2212
    -5.2182  -5.2163  -5.2149  -5.2142  -5.2097  -5.2065  -5.2032  -5.1979
    -5.1951  -5.1938  -5.1902  -5.1884  -5.1797  -5.1774  -5.1739  -5.1715
    -5.1644  -5.1613  -5.1575  -5.1553  -5.1497  -5.1449  -5.1421  -5.1361
    -5.1351  -5.1332  -5.1322  -5.1309  -5.1213  -5.1116  -5.1097  -5.1076
    -5.0981  -5.0954  -5.0909  -5.0790  -5.0766  -5.0724  -5.0498  -5.0422
    -5.0355  -5.0263  -5.0175  -5.0097  -4.9953  -4.9821  -4.9686  -4.9650
    -4.9589  -4.8767  -4.8447  -4.7471  -4.6908  -4.6723  -4.6171  -4.3978
    -3.9246  -3.8138  -3.6796  -3.4013  -3.3770  -3.3382  -3.3277  -3.2994
    -3.1772  -3.0823  -2.9287  -2.6131  -2.6005  -2.2827  -2.2770  -1.9925
    -1.7569  -1.7059  -1.6955  -1.6473  -1.5199  -1.3815  -1.3437  -1.2899
    -0.9618  -0.9233  -0.9051  -0.4701  -0.4173  -0.3563  -0.2174  -0.1567
    -0.0665   0.0516   0.3469   0.3641   0.4709   0.5449   0.6759   0.8568
     1.2903   1.3133   1.4513   1.4733   1.6903   1.7310   1.9292   1.9821
     2.0377   2.1263   2.2081   2.4002   2.4999   2.6916   2.7347   2.8725
     2.8883   2.9808   3.3059   3.3528   3.3794   3.4244   3.4953   3.7244
     3.8223   3.8277   3.8469   3.8812   3.9484   4.0061   4.1017   4.2703
     4.4231   4.4355   4.4742   4.5498   4.7226   4.7670   4.8248   4.9053
     4.9950   5.1923   5.2088   5.2746   5.5093   5.5196   5.5438   5.6457
     5.7240   5.7397   5.8238   5.8947   5.9564   6.0183   6.0568   6.1716
     6.2091   6.2256   6.2964   6.3642   6.3980   6.4813   6.4913   6.5690
     6.6291   6.7248   6.7399   6.8088   6.9130   7.0782   7.1100   7.1490
     7.2283   7.2755   7.2940   7.3380   7.3572   7.4228   7.4585   7.5052
     7.5686   7.5963   7.6355   7.6455   7.7093   7.7386   7.8356   7.8690
     7.8862   7.9420   8.0071   8.0851   8.1587   8.2090   8.2686   8.2821
     8.3165   8.4018   8.4452   8.4759   8.5199   8.5465   8.6156   8.6928
     8.7255   8.7511

     occupation numbers 
     1.0000   1.0000   1.0000   1.0000   1.0000   1.0000   1.0000   1.0000
     1.0000   1.0000   1.0000   1.0000   1.0000   1.0000   1.0000   1.0000
     1.0000   1.0000   1.0000   1.0000   1.0000   1.0000   1.0000   1.0000
     1.0000   1.0000   1.0000   1.0000   1.0000   1.0000   1.0000   1.0000
     1.0000   1.0000   1.0000   1.0000   1.0000   1.0000   1.0000   1.0000
     1.0000   1.0000   1.0000   1.0000   1.0000   1.0000   1.0000   1.0000
     1.0000   1.0000   1.0000   1.0000   1.0000   1.0000   1.0000   1.0000
     1.0000   1.0000   1.0000   1.0000   1.0000   1.0000   1.0000   1.0000
     1.0000   1.0000   1.0000   1.0000   1.0000   1.0000   1.0000   1.0000
     1.0000   1.0000   1.0000   1.0000   1.0000   1.0000   1.0000   1.0000
     1.0000   1.0000   1.0000   1.0000   1.0000   1.0000   1.0000   1.0000
     1.0000   1.0000   1.0000   1.0000   1.0000   1.0000   1.0000   1.0000
     1.0000   1.0000   1.0000   1.0000   1.0000   1.0000   1.0000   1.0000
     1.0000   1.0000   1.0000   1.0000   1.0000   1.0000   1.0000   1.0000
     1.0000   1.0000   1.0000   1.0000   1.0000   1.0000   1.0000   1.0000
     1.0000   1.0000   1.0000   1.0000   1.0000   1.0000   1.0000   1.0000
     1.0000   1.0000   1.0000   1.0000   1.0000   1.0000   1.0000   1.0000
     1.0000   1.0000   1.0000   1.0000   1.0000   1.0000   1.0000   1.0000
     1.0000   1.0000   1.0000   1.0000   1.0000   1.0000   1.0000   1.0000
     1.0000   1.0000   1.0000   1.0000   1.0000   1.0000   1.0000   1.0000
     1.0000   1.0000   1.0000   1.0000   1.0000   1.0000   1.0000   1.0000
     1.0000   1.0000   1.0000   1.0000   1.0000   1.0000   1.0000   1.0000
     1.0000   1.0000   1.0000   1.0000   1.0000   1.0000   1.0000   1.0000
     1.0000   1.0000   1.0000   1.0000   1.0000   1.0000   1.0000   1.0000
     1.0000   1.0000   1.0000   1.0000   1.0000   1.0000   1.0000   1.0000
     1.0000   1.0000   1.0000   1.0000   1.0000   1.0000   1.0000   1.0000
     1.0000   1.0000   1.0000   1.0000   1.0000   1.0000   1.0000   1.0000
     1.0000   1.0000   1.0000   1.0000   1.0000   1.0000   1.0000   1.0000
     1.0000   1.0000   1.0000   1.0000   1.0000   1.0000   1.0000   1.0000
     1.0000   1.0000   1.0000   1.0000   1.0000   1.0000   1.0000   1.0000
     1.0000   1.0000   1.0000   1.0000   1.0000   1.0000   1.0000   1.0000
     1.0000   1.0000   1.0000   1.0000   1.0000   1.0000   1.0000   1.0000
     1.0000   1.0000   1.0000   1.0000   1.0000   1.0000   1.0000   1.0000
     1.0000   1.0000   1.0000   1.0000   1.0000   1.0000   1.0000   1.0000
     1.0000   1.0000   1.0000   1.0000   1.0000   1.0000   1.0000   1.0000
     1.0000   1.0000   1.0000   1.0000   1.0000   1.0000   1.0000   1.0000
     1.0000   1.0000   1.0000   1.0000   1.0000   1.0000   1.0000   1.0000
     1.0000   1.0000   1.0000   1.0000   1.0000   1.0000   1.0000   1.0000
     1.0000   1.0000   1.0000   1.0000   1.0000   1.0000   1.0000   1.0000
     1.0000   1.0000   1.0000   1.0000   1.0000   1.0000   1.0000   1.0000
     1.0000   1.0000   1.0000   1.0000   1.0000   1.0000   1.0000   1.0000
     1.0000   1.0000   1.0000   1.0000   1.0000   1.0000   1.0000   1.0000
     1.0000   1.0000   1.0000   1.0000   1.0000   1.0000   1.0000   1.0000
     1.0000   1.0000   1.0000   1.0000   1.0000   1.0000   1.0000   1.0000
     1.0000   1.0000   1.0000   1.0000   1.0000   1.0000   1.0000   1.0000
     1.0000   1.0000   1.0000   1.0000   1.0000   1.0000   1.0000   1.0000
     1.0000   1.0000   1.0000   1.0000   1.0000   1.0000   1.0000   1.0000
     1.0000   1.0000   1.0000   1.0000   1.0000   1.0000   1.0000   1.0000
     1.0000   1.0000   1.0000   1.0000   1.0000   1.0000   1.0000   1.0000
     1.0000   1.0000   1.0000   1.0000   1.0000   1.0000   1.0000   1.0000
     1.0000   1.0000   1.0000   1.0000   1.0000   1.0000   1.0000   1.0000
     1.0000   1.0000   1.0000   1.0000   1.0000   1.0000   1.0000   1.0000
     1.0000   1.0000   1.0000   1.0000   1.0000   1.0000   1.0000   1.0000
     1.0000   1.0000   1.0000   1.0000   1.0000   1.0000   1.0000   1.0000
     1.0000   1.0000   1.0000   1.0000   1.0000   1.0000   1.0000   1.0000
     1.0000   1.0000   1.0000   1.0000   1.0000   1.0000   1.0000   1.0000
     1.0000   1.0000   1.0000   1.0000   1.0000   1.0000   1.0000   1.0000
     1.0000   1.0000   1.0000   1.0000   1.0000   1.0000   1.0000   1.0000
     1.0000   1.0000   1.0000   1.0000   1.0000   1.0000   1.0000   1.0000
     1.0000   1.0000   1.0000   1.0000   1.0000   1.0000   1.0000   1.0000
     1.0000   1.0000   1.0000   1.0000   1.0000   1.0000   1.0000   1.0000
     1.0000   1.0000   1.0000   1.0000   1.0000   1.0000   1.0001   1.0017
     1.0830   1.0794   0.9412   0.8980   0.3401   0.2523   0.0328   0.0161
     0.0070   0.0016   0.0003   0.0000   0.0000   0.0000   0.0000   0.0000
     0.0000   0.0000   0.0000   0.0000   0.0000   0.0000   0.0000   0.0000
     0.0000   0.0000   0.0000   0.0000   0.0000   0.0000   0.0000   0.0000
     0.0000   0.0000   0.0000   0.0000   0.0000   0.0000   0.0000   0.0000
     0.0000   0.0000   0.0000   0.0000   0.0000   0.0000   0.0000   0.0000
     0.0000   0.0000   0.0000   0.0000   0.0000   0.0000   0.0000   0.0000
     0.0000   0.0000   0.0000   0.0000   0.0000   0.0000   0.0000   0.0000
     0.0000   0.0000   0.0000   0.0000   0.0000   0.0000   0.0000   0.0000
     0.0000   0.0000   0.0000   0.0000   0.0000   0.0000   0.0000   0.0000
     0.0000   0.0000   0.0000   0.0000   0.0000   0.0000   0.0000   0.0000
     0.0000   0.0000   0.0000   0.0000   0.0000   0.0000   0.0000   0.0000
     0.0000   0.0000   0.0000   0.0000   0.0000   0.0000   0.0000   0.0000
     0.0000   0.0000

          k = 0.3333 0.0000 0.0000 ( 67745 PWs)   bands (ev):

  -124.8370-124.8330-124.8313-124.8301-124.8272-124.8251-124.8147-124.8118
  -124.7484-124.7422-124.7384-124.7382-124.7367-124.7356-124.7278-124.7250
  -124.7127-124.6643-124.6642-124.6625-124.6584-124.6540-124.6528-124.6495
  -124.6493-124.6483-124.6477-124.6456-124.6408-124.6361-124.6336-124.6325
  -124.6204-124.6188-124.6140-124.6056-124.6047-124.6019-124.5997-124.5897
  -124.4155-124.4149-124.4138-124.4109-124.4100-124.4089-124.4083-124.4064
   -78.9977 -78.9933 -78.9908 -78.9870 -78.9851 -78.9840 -78.9834 -78.9825
   -78.9810 -78.9805 -78.9797 -78.9789 -78.9778 -78.9771 -78.9758 -78.9757
   -78.9724 -78.9691 -78.9686 -78.9650 -78.9640 -78.9611 -78.9594 -78.9559
   -78.9053 -78.9003 -78.8998 -78.8992 -78.8972 -78.8955 -78.8953 -78.8937
   -78.8927 -78.8923 -78.8898 -78.8890 -78.8884 -78.8875 -78.8852 -78.8847
   -78.8843 -78.8835 -78.8821 -78.8803 -78.8778 -78.8769 -78.8762 -78.8692
   -78.8673 -78.8613 -78.8528 -78.8256 -78.8250 -78.8238 -78.8232 -78.8196
   -78.8167 -78.8147 -78.8129 -78.8114 -78.8105 -78.8097 -78.8092 -78.8089
   -78.8085 -78.8079 -78.8076 -78.8074 -78.8074 -78.8071 -78.8046 -78.8044
   -78.8015 -78.7990 -78.7982 -78.7976 -78.7961 -78.7960 -78.7960 -78.7954
   -78.7953 -78.7937 -78.7931 -78.7931 -78.7927 -78.7919 -78.7910 -78.7905
   -78.7891 -78.7886 -78.7847 -78.7825 -78.7808 -78.7808 -78.7790 -78.7777
   -78.7766 -78.7763 -78.7755 -78.7717 -78.7687 -78.7677 -78.7663 -78.7658
   -78.7652 -78.7634 -78.7623 -78.7613 -78.7604 -78.7589 -78.7545 -78.7526
   -78.7523 -78.7521 -78.7494 -78.7487 -78.7464 -78.7422 -78.7365 -78.7325
   -78.5897 -78.5891 -78.5882 -78.5841 -78.5837 -78.5824 -78.5819 -78.5800
   -78.5691 -78.5676 -78.5618 -78.5610 -78.5604 -78.5587 -78.5580 -78.5572
   -78.5564 -78.5561 -78.5551 -78.5543 -78.5534 -78.5522 -78.5439 -78.5417
   -18.3186 -16.7346 -15.9621 -13.5478 -13.5053 -10.5164 -10.2861  -8.3468
    -7.8253  -7.7956  -7.6990  -7.3083  -6.6258  -6.6105  -6.6029  -6.5365
    -6.5276  -6.4604  -6.4421  -6.4337  -6.4193  -6.4095  -6.3847  -6.3574
    -6.3517  -6.3444  -6.3312  -6.2992  -6.2768  -6.2629  -6.2568  -6.2292
    -6.2193  -6.2017  -6.1973  -6.1910  -6.1807  -6.1732  -6.1631  -6.1531
    -6.1372  -6.1348  -6.1276  -6.1252  -6.1179  -6.1115  -6.1070  -6.1014
    -6.0822  -6.0789  -6.0638  -6.0627  -6.0595  -6.0515  -6.0430  -6.0392
    -6.0334  -6.0114  -6.0065  -5.9998  -5.9972  -5.9917  -5.9854  -5.9822
    -5.9618  -5.9379  -5.9336  -5.9287  -5.9266  -5.9191  -5.9163  -5.9129
    -5.9112  -5.9019  -5.8915  -5.8894  -5.8832  -5.8797  -5.8743  -5.8708
    -5.8634  -5.8452  -5.8404  -5.8364  -5.8335  -5.8301  -5.8187  -5.8119
    -5.8086  -5.8055  -5.8016  -5.7993  -5.7945  -5.7908  -5.7796  -5.7687
    -5.7651  -5.7612  -5.7516  -5.7205  -5.7103  -5.7056  -5.7002  -5.6972
    -5.6888  -5.6846  -5.6832  -5.6724  -5.6699  -5.6687  -5.6669  -5.6609
    -5.6499  -5.6426  -5.6364  -5.6305  -5.6276  -5.6213  -5.6194  -5.6137
    -5.6083  -5.6064  -5.6031  -5.6016  -5.5978  -5.5934  -5.5870  -5.5834
    -5.5769  -5.5745  -5.5685  -5.5663  -5.5593  -5.5561  -5.5502  -5.5474
    -5.5400  -5.5328  -5.5308  -5.5244  -5.5218  -5.5211  -5.5163  -5.5106
    -5.5071  -5.5050  -5.5002  -5.4968  -5.4937  -5.4857  -5.4803  -5.4692
    -5.4659  -5.4597  -5.4524  -5.4426  -5.4367  -5.4341  -5.4296  -5.4240
    -5.4161  -5.4118  -5.4037  -5.4014  -5.3971  -5.3903  -5.3840  -5.3763
    -5.3730  -5.3713  -5.3693  -5.3659  -5.3636  -5.3610  -5.3576  -5.3530
    -5.3482  -5.3475  -5.3428  -5.3352  -5.3277  -5.3263  -5.3233  -5.3166
    -5.3149  -5.3068  -5.2994  -5.2987  -5.2963  -5.2931  -5.2916  -5.2894
    -5.2880  -5.2851  -5.2833  -5.2733  -5.2725  -5.2716  -5.2691  -5.2656
    -5.2602  -5.2591  -5.2522  -5.2506  -5.2461  -5.2430  -5.2411  -5.2387
    -5.2366  -5.2327  -5.2251  -5.2175  -5.2126  -5.2118  -5.2097  -5.2082
    -5.2066  -5.2043  -5.2022  -5.1910  -5.1841  -5.1839  -5.1684  -5.1664
    -5.1623  -5.1611  -5.1596  -5.1585  -5.1567  -5.1528  -5.1473  -5.1444
    -5.1418  -5.1404  -5.1377  -5.1356  -5.1344  -5.1317  -5.1276  -5.1189
    -5.1151  -5.1089  -5.1074  -5.1067  -5.0809  -5.0613  -5.0435  -5.0224
    -5.0185  -5.0161  -5.0130  -5.0040  -4.9814  -4.9742  -4.9670  -4.9522
    -4.9439  -4.9334  -4.8921  -4.8421  -4.8173  -4.6772  -4.4054  -4.3385
    -4.0864  -4.0486  -3.7517  -3.5675  -3.4982  -3.3778  -2.9612  -2.9131
    -2.8952  -2.8462  -2.7550  -2.6103  -2.4400  -2.2845  -2.2715  -1.8046
    -1.7511  -1.5002  -1.4742  -1.4470  -1.4019  -1.3626  -1.2867  -1.2648
    -1.2268  -1.1419  -1.1276  -1.0519  -0.9333  -0.5683  -0.3498   0.0357
     0.0926   0.2171   0.2459   0.2595   0.4357   0.5410   0.6380   0.8380
     0.8526   0.9144   1.1027   1.1709   1.6382   1.7291   1.8243   1.9175
     2.1480   2.2342   2.2937   2.4570   2.4714   2.8624   2.9681   3.0933
     3.1312   3.1446   3.1634   3.2576   3.3062   3.3176   3.3393   3.5235
     3.6241   3.7515   3.8745   4.3350   4.4071   4.4852   4.5081   4.5285
     4.5537   4.5708   4.6218   4.9814   4.9994   5.0498   5.1224   5.2050
     5.2299   5.2581   5.4538   5.5094   5.5289   5.6211   5.7601   5.7835
     5.7967   5.8165   5.8375   5.9007   5.9855   6.0497   6.1062   6.1437
     6.1850   6.2929   6.3184   6.3287   6.3773   6.4421   6.4680   6.5318
     6.6015   6.6644   6.6929   6.8064   6.8185   6.8578   6.9071   6.9521
     7.0074   7.0971   7.1648   7.2490   7.2620   7.2889   7.3582   7.3750
     7.4134   7.4561   7.4727   7.5052   7.5590   7.6095   7.6412   7.6998
     7.7224   7.8314   7.9304   7.9609   8.0229   8.0462   8.1002   8.2511
     8.2898   8.3456   8.4044   8.4198   8.5025   8.5339   8.5504   8.5751
     8.6535   8.6841

     occupation numbers 
     1.0000   1.0000   1.0000   1.0000   1.0000   1.0000   1.0000   1.0000
     1.0000   1.0000   1.0000   1.0000   1.0000   1.0000   1.0000   1.0000
     1.0000   1.0000   1.0000   1.0000   1.0000   1.0000   1.0000   1.0000
     1.0000   1.0000   1.0000   1.0000   1.0000   1.0000   1.0000   1.0000
     1.0000   1.0000   1.0000   1.0000   1.0000   1.0000   1.0000   1.0000
     1.0000   1.0000   1.0000   1.0000   1.0000   1.0000   1.0000   1.0000
     1.0000   1.0000   1.0000   1.0000   1.0000   1.0000   1.0000   1.0000
     1.0000   1.0000   1.0000   1.0000   1.0000   1.0000   1.0000   1.0000
     1.0000   1.0000   1.0000   1.0000   1.0000   1.0000   1.0000   1.0000
     1.0000   1.0000   1.0000   1.0000   1.0000   1.0000   1.0000   1.0000
     1.0000   1.0000   1.0000   1.0000   1.0000   1.0000   1.0000   1.0000
     1.0000   1.0000   1.0000   1.0000   1.0000   1.0000   1.0000   1.0000
     1.0000   1.0000   1.0000   1.0000   1.0000   1.0000   1.0000   1.0000
     1.0000   1.0000   1.0000   1.0000   1.0000   1.0000   1.0000   1.0000
     1.0000   1.0000   1.0000   1.0000   1.0000   1.0000   1.0000   1.0000
     1.0000   1.0000   1.0000   1.0000   1.0000   1.0000   1.0000   1.0000
     1.0000   1.0000   1.0000   1.0000   1.0000   1.0000   1.0000   1.0000
     1.0000   1.0000   1.0000   1.0000   1.0000   1.0000   1.0000   1.0000
     1.0000   1.0000   1.0000   1.0000   1.0000   1.0000   1.0000   1.0000
     1.0000   1.0000   1.0000   1.0000   1.0000   1.0000   1.0000   1.0000
     1.0000   1.0000   1.0000   1.0000   1.0000   1.0000   1.0000   1.0000
     1.0000   1.0000   1.0000   1.0000   1.0000   1.0000   1.0000   1.0000
     1.0000   1.0000   1.0000   1.0000   1.0000   1.0000   1.0000   1.0000
     1.0000   1.0000   1.0000   1.0000   1.0000   1.0000   1.0000   1.0000
     1.0000   1.0000   1.0000   1.0000   1.0000   1.0000   1.0000   1.0000
     1.0000   1.0000   1.0000   1.0000   1.0000   1.0000   1.0000   1.0000
     1.0000   1.0000   1.0000   1.0000   1.0000   1.0000   1.0000   1.0000
     1.0000   1.0000   1.0000   1.0000   1.0000   1.0000   1.0000   1.0000
     1.0000   1.0000   1.0000   1.0000   1.0000   1.0000   1.0000   1.0000
     1.0000   1.0000   1.0000   1.0000   1.0000   1.0000   1.0000   1.0000
     1.0000   1.0000   1.0000   1.0000   1.0000   1.0000   1.0000   1.0000
     1.0000   1.0000   1.0000   1.0000   1.0000   1.0000   1.0000   1.0000
     1.0000   1.0000   1.0000   1.0000   1.0000   1.0000   1.0000   1.0000
     1.0000   1.0000   1.0000   1.0000   1.0000   1.0000   1.0000   1.0000
     1.0000   1.0000   1.0000   1.0000   1.0000   1.0000   1.0000   1.0000
     1.0000   1.0000   1.0000   1.0000   1.0000   1.0000   1.0000   1.0000
     1.0000   1.0000   1.0000   1.0000   1.0000   1.0000   1.0000   1.0000
     1.0000   1.0000   1.0000   1.0000   1.0000   1.0000   1.0000   1.0000
     1.0000   1.0000   1.0000   1.0000   1.0000   1.0000   1.0000   1.0000
     1.0000   1.0000   1.0000   1.0000   1.0000   1.0000   1.0000   1.0000
     1.0000   1.0000   1.0000   1.0000   1.0000   1.0000   1.0000   1.0000
     1.0000   1.0000   1.0000   1.0000   1.0000   1.0000   1.0000   1.0000
     1.0000   1.0000   1.0000   1.0000   1.0000   1.0000   1.0000   1.0000
     1.0000   1.0000   1.0000   1.0000   1.0000   1.0000   1.0000   1.0000
     1.0000   1.0000   1.0000   1.0000   1.0000   1.0000   1.0000   1.0000
     1.0000   1.0000   1.0000   1.0000   1.0000   1.0000   1.0000   1.0000
     1.0000   1.0000   1.0000   1.0000   1.0000   1.0000   1.0000   1.0000
     1.0000   1.0000   1.0000   1.0000   1.0000   1.0000   1.0000   1.0000
     1.0000   1.0000   1.0000   1.0000   1.0000   1.0000   1.0000   1.0000
     1.0000   1.0000   1.0000   1.0000   1.0000   1.0000   1.0000   1.0000
     1.0000   1.0000   1.0000   1.0000   1.0000   1.0000   1.0000   1.0000
     1.0000   1.0000   1.0000   1.0000   1.0000   1.0000   1.0000   1.0000
     1.0000   1.0000   1.0000   1.0000   1.0000   1.0000   1.0000   1.0000
     1.0000   1.0000   1.0000   1.0000   1.0000   1.0000   1.0000   1.0000
     1.0000   1.0000   1.0000   1.0000   1.0000   1.0000   1.0000   1.0000
     1.0000   1.0000   1.0000   1.0000   1.0000   1.0000   1.0000   1.0000
     1.0000   1.0000   1.0000   1.0000   1.0000   1.0000   1.0000   1.0000
     1.0000   1.0000   1.0000   1.0000   1.0000   1.0000   1.0000   1.0000
     1.0000   1.0000   1.0000   1.0000   1.0000   1.0000   1.0000   1.0000
     1.0000   1.0000   1.0000   1.0000   1.0000   1.0000   1.0000   1.0000
     1.0000   1.0000   1.0000   1.0000   1.0000   1.0000   1.0000   1.0000
     1.0000   1.0000   1.0000   1.0000   1.0000   1.0000   1.0000   1.0012
     1.0016   1.0041   1.0355   1.0581   0.4710   0.2560   0.1092   0.0381
     0.0011   0.0002   0.0001   0.0000   0.0000   0.0000   0.0000   0.0000
     0.0000   0.0000   0.0000   0.0000   0.0000   0.0000   0.0000   0.0000
     0.0000   0.0000   0.0000   0.0000   0.0000   0.0000   0.0000   0.0000
     0.0000   0.0000   0.0000   0.0000   0.0000   0.0000   0.0000   0.0000
     0.0000   0.0000   0.0000   0.0000   0.0000   0.0000   0.0000   0.0000
     0.0000   0.0000   0.0000   0.0000   0.0000   0.0000   0.0000   0.0000
     0.0000   0.0000   0.0000   0.0000   0.0000   0.0000   0.0000   0.0000
     0.0000   0.0000   0.0000   0.0000   0.0000   0.0000   0.0000   0.0000
     0.0000   0.0000   0.0000   0.0000   0.0000   0.0000   0.0000   0.0000
     0.0000   0.0000   0.0000   0.0000   0.0000   0.0000   0.0000   0.0000
     0.0000   0.0000   0.0000   0.0000   0.0000   0.0000   0.0000   0.0000
     0.0000   0.0000   0.0000   0.0000   0.0000   0.0000   0.0000   0.0000
     0.0000   0.0000

          k = 0.3333 0.3107 0.1794 ( 67762 PWs)   bands (ev):

  -124.8370-124.8330-124.8313-124.8301-124.8272-124.8251-124.8147-124.8118
  -124.7484-124.7422-124.7384-124.7382-124.7367-124.7356-124.7278-124.7250
  -124.7127-124.6643-124.6642-124.6625-124.6584-124.6540-124.6528-124.6495
  -124.6493-124.6483-124.6477-124.6456-124.6408-124.6361-124.6336-124.6325
  -124.6204-124.6188-124.6140-124.6056-124.6047-124.6019-124.5997-124.5897
  -124.4155-124.4149-124.4138-124.4109-124.4100-124.4089-124.4083-124.4064
   -78.9970 -78.9925 -78.9908 -78.9881 -78.9870 -78.9844 -78.9837 -78.9834
   -78.9806 -78.9804 -78.9794 -78.9790 -78.9772 -78.9757 -78.9757 -78.9745
   -78.9724 -78.9691 -78.9686 -78.9651 -78.9644 -78.9615 -78.9594 -78.9559
   -78.9053 -78.8998 -78.8998 -78.8991 -78.8961 -78.8955 -78.8953 -78.8937
   -78.8927 -78.8923 -78.8903 -78.8897 -78.8893 -78.8890 -78.8874 -78.8852
   -78.8844 -78.8821 -78.8792 -78.8786 -78.8778 -78.8769 -78.8762 -78.8700
   -78.8678 -78.8612 -78.8528 -78.8256 -78.8249 -78.8238 -78.8222 -78.8196
   -78.8168 -78.8153 -78.8147 -78.8129 -78.8113 -78.8097 -78.8086 -78.8086
   -78.8074 -78.8074 -78.8073 -78.8071 -78.8068 -78.8047 -78.8045 -78.8044
   -78.8014 -78.8000 -78.7989 -78.7982 -78.7980 -78.7977 -78.7969 -78.7954
   -78.7953 -78.7937 -78.7931 -78.7931 -78.7919 -78.7910 -78.7904 -78.7891
   -78.7889 -78.7866 -78.7847 -78.7825 -78.7818 -78.7808 -78.7790 -78.7777
   -78.7769 -78.7766 -78.7755 -78.7714 -78.7687 -78.7677 -78.7665 -78.7661
   -78.7652 -78.7634 -78.7623 -78.7615 -78.7609 -78.7593 -78.7538 -78.7526
   -78.7523 -78.7521 -78.7493 -78.7478 -78.7464 -78.7425 -78.7365 -78.7327
   -78.5897 -78.5891 -78.5882 -78.5841 -78.5837 -78.5824 -78.5819 -78.5800
   -78.5676 -78.5664 -78.5630 -78.5618 -78.5609 -78.5606 -78.5604 -78.5580
   -78.5570 -78.5561 -78.5550 -78.5534 -78.5502 -78.5482 -78.5453 -78.5431
   -18.3186 -16.7346 -15.9621 -13.5478 -13.5053 -10.5164 -10.2861  -8.3468
    -7.8227  -7.7239  -7.6182  -7.1890  -7.1601  -6.7736  -6.5197  -6.4557
    -6.4441  -6.4388  -6.4015  -6.3592  -6.3423  -6.3390  -6.3305  -6.3231
    -6.3202  -6.2985  -6.2930  -6.2817  -6.2758  -6.2628  -6.2598  -6.2565
    -6.2415  -6.2306  -6.2170  -6.2081  -6.2065  -6.2027  -6.1988  -6.1932
    -6.1882  -6.1842  -6.1681  -6.1476  -6.1451  -6.1390  -6.1322  -6.1276
    -6.1213  -6.1036  -6.0941  -6.0799  -6.0685  -6.0659  -6.0538  -6.0439
    -6.0372  -6.0304  -6.0091  -6.0034  -5.9893  -5.9756  -5.9726  -5.9720
    -5.9689  -5.9651  -5.9493  -5.9431  -5.9399  -5.9337  -5.9159  -5.9098
    -5.9064  -5.9043  -5.9016  -5.8996  -5.8811  -5.8752  -5.8708  -5.8679
    -5.8625  -5.8582  -5.8496  -5.8463  -5.8413  -5.8374  -5.8346  -5.8307
    -5.8186  -5.8142  -5.8052  -5.7968  -5.7932  -5.7902  -5.7869  -5.7804
    -5.7696  -5.7632  -5.7549  -5.7514  -5.7480  -5.7343  -5.7325  -5.7236
    -5.7189  -5.7069  -5.6999  -5.6952  -5.6890  -5.6835  -5.6787  -5.6759
    -5.6729  -5.6680  -5.6556  -5.6522  -5.6483  -5.6413  -5.6369  -5.6288
    -5.6182  -5.6100  -5.6027  -5.6001  -5.5979  -5.5928  -5.5897  -5.5849
    -5.5783  -5.5641  -5.5602  -5.5572  -5.5547  -5.5493  -5.5451  -5.5443
    -5.5367  -5.5312  -5.5156  -5.5121  -5.5100  -5.5077  -5.5055  -5.5008
    -5.4988  -5.4912  -5.4860  -5.4837  -5.4801  -5.4743  -5.4701  -5.4649
    -5.4607  -5.4566  -5.4439  -5.4372  -5.4312  -5.4273  -5.4229  -5.4136
    -5.4043  -5.3975  -5.3917  -5.3911  -5.3859  -5.3803  -5.3748  -5.3722
    -5.3709  -5.3683  -5.3624  -5.3574  -5.3563  -5.3454  -5.3413  -5.3365
    -5.3318  -5.3268  -5.3234  -5.3206  -5.3188  -5.3139  -5.3125  -5.3100
    -5.3050  -5.3002  -5.2987  -5.2934  -5.2907  -5.2871  -5.2823  -5.2783
    -5.2723  -5.2705  -5.2666  -5.2634  -5.2608  -5.2574  -5.2509  -5.2473
    -5.2462  -5.2444  -5.2363  -5.2337  -5.2275  -5.2257  -5.2253  -5.2229
    -5.2205  -5.2164  -5.2113  -5.2081  -5.2042  -5.1985  -5.1949  -5.1940
    -5.1931  -5.1910  -5.1884  -5.1835  -5.1815  -5.1774  -5.1720  -5.1689
    -5.1639  -5.1620  -5.1563  -5.1542  -5.1531  -5.1508  -5.1498  -5.1470
    -5.1388  -5.1360  -5.1330  -5.1311  -5.1276  -5.1266  -5.1240  -5.1219
    -5.1081  -5.0842  -5.0779  -5.0753  -5.0730  -5.0705  -5.0634  -5.0594
    -5.0556  -5.0468  -5.0383  -5.0373  -5.0232  -5.0158  -4.9843  -4.9619
    -4.9430  -4.8962  -4.8088  -4.6228  -4.5743  -4.5417  -4.3923  -4.2227
    -4.1453  -4.1345  -3.7368  -3.6200  -3.3840  -3.1857  -3.0279  -2.8322
    -2.7339  -2.6973  -2.6109  -2.5898  -2.5571  -2.4823  -2.3354  -2.2823
    -2.2574  -2.1263  -2.0192  -1.8534  -1.8386  -1.6007  -1.3605  -1.1433
    -1.0506  -0.8207  -0.5725  -0.5390  -0.5097  -0.4167  -0.2856  -0.1896
    -0.1188   0.1188   0.2507   0.4731   0.6538   0.7571   0.7798   0.8798
     1.0306   1.0607   1.1807   1.1943   1.2956   1.3913   1.6119   1.8125
     1.9422   2.0478   2.4434   2.7601   2.9374   3.0318   3.1141   3.1710
     3.2902   3.3559   3.4009   3.4894   3.6025   3.7108   3.7563   3.7701
     3.7923   3.8319   3.8915   4.0110   4.1773   4.2013   4.2467   4.4633
     4.5345   4.6579   4.6615   4.7482   4.7854   5.0056   5.0576   5.0958
     5.1274   5.1476   5.2160   5.2415   5.3791   5.4603   5.5115   5.5763
     5.6373   5.6468   5.6775   5.7430   5.8281   5.9952   6.0369   6.0605
     6.1132   6.1321   6.2236   6.2843   6.3168   6.3802   6.4382   6.5049
     6.6060   6.6167   6.7396   6.7703   6.8048   6.8402   6.8556   6.8907
     6.9111   6.9749   7.0229   7.0666   7.1976   7.3164   7.3389   7.4075
     7.4609   7.5140   7.5451   7.5593   7.5992   7.6298   7.7584   7.8216
     7.8964   7.9295   7.9792   8.0241   8.0379   8.1136   8.1736   8.1932
     8.2449   8.2959   8.3646   8.4274   8.4575   8.5215   8.5884   8.6468
     8.6639   8.6798

     occupation numbers 
     1.0000   1.0000   1.0000   1.0000   1.0000   1.0000   1.0000   1.0000
     1.0000   1.0000   1.0000   1.0000   1.0000   1.0000   1.0000   1.0000
     1.0000   1.0000   1.0000   1.0000   1.0000   1.0000   1.0000   1.0000
     1.0000   1.0000   1.0000   1.0000   1.0000   1.0000   1.0000   1.0000
     1.0000   1.0000   1.0000   1.0000   1.0000   1.0000   1.0000   1.0000
     1.0000   1.0000   1.0000   1.0000   1.0000   1.0000   1.0000   1.0000
     1.0000   1.0000   1.0000   1.0000   1.0000   1.0000   1.0000   1.0000
     1.0000   1.0000   1.0000   1.0000   1.0000   1.0000   1.0000   1.0000
     1.0000   1.0000   1.0000   1.0000   1.0000   1.0000   1.0000   1.0000
     1.0000   1.0000   1.0000   1.0000   1.0000   1.0000   1.0000   1.0000
     1.0000   1.0000   1.0000   1.0000   1.0000   1.0000   1.0000   1.0000
     1.0000   1.0000   1.0000   1.0000   1.0000   1.0000   1.0000   1.0000
     1.0000   1.0000   1.0000   1.0000   1.0000   1.0000   1.0000   1.0000
     1.0000   1.0000   1.0000   1.0000   1.0000   1.0000   1.0000   1.0000
     1.0000   1.0000   1.0000   1.0000   1.0000   1.0000   1.0000   1.0000
     1.0000   1.0000   1.0000   1.0000   1.0000   1.0000   1.0000   1.0000
     1.0000   1.0000   1.0000   1.0000   1.0000   1.0000   1.0000   1.0000
     1.0000   1.0000   1.0000   1.0000   1.0000   1.0000   1.0000   1.0000
     1.0000   1.0000   1.0000   1.0000   1.0000   1.0000   1.0000   1.0000
     1.0000   1.0000   1.0000   1.0000   1.0000   1.0000   1.0000   1.0000
     1.0000   1.0000   1.0000   1.0000   1.0000   1.0000   1.0000   1.0000
     1.0000   1.0000   1.0000   1.0000   1.0000   1.0000   1.0000   1.0000
     1.0000   1.0000   1.0000   1.0000   1.0000   1.0000   1.0000   1.0000
     1.0000   1.0000   1.0000   1.0000   1.0000   1.0000   1.0000   1.0000
     1.0000   1.0000   1.0000   1.0000   1.0000   1.0000   1.0000   1.0000
     1.0000   1.0000   1.0000   1.0000   1.0000   1.0000   1.0000   1.0000
     1.0000   1.0000   1.0000   1.0000   1.0000   1.0000   1.0000   1.0000
     1.0000   1.0000   1.0000   1.0000   1.0000   1.0000   1.0000   1.0000
     1.0000   1.0000   1.0000   1.0000   1.0000   1.0000   1.0000   1.0000
     1.0000   1.0000   1.0000   1.0000   1.0000   1.0000   1.0000   1.0000
     1.0000   1.0000   1.0000   1.0000   1.0000   1.0000   1.0000   1.0000
     1.0000   1.0000   1.0000   1.0000   1.0000   1.0000   1.0000   1.0000
     1.0000   1.0000   1.0000   1.0000   1.0000   1.0000   1.0000   1.0000
     1.0000   1.0000   1.0000   1.0000   1.0000   1.0000   1.0000   1.0000
     1.0000   1.0000   1.0000   1.0000   1.0000   1.0000   1.0000   1.0000
     1.0000   1.0000   1.0000   1.0000   1.0000   1.0000   1.0000   1.0000
     1.0000   1.0000   1.0000   1.0000   1.0000   1.0000   1.0000   1.0000
     1.0000   1.0000   1.0000   1.0000   1.0000   1.0000   1.0000   1.0000
     1.0000   1.0000   1.0000   1.0000   1.0000   1.0000   1.0000   1.0000
     1.0000   1.0000   1.0000   1.0000   1.0000   1.0000   1.0000   1.0000
[...]
     atom   62 type  4   force =     0.00000000    0.00000000    0.00000000
     atom   63 type  4   force =     0.00000000    0.00000000    0.00000000
     The SCF correction term to forces
     atom    1 type  1   force =    -0.00000000   -0.00000000   -0.00000000
     atom    2 type  1   force =    -0.00000000    0.00000000   -0.00000000
     atom    3 type  1   force =    -0.00013467    0.00010615   -0.00000888
     atom    4 type  1   force =    -0.00013147   -0.00009805    0.00015538
     atom    5 type  1   force =    -0.00012025    0.00012132    0.00010635
     atom    6 type  1   force =    -0.00007699   -0.00011266    0.00010907
     atom    7 type  1   force =    -0.00000000   -0.00000000   -0.00000000
     atom    8 type  1   force =    -0.00000000    0.00000000   -0.00000000
     atom    9 type  1   force =    -0.00010038   -0.00005415    0.00020977
     atom   10 type  1   force =    -0.00016431    0.00005619   -0.00006971
     atom   11 type  1   force =    -0.00009808    0.00017122    0.00005789
     atom   12 type  1   force =    -0.00010061   -0.00017306    0.00013055
     atom   13 type  1   force =     0.00000000   -0.00000000   -0.00000000
     atom   14 type  1   force =     0.00000000    0.00000000   -0.00000000
     atom   15 type  1   force =     0.00011168    0.00008802   -0.00007678
     atom   16 type  1   force =     0.00011215   -0.00008415    0.00010849
     atom   17 type  1   force =     0.00008134    0.00009245    0.00016705
     atom   18 type  1   force =     0.00005675   -0.00009034    0.00014676
     atom   19 type  1   force =     0.00000000   -0.00000000   -0.00000000
     atom   20 type  1   force =     0.00000000    0.00000000   -0.00000000
     atom   21 type  1   force =     0.00008925   -0.00004683    0.00014834
     atom   22 type  1   force =     0.00014301    0.00004583   -0.00011657
     atom   23 type  1   force =     0.00006852    0.00015208    0.00013071
     atom   24 type  1   force =     0.00007607   -0.00015674    0.00015439
     atom   25 type  1   force =    -0.00000000   -0.00000000   -0.00000000
     atom   26 type  1   force =     0.00000000    0.00000000   -0.00000000
     atom   27 type  1   force =    -0.00017350    0.00012287   -0.00003132
     atom   28 type  1   force =    -0.00017141   -0.00012203    0.00031187
     atom   29 type  1   force =    -0.00011924   -0.00005338    0.00019265
     atom   30 type  1   force =    -0.00014100    0.00005671    0.00014225
     atom   31 type  1   force =    -0.00000000   -0.00000000   -0.00000000
     atom   32 type  1   force =     0.00000000    0.00000000   -0.00000000
     atom   33 type  1   force =    -0.00017406    0.00007984    0.00016828
     atom   34 type  1   force =    -0.00015528   -0.00006963    0.00010645
     atom   35 type  1   force =    -0.00014208    0.00020156    0.00015841
     atom   36 type  1   force =    -0.00013709   -0.00019312    0.00019130
     atom   37 type  1   force =    -0.00000000   -0.00000000   -0.00000000
     atom   38 type  1   force =    -0.00000000    0.00000000   -0.00000000
     atom   39 type  1   force =     0.00012812    0.00008116   -0.00019701
     atom   40 type  1   force =     0.00013878   -0.00008792    0.00011574
     atom   41 type  1   force =     0.00008969   -0.00003555    0.00009447
     atom   42 type  1   force =     0.00011983    0.00003253    0.00005457
     atom   43 type  1   force =     0.00000000   -0.00000000   -0.00000000
     atom   44 type  1   force =    -0.00000000    0.00000000   -0.00000000
     atom   45 type  1   force =     0.00014514    0.00002882    0.00000138
     atom   46 type  1   force =     0.00012137   -0.00001941   -0.00007556
     atom   47 type  1   force =     0.00010565    0.00018376    0.00006078
     atom   48 type  1   force =     0.00010633   -0.00016856    0.00009379
     atom   49 type  3   force =     0.00000235   -0.00000190    0.00000855
     atom   50 type  3   force =     0.00000188    0.00000608    0.00000936
     atom   51 type  3   force =    -0.00000078    0.00000176   -0.00000912
     atom   52 type  3   force =     0.00000155    0.00000528   -0.00000799
     atom   53 type  3   force =    -0.00000369   -0.00000260   -0.00001055
     atom   54 type  3   force =     0.00000118    0.00001129   -0.00001199
     atom   55 type  3   force =     0.00000193   -0.00000531   -0.00000063
     atom   56 type  2   force =    -0.00000110    0.00000468    0.00000446
     atom   57 type  2   force =    -0.00000092   -0.00001861   -0.00000068
     atom   58 type  4   force =    -0.00000406   -0.00000165   -0.00000276
     atom   59 type  4   force =    -0.00000032   -0.00000146   -0.00000028
     atom   60 type  4   force =    -0.00000088   -0.00000286    0.00000171
     atom   61 type  4   force =     0.00000285   -0.00000092    0.00000133
     atom   62 type  4   force =     0.00000058    0.00000154   -0.00000090
     atom   63 type  4   force =     0.00000037   -0.00000308   -0.00000015

     DFT-D3 dispersion contribution to forces:
     atom    1 type  1   force =    -0.00000125   -0.00002242    0.00015347
     atom    2 type  1   force =    -0.00004867   -0.00003458    0.00008102
     atom    3 type  1   force =     0.00077112   -0.00005188    0.00125715
     atom    4 type  1   force =     0.00070538    0.00002303    0.00133267
     atom    5 type  1   force =    -0.00005143    0.00023325   -0.00209999
     atom    6 type  1   force =     0.00021289   -0.00027272   -0.00175673
     atom    7 type  1   force =     0.00001900    0.00000819    0.00020605
     atom    8 type  1   force =    -0.00000524   -0.00003545    0.00014480
     atom    9 type  1   force =     0.00075941    0.00000318    0.00139819
     atom   10 type  1   force =     0.00080217   -0.00002505    0.00119433
     atom   11 type  1   force =     0.00034401    0.00039227   -0.00129695
     atom   12 type  1   force =    -0.00000647   -0.00033046   -0.00204577
     atom   13 type  1   force =     0.00000204   -0.00002309    0.00009442
     atom   14 type  1   force =    -0.00003716   -0.00001399    0.00010635
     atom   15 type  1   force =     0.00071824    0.00002531    0.00124377
     atom   16 type  1   force =     0.00075760   -0.00005108    0.00143552
     atom   17 type  1   force =    -0.00040835    0.00019630   -0.00218342
     atom   18 type  1   force =    -0.00090776   -0.00031877   -0.00130705
     atom   19 type  1   force =     0.00000989   -0.00000072    0.00014079
     atom   20 type  1   force =    -0.00001767   -0.00002223    0.00012435
     atom   21 type  1   force =     0.00078634   -0.00004701    0.00099807
     atom   22 type  1   force =     0.00084593    0.00004523    0.00112887
     atom   23 type  1   force =    -0.00089223    0.00039816   -0.00129246
     atom   24 type  1   force =    -0.00041367   -0.00026610   -0.00211228
     atom   25 type  1   force =    -0.00016204   -0.00004507    0.00394381
     atom   26 type  1   force =    -0.00013850    0.00004822    0.00401204
     atom   27 type  1   force =    -0.00016152    0.00001595    0.00014901
     atom   28 type  1   force =    -0.00021438   -0.00004901    0.00041947
     atom   29 type  1   force =    -0.00019493    0.00001775   -0.00254922
     atom   30 type  1   force =     0.00016920   -0.00025072   -0.00144235
     atom   31 type  1   force =    -0.00010249    0.00002645    0.00395168
     atom   32 type  1   force =    -0.00011887   -0.00001267    0.00404726
     atom   33 type  1   force =    -0.00017247   -0.00003567    0.00006683
     atom   34 type  1   force =    -0.00025734    0.00007925    0.00015611
     atom   35 type  1   force =    -0.00021064    0.00068075   -0.00177701
     atom   36 type  1   force =    -0.00015231   -0.00064540   -0.00203533
     atom   37 type  1   force =    -0.00019040   -0.00002848    0.00396659
     atom   38 type  1   force =    -0.00008830    0.00004887    0.00399560
     atom   39 type  1   force =    -0.00026627    0.00004274    0.00015578
     atom   40 type  1   force =    -0.00026300   -0.00003816    0.00021995
     atom   41 type  1   force =    -0.00016138   -0.00000016   -0.00283384
     atom   42 type  1   force =    -0.00003425   -0.00000727   -0.00242819
     atom   43 type  1   force =    -0.00009844    0.00002357    0.00406699
     atom   44 type  1   force =    -0.00015238    0.00002470    0.00397791
     atom   45 type  1   force =    -0.00028114    0.00004574    0.00012962
     atom   46 type  1   force =    -0.00027993   -0.00002782    0.00013523
     atom   47 type  1   force =    -0.00005013    0.00009688   -0.00268579
     atom   48 type  1   force =    -0.00012030   -0.00010830   -0.00274962
     atom   49 type  3   force =     0.00004218   -0.00008081   -0.00008959
     atom   50 type  3   force =    -0.00000913    0.00001245   -0.00034515
     atom   51 type  3   force =     0.00022235    0.00005256   -0.00046419
     atom   52 type  3   force =    -0.00012491   -0.00017443   -0.00052417
     atom   53 type  3   force =     0.00031557    0.00006412   -0.00103895
     atom   54 type  3   force =    -0.00020164   -0.00026468   -0.00113910
     atom   55 type  3   force =    -0.00002023    0.00003616   -0.00130679
     atom   56 type  2   force =    -0.00012070    0.00019410   -0.00016210
     atom   57 type  2   force =    -0.00013134    0.00020499   -0.00165374
     atom   58 type  4   force =    -0.00017947    0.00015661   -0.00144433
     atom   59 type  4   force =    -0.00008795    0.00014588   -0.00168867
     atom   60 type  4   force =    -0.00002748   -0.00002527   -0.00007552
     atom   61 type  4   force =     0.00003767    0.00001809   -0.00006091
     atom   62 type  4   force =     0.00000291   -0.00002396   -0.00100599
     atom   63 type  4   force =     0.00004029   -0.00002733   -0.00083847

     Total force =     0.006979     Total SCF correction =     0.001222

     DFT-D3 dispersion Force =     0.015344
     SCF correction compared to forces is large: reduce conv_thr to get better values


     Computing stress (Cartesian axis) and pressure


     negative rho (up, down):  4.102E-03 0.000E+00
          total   stress  (Ry/bohr**3)                   (kbar)     P=      -17.99
  -0.00023290   0.00000003   0.00000070          -34.26        0.00        0.10
   0.00000003  -0.00011864  -0.00000278            0.00      -17.45       -0.41
   0.00000070  -0.00000278  -0.00001536            0.10       -0.41       -2.26

     kinetic stress (kbar)  12414.13     -7.67    -22.39
                               -7.67  12406.83     30.87
                              -22.39     30.87  12479.81

     local   stress (kbar)-990223.30    -57.65   -813.71
                              -57.65-998980.69   1266.27
                             -813.71   1266.27 999238.66

     nonloc. stress (kbar)  -1155.60      0.25      2.52
                                0.25  -1143.67     -3.53
                                2.52     -3.53  -1185.07

     hartree stress (kbar) 521491.28     10.19    310.49
                               10.19 525250.15   -497.29
                              310.49   -497.29-466115.55

     exc-cor stress (kbar)  -6053.24      0.42      1.30
                                0.42  -6051.10     -1.79
                                1.30     -1.79  -6059.22

     corecor stress (kbar)    -79.93     -0.16     -0.40
                               -0.16    -79.86      0.57
                               -0.40      0.57    -79.72

     ewald   stress (kbar) 463579.93     54.62    522.38
                               54.62 468589.69   -795.53
                              522.38   -795.53-538277.27

     hubbard stress (kbar)      0.00      0.00      0.00
                                0.00      0.00      0.00
                                0.00      0.00      0.00

     DFT-D   stress (kbar)     -7.53      0.01     -0.10
                                0.01     -8.80      0.02
                               -0.10      0.02     -3.90

     XDM     stress (kbar)      0.00      0.00      0.00
                                0.00      0.00      0.00
                                0.00      0.00      0.00

     dft-nl  stress (kbar)      0.00      0.00      0.00
                                0.00      0.00      0.00
                                0.00      0.00      0.00

     TS-vdW  stress (kbar)      0.00      0.00      0.00
                                0.00      0.00      0.00
                                0.00      0.00      0.00

     MDB     stress (kbar)      0.00      0.00      0.00
                                0.00      0.00      0.00
                                0.00      0.00      0.00

     3D-RISM stress (kbar)      0.00      0.00      0.00
                                0.00      0.00      0.00
                                0.00      0.00      0.00

     Energy error            =      9.0E-05 Ry
     Gradient error          =      2.5E-03 Ry/Bohr

     number of scf cycles    =  30
     number of bfgs steps    =  29

     energy             old  =  -22331.2616438615 Ry
     energy             new  =  -22331.2617337292 Ry

     CASE: energy            _new < energy            _old

     new trust radius        =       0.1290460757 bohr
     new conv_thr            =       0.0000000499 Ry


ATOMIC_POSITIONS (angstrom)
Zn               1.2182900000        1.3071800000        0.7547010000    0   0   0
Zn               1.2182900000        6.5359000004        0.7547010000    0   0   0
Zn               0.5237647642        0.0059832222        3.6327654400
Zn               0.5183559951        5.2521819036        3.6152379173
Zn               1.2388791448       -1.2917359127        6.0706038762
Zn               1.2063526970        3.9441356624        5.9577451362
Zn               1.2182900000        3.9215400000        0.7547010000    0   0   0
Zn               1.2182900000        9.1502600000        0.7547010000    0   0   0
Zn               0.5186153035        2.6183914227        3.5926856317
Zn               0.5259307599        7.8582813120        3.6263262370
Zn               1.2309609253        1.3281135382        6.0364170269
Zn               1.2361351139        6.5517059929        6.0666084614
Zn               6.0914510000        1.3071800000        0.7547010000    0   0   0
Zn               6.0914510000        6.5359000004        0.7547010000    0   0   0
Zn               5.3923310763        0.0146467742        3.6542814226
Zn               5.4128180094        5.2364589304        3.6252343440
Zn               6.1043064274       -1.2893136957        6.0714209195
Zn               6.1137414106        3.9341263544        6.0595795928
Zn               6.0914510000        3.9215400000        0.7547010000    0   0   0
Zn               6.0914510000        9.1502600000        0.7547010000    0   0   0
Zn               5.3910650293        2.6206775055        3.6318448355
Zn               5.4008153194        7.8506232896        3.6328045325
Zn               6.0987479982        1.3291186617        6.1056361910
Zn               6.1087335011        6.5515738559        6.0668185538
Zn               3.6548710000        0.0000000001        1.5094010000    0   0   0
Zn               3.6548710000        5.2287200000        1.5094010000    0   0   0
Zn               2.8844821259       -1.2902210499        3.6951802206
Zn               2.8864821265        3.9154353637        3.7114684034
Zn               3.6705166820       -2.5918207738        5.9995585408
Zn               3.6860952242        2.6317940138        6.1902069307
Zn               3.6548710000        2.6143600000        1.5094010000    0   0   0
Zn               3.6548710000        7.8430800001        1.5094010000    0   0   0
Zn               2.8875336019        1.3214618233        3.7005612187
Zn               2.8689173609        6.5514908619        3.6649130050
Zn               3.6766274801        0.0253870814        6.0049537774
Zn               3.6878454397        5.2663251756        5.8922694177
Zn               8.5280310000        0.0000000001        1.5094010000    0   0   0
Zn               8.5280310000        5.2287200000        1.5094010000    0   0   0
Zn               7.7459132375       -1.2949375483        3.6859174952
Zn               7.7548054343        3.9228865255        3.6968650125
Zn               8.5470173641       -2.6003174599        6.0014315580
Zn               8.5545763744        2.6231418710        5.9879329192
Zn               8.5280310000        2.6143600000        1.5094010000    0   0   0
Zn               8.5280310000        7.8430800001        1.5094010000    0   0   0
Zn               7.7397072505        1.3168827347        3.6894570835
Zn               7.7460643315        6.5434748078        3.6789431037
Zn               8.5551071147        0.0118366600        5.9985272492
Zn               8.5438833274        5.2463937269        5.9832848757
C                5.4393609034       -0.2645633109       12.5761513580
C                4.8931029641        0.6110909399       11.5890959772
C                5.6324548876        1.7229037176       11.1407429179
C                3.6165555649        0.3723010519       11.0436887019
C                5.1171940947        2.5648593864       10.1641741494
C                3.0982368062        1.2179084417       10.0713815791
C                3.8393443571        2.3274343938        9.6265871970
N                5.8934078509       -0.9914189330       13.3701363917
N                3.3388081594        3.1531089929        8.6118747565
H                2.3237654233        3.1768420298        8.5140839137
H                3.7226040952        4.0971659069        8.5869195135
H                3.0321962811       -0.4768638989       11.4000882214
H                6.6129222510        1.9240384163       11.5726009505
H                2.1070356953        1.0225379802        9.6554816629
H                5.6962000977        3.4283323326        9.8282096011



     Writing config-only to output data dir ./tmp/03_Zn100_ABN_topsite_tilt.save/ :
     XML data file
     NEW-OLD atomic charge density approx. for the potential

     negative rho (up, down):  4.106E-03 0.000E+00

     total cpu time spent up to now is   208312.8 secs

     Self-consistent Calculation

     iteration #  1     ecut=    40.00 Ry     beta= 0.40
     Davidson diagonalization with overlap

---- Real-time Memory Report at c_bands before calling an iterative solver
           456 MiB given to the printing process from OS
             0 MiB allocation reported by mallinfo(arena+hblkhd)
         26609 MiB available memory on the node where the printing process lives
------------------
     ethr =  1.00E-06,  avg # of iterations =  6.0

     negative rho (up, down):  4.101E-03 0.000E+00

     total cpu time spent up to now is   209659.9 secs

     total energy              =  -22331.26142131 Ry
     estimated scf accuracy    <       0.00528772 Ry

     iteration #  2     ecut=    40.00 Ry     beta= 0.40
     Davidson diagonalization with overlap

---- Real-time Memory Report at c_bands before calling an iterative solver
           456 MiB given to the printing process from OS
             0 MiB allocation reported by mallinfo(arena+hblkhd)
         26455 MiB available memory on the node where the printing process lives
------------------
     ethr =  5.27E-07,  avg # of iterations =  3.0

     negative rho (up, down):  4.100E-03 0.000E+00

     total cpu time spent up to now is   210289.8 secs

     total energy              =  -22331.26170256 Ry
     estimated scf accuracy    <       0.00092460 Ry

     iteration #  3     ecut=    40.00 Ry     beta= 0.40
     Davidson diagonalization with overlap

---- Real-time Memory Report at c_bands before calling an iterative solver
           456 MiB given to the printing process from OS
             0 MiB allocation reported by mallinfo(arena+hblkhd)
         26405 MiB available memory on the node where the printing process lives
------------------
