--------------------------------------------------------------------------
By default, for Open MPI 4.0 and later, infiniband ports on a device
are not used by default.  The intent is to use UCX for these devices.
You can override this policy by setting the btl_openib_allow_ib MCA parameter
to true.

  Local host:              psid01
  Local adapter:           mlx5_0
  Local port:              1

--------------------------------------------------------------------------
--------------------------------------------------------------------------
WARNING: There was an error initializing an OpenFabrics device.

  Local host:   psid01
  Local device: mlx5_0
--------------------------------------------------------------------------

     Program PWSCF v.7.3.1 starts on 16Mar2025 at 16:43:15 

     This program is part of the open-source Quantum ESPRESSO suite
     for quantum simulation of materials; please cite
         "P. Giannozzi et al., J. Phys.:Condens. Matter 21 395502 (2009);
         "P. Giannozzi et al., J. Phys.:Condens. Matter 29 465901 (2017);
         "P. Giannozzi et al., J. Chem. Phys. 152 154105 (2020);
          URL http://www.quantum-espresso.org", 
     in publications or presentations arising from this work. More details at
     http://www.quantum-espresso.org/quote

     Parallel version (MPI), running on    30 processors

     MPI processes distributed on     1 nodes
     72654 MiB available memory on the printing compute node when the environment starts

     Waiting for input...
     Reading input from standard input
Warning: card &CELL ignored
Warning: card   CELL_DOFREE = 'ALL' ignored
Warning: card / ignored

     Current dimensions of program PWSCF are:
     Max number of different atomic species (ntypx) = 10
     Max number of k-points (npk) =  40000
     Max angular momentum in pseudopotentials (lmaxx) =  4
     file C.pbe-n-kjpaw_psl.1.0.0.UPF: wavefunction(s)  2S 2P renormalized

     R & G space division:  proc/nbgrp/npool/nimage =      30
     Subspace diagonalization in iterative solution of the eigenvalue problem:
     one sub-group per band group will be used
     custom distributed-memory algorithm (size of sub-group:  4*  4 procs)


     Parallelization info
     --------------------
     sticks:   dense  smooth     PW     G-vecs:    dense   smooth      PW
     Min          58      58     15                 5864     5864     837
     Max          59      59     16                 5871     5871     852
     Sum        1747    1747    475               176049   176049   25347

     Using Slab Decomposition



     bravais-lattice index     =            0
     lattice parameter (alat)  =      18.4179  a.u.
     unit-cell volume          =    7929.1084 (a.u.)^3
     number of atoms/cell      =           47
     number of atomic types    =            4
     number of electrons       =       684.00
     number of Kohn-Sham states=          410
     kinetic-energy cutoff     =      30.0000  Ry
     charge density cutoff     =     120.0000  Ry
     scf convergence threshold =      7.3E-07
     mixing beta               =       0.7000
     number of iterations used =            8  plain     mixing
     energy convergence thresh.=      1.0E-05
     force convergence thresh. =      5.0E-04
     Exchange-correlation= PBE
                           (   1   4   3   4   0   0   0)
     nstep                     =          100


     celldm(1)=  18.417879  celldm(2)=   0.000000  celldm(3)=   0.000000
     celldm(4)=   0.000000  celldm(5)=   0.000000  celldm(6)=   0.000000

     crystal axes: (cart. coord. in units of alat)
               a(1) = (   1.000000   0.000000   0.000000 )  
               a(2) = (   0.000000   0.536481   0.000000 )  
               a(3) = (   0.000000  -1.365810   2.365652 )  

     reciprocal axes: (cart. coord. in units 2 pi/alat)
               b(1) = (  1.000000  0.000000 -0.000000 )  
               b(2) = ( -0.000000  1.863998  1.076180 )  
               b(3) = (  0.000000  0.000000  0.422716 )  


     PseudoPot. # 1 for Zn read from file:
     /home/ys/qepseudo/SSSP_1.3.0_PBE_efficiency/Zn_pbe_v1.uspp.F.UPF
     MD5 check sum: df62231357ef9e81f77b2b3087fa5675
     Pseudo is Ultrasoft, Zval = 20.0
     Generated by new atomic code, or converted to UPF format
     Using radial grid of  943 points,  6 beta functions with: 
                l(1) =   0
                l(2) =   0
                l(3) =   1
                l(4) =   1
                l(5) =   2
                l(6) =   2
     Q(r) pseudized with  8 coefficients,  rinner =    1.100   1.100   1.100
                                                       1.100   1.100

     PseudoPot. # 2 for C  read from file:
     /home/ys/qepseudo/SSSP_1.3.0_PBE_efficiency/C.pbe-n-kjpaw_psl.1.0.0.UPF
     MD5 check sum: 5d2aebdfa2cae82b50a7e79e9516da0f
     Pseudo is Projector augmented-wave + core cor, Zval =  4.0
     Generated using "atomic" code by A. Dal Corso  v.5.1
     Shape of augmentation charge: PSQ
     Using radial grid of 1073 points,  4 beta functions with: 
                l(1) =   0
                l(2) =   0
                l(3) =   1
                l(4) =   1
     Q(r) pseudized with 0 coefficients 


     PseudoPot. # 3 for N  read from file:
     /home/ys/qepseudo/SSSP_1.3.0_PBE_efficiency/N.pbe-n-radius_5.UPF
     MD5 check sum: 16739722b17309cd8fe442a2ace49922
     Pseudo is Ultrasoft + core correction, Zval =  5.0
     Generated using "atomic" code by A. Dal Corso  v.5.1
     Using radial grid of 1085 points,  4 beta functions with: 
                l(1) =   0
                l(2) =   0
                l(3) =   1
                l(4) =   1
     Q(r) pseudized with 0 coefficients 


     PseudoPot. # 4 for H  read from file:
     /home/ys/qepseudo/SSSP_1.3.0_PBE_efficiency/H.pbe-rrkjus_psl.1.0.0.UPF
     MD5 check sum: f52b6d4d1c606e5624b1dc7b2218f220
     Pseudo is Ultrasoft, Zval =  1.0
     Generated using "atomic" code by A. Dal Corso  v.5.1
     Using radial grid of  929 points,  2 beta functions with: 
                l(1) =   0
                l(2) =   0
     Q(r) pseudized with 0 coefficients 


     atomic species   valence    mass     pseudopotential
     Zn               20.00    65.38000     Zn( 1.00)
     C                 4.00    12.01070     C ( 1.00)
     N                 5.00    14.00670     N ( 1.00)
     H                 1.00     1.00800     H ( 1.00)

     No symmetry found


                                    s                        frac. trans.

      isym =  1     identity                                     

 cryst.   s( 1) = (     1          0          0      )
                  (     0          1          0      )
                  (     0          0          1      )

 cart.    s( 1) = (  1.0000000  0.0000000  0.0000000 )
                  (  0.0000000  1.0000000 -0.0000000 )
                  (  0.0000000  0.0000000  1.0000000 )


   Cartesian axes

     site n.     atom                  positions (alat units)
         1        Zn     tau(   1) = (   0.1250000   0.1341203   0.0774344  )
         2        Zn     tau(   2) = (   0.1250000   0.0000000   0.3097376  )
         3        Zn     tau(   3) = (   0.1252274  -0.1341230   0.5810209  )
         4        Zn     tau(   4) = (   0.1252343  -0.2682335   0.8536748  )
         5        Zn     tau(   5) = (   0.1250000   0.4023610   0.0774344  )
         6        Zn     tau(   6) = (   0.1250000   0.2682407   0.3097376  )
         7        Zn     tau(   7) = (   0.1252273   0.1341177   0.5810211  )
         8        Zn     tau(   8) = (   0.1252343   0.0000071   0.8536747  )
         9        Zn     tau(   9) = (   0.6250000   0.1341203   0.0774344  )
        10        Zn     tau(  10) = (   0.6250000   0.0000000   0.3097376  )
        11        Zn     tau(  11) = (   0.6247544  -0.1341232   0.5808336  )
        12        Zn     tau(  12) = (   0.6247716  -0.2682336   0.8536785  )
        13        Zn     tau(  13) = (   0.6250000   0.4023610   0.0774344  )
        14        Zn     tau(  14) = (   0.6250000   0.2682407   0.3097376  )
        15        Zn     tau(  15) = (   0.6247545   0.1341174   0.5808334  )
        16        Zn     tau(  16) = (   0.6247717   0.0000071   0.8536785  )
        17        Zn     tau(  17) = (   0.3750000  -0.0000000   0.1548688  )
        18        Zn     tau(  18) = (   0.3750000  -0.1341203   0.3871721  )
        19        Zn     tau(  19) = (   0.3749045  -0.2682370   0.6231456  )
        20        Zn     tau(  20) = (   0.3748936  -0.4023530   0.8690866  )
        21        Zn     tau(  21) = (   0.3750000   0.2682407   0.1548688  )
        22        Zn     tau(  22) = (   0.3750000   0.1341203   0.3871721  )
        23        Zn     tau(  23) = (   0.3749046   0.0000037   0.6231455  )
        24        Zn     tau(  24) = (   0.3748935  -0.1341123   0.8690865  )
        25        Zn     tau(  25) = (   0.8750000  -0.0000000   0.1548688  )
        26        Zn     tau(  26) = (   0.8750000  -0.1341203   0.3871721  )
        27        Zn     tau(  27) = (   0.8750648  -0.2682369   0.6230150  )
        28        Zn     tau(  28) = (   0.8751138  -0.4023527   0.8691801  )
        29        Zn     tau(  29) = (   0.8750000   0.2682407   0.1548688  )
        30        Zn     tau(  30) = (   0.8750000   0.1341203   0.3871721  )
        31        Zn     tau(  31) = (   0.8750650   0.0000037   0.6230149  )
        32        Zn     tau(  32) = (   0.8751139  -0.1341120   0.8691802  )
        33        C      tau(  33) = (   0.3731961  -0.1526142   1.8010181  )
        34        C      tau(  34) = (   0.3714046  -0.1482256   1.6576088  )
        35        C      tau(  35) = (   0.4560672  -0.0561241   1.5849860  )
        36        C      tau(  36) = (   0.2848736  -0.2362060   1.5819499  )
        37        C      tau(  37) = (   0.2829128  -0.2321608   1.4397832  )
        38        C      tau(  38) = (   0.4542690  -0.0520688   1.4429647  )
        39        C      tau(  39) = (   0.3679370  -0.1401481   1.3679576  )
        40        N      tau(  40) = (   0.3747718  -0.1561070   1.9260670  )
        41        N      tau(  41) = (   0.3656743  -0.1357566   1.2298072  )
        42        H      tau(  42) = (   0.3034994  -0.1993140   1.1721587  )
        43        H      tau(  43) = (   0.4268410  -0.0690632   1.1743634  )
        44        H      tau(  44) = (   0.5236034   0.0128485   1.6420429  )
        45        H      tau(  45) = (   0.2186302  -0.3084901   1.6366417  )
        46        H      tau(  46) = (   0.2150186  -0.3015475   1.3831073  )
        47        H      tau(  47) = (   0.5207500   0.0205859   1.3885215  )

   Crystallographic axes

     site n.     atom                  positions (cryst. coord.)
         1        Zn     tau(   1) = (  0.1250000  0.3333333  0.0327328  )
         2        Zn     tau(   2) = (  0.1250000  0.3333333  0.1309312  )
         3        Zn     tau(   3) = (  0.1252274  0.3752778  0.2456071  )
         4        Zn     tau(   4) = (  0.1252343  0.4187207  0.3608623  )
         5        Zn     tau(   5) = (  0.1250000  0.8333333  0.0327328  )
         6        Zn     tau(   6) = (  0.1250000  0.8333333  0.1309312  )
         7        Zn     tau(   7) = (  0.1252273  0.8752780  0.2456071  )
         8        Zn     tau(   8) = (  0.1252343  0.9187206  0.3608623  )
         9        Zn     tau(   9) = (  0.6250000  0.3333333  0.0327328  )
        10        Zn     tau(  10) = (  0.6250000  0.3333333  0.1309312  )
        11        Zn     tau(  11) = (  0.6247544  0.3750759  0.2455279  )
        12        Zn     tau(  12) = (  0.6247716  0.4187246  0.3608639  )
        13        Zn     tau(  13) = (  0.6250000  0.8333333  0.0327328  )
        14        Zn     tau(  14) = (  0.6250000  0.8333333  0.1309312  )
        15        Zn     tau(  15) = (  0.6247545  0.8750757  0.2455278  )
        16        Zn     tau(  16) = (  0.6247717  0.9187247  0.3608639  )
        17        Zn     tau(  17) = (  0.3750000  0.1666667  0.0654656  )
        18        Zn     tau(  18) = (  0.3750000  0.1666667  0.1636640  )
        19        Zn     tau(  19) = (  0.3749045  0.1706234  0.2634138  )
        20        Zn     tau(  20) = (  0.3748936  0.1853081  0.3673772  )
        21        Zn     tau(  21) = (  0.3750000  0.6666667  0.0654656  )
        22        Zn     tau(  22) = (  0.3750000  0.6666667  0.1636640  )
        23        Zn     tau(  23) = (  0.3749046  0.6706233  0.2634138  )
        24        Zn     tau(  24) = (  0.3748935  0.6853081  0.3673771  )
        25        Zn     tau(  25) = (  0.8750000  0.1666667  0.0654656  )
        26        Zn     tau(  26) = (  0.8750000  0.1666667  0.1636640  )
        27        Zn     tau(  27) = (  0.8750648  0.1704831  0.2633587  )
        28        Zn     tau(  28) = (  0.8751138  0.1854093  0.3674167  )
        29        Zn     tau(  29) = (  0.8750000  0.6666667  0.0654656  )
        30        Zn     tau(  30) = (  0.8750000  0.6666667  0.1636640  )
        31        Zn     tau(  31) = (  0.8750650  0.6704828  0.2633586  )
        32        Zn     tau(  32) = (  0.8751139  0.6854095  0.3674167  )
        33        C      tau(  33) = (  0.3731961  1.6537464  0.7613199  )
        34        C      tau(  34) = (  0.3714046  1.5075925  0.7006984  )
        35        C      tau(  35) = (  0.4560672  1.6011144  0.6699996  )
        36        C      tau(  36) = (  0.2848736  1.2621746  0.6687161  )
        37        C      tau(  37) = (  0.2829128  1.1167181  0.6086200  )
        38        C      tau(  38) = (  0.4542690  1.4558329  0.6099648  )
        39        C      tau(  39) = (  0.3679370  1.2109323  0.5782581  )
        40        N      tau(  40) = (  0.3747718  1.7818110  0.8141801  )
        41        N      tau(  41) = (  0.3656743  1.0704435  0.5198597  )
        42        H      tau(  42) = (  0.3034994  0.8899323  0.4954907  )
        43        H      tau(  43) = (  0.4268410  1.1350923  0.4964227  )
        44        H      tau(  44) = (  0.5236034  1.7910826  0.6941184  )
        45        H      tau(  45) = (  0.2186302  1.1862955  0.6918353  )
        46        H      tau(  46) = (  0.2150186  0.9263881  0.5846621  )
        47        H      tau(  47) = (  0.5207500  1.5326705  0.5869508  )

     number of k points=     5  Marzari-Vanderbilt smearing, width (Ry)=  0.0200
                       cart. coord. in units 2pi/alat
        k(    1) = (   0.0000000   0.0000000   0.0000000), wk =   0.2222222
        k(    2) = (   0.0000000   0.6213326   0.3587265), wk =   0.4444444
        k(    3) = (   0.3333333   0.0000000   0.0000000), wk =   0.4444444
        k(    4) = (   0.3333333   0.6213326   0.3587265), wk =   0.4444444
        k(    5) = (   0.3333333  -0.6213326  -0.3587265), wk =   0.4444444

                       cryst. coord.
        k(    1) = (   0.0000000   0.0000000   0.0000000), wk =   0.2222222
        k(    2) = (   0.0000000   0.3333333   0.0000000), wk =   0.4444444
        k(    3) = (   0.3333333   0.0000000   0.0000000), wk =   0.4444444
        k(    4) = (   0.3333333   0.3333333   0.0000000), wk =   0.4444444
        k(    5) = (   0.3333333  -0.3333333   0.0000000), wk =   0.4444444

     Dense  grid:   176049 G-vectors     FFT dimensions: (  72,  36, 180)

     Dynamical RAM for                 wfc:       4.59 MB

     Dynamical RAM for     wfc (w. buffer):      27.51 MB

     Dynamical RAM for           str. fact:       0.36 MB

     Dynamical RAM for           local pot:       0.00 MB

     Dynamical RAM for          nlocal pot:       7.38 MB

     Dynamical RAM for                qrad:       3.52 MB

     Dynamical RAM for          rho,v,vnew:       0.62 MB

     Dynamical RAM for               rhoin:       0.21 MB

     Dynamical RAM for            rho*nmix:       1.43 MB

     Dynamical RAM for           G-vectors:       0.38 MB

     Dynamical RAM for          h,s,v(r/c):       1.92 MB

     Dynamical RAM for          <psi|beta>:       4.13 MB

     Dynamical RAM for                 psi:       9.17 MB

     Dynamical RAM for                hpsi:       9.17 MB

     Dynamical RAM for                spsi:       9.17 MB

     Dynamical RAM for      wfcinit/wfcrot:      15.05 MB

     Dynamical RAM for           addusdens:      19.53 MB

     Dynamical RAM for          addusforce:      25.25 MB

     Dynamical RAM for         addusstress:      18.01 MB

     Estimated static dynamical RAM per process >      41.03 MB

     Estimated max dynamical RAM per process >      76.03 MB

     Estimated total dynamical RAM >       2.23 GB

     Check: negative core charge=   -0.000082

     Initial potential from superposition of free atoms

     starting charge     683.9951, renormalised to     684.0000

     negative rho (up, down):  1.909E-03 0.000E+00
     Starting wfcs are  458 randomized atomic wfcs
[psid01:227323] 29 more processes have sent help message help-mpi-btl-openib.txt / ib port not selected
[psid01:227323] Set MCA parameter "orte_base_help_aggregate" to 0 to see all help / error messages
[psid01:227323] 29 more processes have sent help message help-mpi-btl-openib.txt / error in device init
     Checking if some PAW data can be deallocated... 
       PAW data deallocated on   24 nodes for type:  2

     total cpu time spent up to now is       10.8 secs

     Self-consistent Calculation

     iteration #  1     ecut=    30.00 Ry     beta= 0.70
     Davidson diagonalization with overlap

---- Real-time Memory Report at c_bands before calling an iterative solver
            87 MiB given to the printing process from OS
             0 MiB allocation reported by mallinfo(arena+hblkhd)
         70616 MiB available memory on the node where the printing process lives
------------------
     ethr =  1.00E-02,  avg # of iterations =  6.6

     negative rho (up, down):  1.392E-02 0.000E+00

     total cpu time spent up to now is       52.5 secs

     total energy              =  -14933.71643900 Ry
     estimated scf accuracy    <      13.53113685 Ry

     iteration #  2     ecut=    30.00 Ry     beta= 0.70
     Davidson diagonalization with overlap

---- Real-time Memory Report at c_bands before calling an iterative solver
           110 MiB given to the printing process from OS
             0 MiB allocation reported by mallinfo(arena+hblkhd)
         70406 MiB available memory on the node where the printing process lives
------------------
     ethr =  1.98E-03,  avg # of iterations = 11.4

     negative rho (up, down):  1.312E-02 0.000E+00

     total cpu time spent up to now is      117.8 secs

     total energy              =  -14893.96065011 Ry
     estimated scf accuracy    <    1349.21891596 Ry

     iteration #  3     ecut=    30.00 Ry     beta= 0.70
     Davidson diagonalization with overlap

---- Real-time Memory Report at c_bands before calling an iterative solver
           112 MiB given to the printing process from OS
             0 MiB allocation reported by mallinfo(arena+hblkhd)
         70389 MiB available memory on the node where the printing process lives
------------------
     ethr =  1.98E-03,  avg # of iterations =  9.4

     negative rho (up, down):  1.117E-02 0.000E+00

     total cpu time spent up to now is      214.4 secs

     total energy              =  -14935.28007232 Ry
     estimated scf accuracy    <     107.66492095 Ry

     iteration #  4     ecut=    30.00 Ry     beta= 0.70
     Davidson diagonalization with overlap

---- Real-time Memory Report at c_bands before calling an iterative solver
           112 MiB given to the printing process from OS
             0 MiB allocation reported by mallinfo(arena+hblkhd)
         70393 MiB available memory on the node where the printing process lives
------------------
     ethr =  1.98E-03,  avg # of iterations =  7.0

     negative rho (up, down):  6.244E-03 0.000E+00

     total cpu time spent up to now is      256.8 secs

     total energy              =  -14939.20146491 Ry
     estimated scf accuracy    <      98.85727738 Ry

     iteration #  5     ecut=    30.00 Ry     beta= 0.70
     Davidson diagonalization with overlap

---- Real-time Memory Report at c_bands before calling an iterative solver
           112 MiB given to the printing process from OS
             0 MiB allocation reported by mallinfo(arena+hblkhd)
         70377 MiB available memory on the node where the printing process lives
------------------
     ethr =  1.98E-03,  avg # of iterations =  4.0

     negative rho (up, down):  6.283E-03 0.000E+00

     total cpu time spent up to now is      291.8 secs

     total energy              =  -14943.67918889 Ry
     estimated scf accuracy    <       3.33751173 Ry

     iteration #  6     ecut=    30.00 Ry     beta= 0.70
     Davidson diagonalization with overlap

---- Real-time Memory Report at c_bands before calling an iterative solver
           113 MiB given to the printing process from OS
             0 MiB allocation reported by mallinfo(arena+hblkhd)
         70378 MiB available memory on the node where the printing process lives
------------------
     ethr =  4.88E-04,  avg # of iterations =  8.8

     negative rho (up, down):  9.134E-03 0.000E+00

     total cpu time spent up to now is      329.1 secs

     total energy              =  -14944.00583086 Ry
     estimated scf accuracy    <       0.12479095 Ry

     iteration #  7     ecut=    30.00 Ry     beta= 0.70
     Davidson diagonalization with overlap

---- Real-time Memory Report at c_bands before calling an iterative solver
           113 MiB given to the printing process from OS
             0 MiB allocation reported by mallinfo(arena+hblkhd)
         70368 MiB available memory on the node where the printing process lives
------------------
     ethr =  1.82E-05,  avg # of iterations = 10.2

     negative rho (up, down):  1.161E-02 0.000E+00

     total cpu time spent up to now is      375.2 secs

     total energy              =  -14944.01333294 Ry
     estimated scf accuracy    <       0.05211191 Ry

     iteration #  8     ecut=    30.00 Ry     beta= 0.70
     Davidson diagonalization with overlap

---- Real-time Memory Report at c_bands before calling an iterative solver
           113 MiB given to the printing process from OS
             0 MiB allocation reported by mallinfo(arena+hblkhd)
         70361 MiB available memory on the node where the printing process lives
------------------
     ethr =  7.62E-06,  avg # of iterations =  9.8

     negative rho (up, down):  1.300E-02 0.000E+00

     total cpu time spent up to now is      422.0 secs

     total energy              =  -14944.01400909 Ry
     estimated scf accuracy    <       0.05952602 Ry

     iteration #  9     ecut=    30.00 Ry     beta= 0.70
     Davidson diagonalization with overlap

---- Real-time Memory Report at c_bands before calling an iterative solver
           114 MiB given to the printing process from OS
             0 MiB allocation reported by mallinfo(arena+hblkhd)
         70352 MiB available memory on the node where the printing process lives
------------------
     ethr =  7.62E-06,  avg # of iterations =  5.4

     negative rho (up, down):  1.346E-02 0.000E+00

     total cpu time spent up to now is      457.6 secs

     total energy              =  -14944.02043202 Ry
     estimated scf accuracy    <       0.02865945 Ry

     iteration # 10     ecut=    30.00 Ry     beta= 0.70
     Davidson diagonalization with overlap

---- Real-time Memory Report at c_bands before calling an iterative solver
           114 MiB given to the printing process from OS
             0 MiB allocation reported by mallinfo(arena+hblkhd)
         70344 MiB available memory on the node where the printing process lives
------------------
     ethr =  4.19E-06,  avg # of iterations =  5.0

     negative rho (up, down):  1.358E-02 0.000E+00

     total cpu time spent up to now is      491.7 secs

     total energy              =  -14944.02271441 Ry
     estimated scf accuracy    <       0.01092807 Ry

     iteration # 11     ecut=    30.00 Ry     beta= 0.70
     Davidson diagonalization with overlap

---- Real-time Memory Report at c_bands before calling an iterative solver
           114 MiB given to the printing process from OS
             0 MiB allocation reported by mallinfo(arena+hblkhd)
         70338 MiB available memory on the node where the printing process lives
------------------
     c_bands:  1 eigenvalues not converged
     ethr =  1.60E-06,  avg # of iterations = 11.8

     negative rho (up, down):  1.454E-02 0.000E+00

     total cpu time spent up to now is      529.1 secs

     total energy              =  -14944.01803650 Ry
     estimated scf accuracy    <       0.00705589 Ry

     iteration # 12     ecut=    30.00 Ry     beta= 0.70
     Davidson diagonalization with overlap

---- Real-time Memory Report at c_bands before calling an iterative solver
           114 MiB given to the printing process from OS
             0 MiB allocation reported by mallinfo(arena+hblkhd)
         70338 MiB available memory on the node where the printing process lives
------------------
     c_bands:  1 eigenvalues not converged
     ethr =  1.03E-06,  avg # of iterations = 18.6

     negative rho (up, down):  1.462E-02 0.000E+00

     total cpu time spent up to now is      585.6 secs

     total energy              =  -14944.01738870 Ry
     estimated scf accuracy    <       0.02037556 Ry

     iteration # 13     ecut=    30.00 Ry     beta= 0.70
     Davidson diagonalization with overlap

---- Real-time Memory Report at c_bands before calling an iterative solver
           114 MiB given to the printing process from OS
             0 MiB allocation reported by mallinfo(arena+hblkhd)
         70337 MiB available memory on the node where the printing process lives
------------------
     c_bands:  1 eigenvalues not converged
     ethr =  1.03E-06,  avg # of iterations = 16.2

     negative rho (up, down):  1.383E-02 0.000E+00

     total cpu time spent up to now is      631.6 secs

     total energy              =  -14944.01938737 Ry
     estimated scf accuracy    <       0.00369195 Ry

     iteration # 14     ecut=    30.00 Ry     beta= 0.70
     Davidson diagonalization with overlap

---- Real-time Memory Report at c_bands before calling an iterative solver
           114 MiB given to the printing process from OS
             0 MiB allocation reported by mallinfo(arena+hblkhd)
         70338 MiB available memory on the node where the printing process lives
------------------
     ethr =  5.40E-07,  avg # of iterations = 11.6

     negative rho (up, down):  1.396E-02 0.000E+00

     total cpu time spent up to now is      679.2 secs

     total energy              =  -14944.01825200 Ry
     estimated scf accuracy    <       0.03320940 Ry

     iteration # 15     ecut=    30.00 Ry     beta= 0.70
     Davidson diagonalization with overlap

---- Real-time Memory Report at c_bands before calling an iterative solver
           114 MiB given to the printing process from OS
             0 MiB allocation reported by mallinfo(arena+hblkhd)
         70337 MiB available memory on the node where the printing process lives
------------------
     ethr =  5.40E-07,  avg # of iterations =  3.6

     negative rho (up, down):  1.389E-02 0.000E+00

     total cpu time spent up to now is      712.1 secs

     total energy              =  -14944.01992552 Ry
     estimated scf accuracy    <       0.00061740 Ry

     iteration # 16     ecut=    30.00 Ry     beta= 0.70
     Davidson diagonalization with overlap

---- Real-time Memory Report at c_bands before calling an iterative solver
           114 MiB given to the printing process from OS
             0 MiB allocation reported by mallinfo(arena+hblkhd)
         70334 MiB available memory on the node where the printing process lives
------------------
     ethr =  9.03E-08,  avg # of iterations =  2.0

     negative rho (up, down):  1.385E-02 0.000E+00

     total cpu time spent up to now is      743.7 secs

     total energy              =  -14944.01994340 Ry
     estimated scf accuracy    <       0.00035738 Ry

     iteration # 17     ecut=    30.00 Ry     beta= 0.70
     Davidson diagonalization with overlap

---- Real-time Memory Report at c_bands before calling an iterative solver
           114 MiB given to the printing process from OS
             0 MiB allocation reported by mallinfo(arena+hblkhd)
         70332 MiB available memory on the node where the printing process lives
------------------
     ethr =  5.22E-08,  avg # of iterations =  2.0

     negative rho (up, down):  1.381E-02 0.000E+00

     total cpu time spent up to now is      774.7 secs

     total energy              =  -14944.01998556 Ry
     estimated scf accuracy    <       0.00004593 Ry

     iteration # 18     ecut=    30.00 Ry     beta= 0.70
     Davidson diagonalization with overlap

---- Real-time Memory Report at c_bands before calling an iterative solver
           114 MiB given to the printing process from OS
             0 MiB allocation reported by mallinfo(arena+hblkhd)
         70337 MiB available memory on the node where the printing process lives
------------------
     ethr =  6.71E-09,  avg # of iterations =  2.0

     negative rho (up, down):  1.378E-02 0.000E+00

     total cpu time spent up to now is      806.0 secs

     total energy              =  -14944.01999075 Ry
     estimated scf accuracy    <       0.00001349 Ry

     iteration # 19     ecut=    30.00 Ry     beta= 0.70
     Davidson diagonalization with overlap

---- Real-time Memory Report at c_bands before calling an iterative solver
           114 MiB given to the printing process from OS
             0 MiB allocation reported by mallinfo(arena+hblkhd)
         70332 MiB available memory on the node where the printing process lives
------------------
     ethr =  1.97E-09,  avg # of iterations =  2.0

     negative rho (up, down):  1.377E-02 0.000E+00

     total cpu time spent up to now is      837.9 secs

     total energy              =  -14944.01999269 Ry
     estimated scf accuracy    <       0.00000120 Ry

     iteration # 20     ecut=    30.00 Ry     beta= 0.70
     Davidson diagonalization with overlap

---- Real-time Memory Report at c_bands before calling an iterative solver
           114 MiB given to the printing process from OS
             0 MiB allocation reported by mallinfo(arena+hblkhd)
         70337 MiB available memory on the node where the printing process lives
------------------
     ethr =  1.75E-10,  avg # of iterations =  3.0

     negative rho (up, down):  1.376E-02 0.000E+00

     total cpu time spent up to now is      870.7 secs

     End of self-consistent calculation

          k = 0.0000 0.0000 0.0000 ( 22019 PWs)   bands (ev):

  -123.0328-123.0308-123.0305-123.0299-122.9832-122.9818-122.9733-122.9719
  -122.9716-122.9694-122.9693-122.9686-122.8009-122.7992-122.7976-122.7968
  -122.7865-122.7851-122.7793-122.7778-122.7750-122.7730-122.7726-122.7719
  -122.7038-122.6898-122.6700-122.6688-122.5799-122.5741-122.5723-122.5674
   -77.1421 -77.1391 -77.1231 -77.1213 -77.1211 -77.1195 -77.1194 -77.1103
   -77.1076 -77.1063 -77.1054 -77.1036 -77.0916 -77.0818 -77.0792 -77.0767
   -77.0703 -77.0680 -77.0669 -77.0652 -77.0615 -77.0608 -77.0606 -77.0598
   -77.0586 -77.0581 -77.0564 -77.0552 -77.0537 -77.0533 -77.0514 -77.0506
   -77.0493 -77.0481 -77.0469 -77.0358 -76.9063 -76.9030 -76.9012 -76.8916
   -76.8912 -76.8897 -76.8893 -76.8890 -76.8876 -76.8863 -76.8852 -76.8819
   -76.8812 -76.8799 -76.8785 -76.8775 -76.8770 -76.8755 -76.8735 -76.8725
   -76.8719 -76.8715 -76.8702 -76.8674 -76.8663 -76.8648 -76.8642 -76.8637
   -76.8585 -76.8558 -76.8509 -76.8447 -76.8435 -76.8428 -76.8426 -76.8296
   -76.8081 -76.7989 -76.7918 -76.7787 -76.7730 -76.7714 -76.7706 -76.7645
   -76.7638 -76.7465 -76.7421 -76.7376 -76.6773 -76.6734 -76.6724 -76.6717
   -76.6691 -76.6674 -76.6645 -76.6627 -76.6581 -76.6543 -76.6409 -76.6301
   -15.6008 -13.6858 -12.9799 -10.7623 -10.7388  -7.8993  -7.5232  -6.1775
    -5.6262  -5.2592  -5.1992  -5.1199  -5.0779  -4.8365  -4.6904  -4.6341
    -4.5920  -4.5634  -4.5339  -4.5272  -4.5158  -4.5093  -4.5006  -4.4886
    -4.4866  -4.4613  -4.4575  -4.3686  -4.3655  -4.3592  -4.3567  -4.3451
    -4.3308  -4.3223  -4.3143  -4.3102  -4.2744  -4.2547  -4.2492  -4.2215
    -4.1933  -4.1816  -4.1798  -4.1712  -4.1429  -4.1405  -4.0903  -4.0847
    -4.0675  -4.0619  -4.0413  -4.0409  -4.0335  -4.0195  -4.0026  -3.9932
    -3.9884  -3.9713  -3.9604  -3.9574  -3.9560  -3.9371  -3.9165  -3.9102
    -3.8999  -3.8434  -3.8305  -3.8258  -3.8191  -3.8136  -3.8127  -3.8076
    -3.7934  -3.7839  -3.7677  -3.7573  -3.7537  -3.7414  -3.7278  -3.7201
    -3.7027  -3.6956  -3.6859  -3.6826  -3.6750  -3.6683  -3.6529  -3.6523
    -3.6487  -3.6396  -3.6284  -3.6274  -3.6143  -3.6116  -3.6089  -3.5980
    -3.5803  -3.5545  -3.5409  -3.5406  -3.5343  -3.5110  -3.5037  -3.5020
    -3.4926  -3.4770  -3.4672  -3.4647  -3.4615  -3.4534  -3.4527  -3.4501
    -3.4252  -3.4232  -3.4227  -3.4178  -3.4159  -3.4120  -3.4066  -3.3968
    -3.3929  -3.3685  -3.3600  -3.3599  -3.3530  -3.3499  -3.3350  -3.3310
    -3.3248  -3.3222  -3.3193  -3.3175  -3.3167  -3.3156  -3.2938  -3.2910
    -3.2829  -3.2673  -3.2635  -3.2568  -3.2552  -3.2445  -3.2404  -3.2394
    -3.2054  -3.2031  -3.2006  -3.1956  -3.1900  -3.1837  -3.1747  -3.1715
    -3.1633  -3.1579  -3.1525  -3.1470  -3.1470  -3.1289  -3.1209  -3.1195
    -3.1080  -3.1012  -3.0981  -3.0941  -3.0761  -3.0619  -3.0578  -3.0538
    -3.0485  -3.0441  -2.9860  -2.9503  -2.8748  -2.8632  -2.8621  -2.8171
    -2.8166  -2.7670  -2.7078  -2.4233  -1.9358  -1.7175  -1.3924  -1.2975
    -0.7404  -0.6096  -0.5348   0.0706   0.1903   0.1904   0.7830   0.8263
     0.8359   0.9257   0.9359   1.0160   1.2095   1.2550   1.3554   1.3815
     1.4847   1.5679   1.7140   1.8283   1.9796   2.1570   2.3051   2.3669
     2.4487   2.4562   2.7355   2.8693   2.9051   3.2465   3.3511   3.5685
     3.5740   4.3480   4.3878   4.7083   4.7415   4.7899   4.8535   4.9446
     5.4284   5.7130   5.8354   6.1203   6.2248   6.2613   6.3383   6.3837
     6.4071   6.4349   6.5758   6.6491   6.6820   6.8963   7.0346   7.0357
     7.2837   7.3189   7.5223   7.6402   7.6782   7.7061   7.7292   7.9491
     7.9740   8.1578   8.6016   8.7490   8.7675   8.7858   8.8341   8.9493
     9.0000   9.1060   9.1535   9.1789   9.2078   9.2222   9.3151   9.3444
     9.3913   9.4136   9.4974   9.8260   9.9434  10.1061  10.1358  10.1484
    10.2022  10.3392  10.4694  10.5114  10.6274  10.7314  10.8842  11.0195
    11.1363  11.1443

     occupation numbers 
     1.0000   1.0000   1.0000   1.0000   1.0000   1.0000   1.0000   1.0000
     1.0000   1.0000   1.0000   1.0000   1.0000   1.0000   1.0000   1.0000
     1.0000   1.0000   1.0000   1.0000   1.0000   1.0000   1.0000   1.0000
     1.0000   1.0000   1.0000   1.0000   1.0000   1.0000   1.0000   1.0000
     1.0000   1.0000   1.0000   1.0000   1.0000   1.0000   1.0000   1.0000
     1.0000   1.0000   1.0000   1.0000   1.0000   1.0000   1.0000   1.0000
     1.0000   1.0000   1.0000   1.0000   1.0000   1.0000   1.0000   1.0000
     1.0000   1.0000   1.0000   1.0000   1.0000   1.0000   1.0000   1.0000
     1.0000   1.0000   1.0000   1.0000   1.0000   1.0000   1.0000   1.0000
     1.0000   1.0000   1.0000   1.0000   1.0000   1.0000   1.0000   1.0000
     1.0000   1.0000   1.0000   1.0000   1.0000   1.0000   1.0000   1.0000
     1.0000   1.0000   1.0000   1.0000   1.0000   1.0000   1.0000   1.0000
     1.0000   1.0000   1.0000   1.0000   1.0000   1.0000   1.0000   1.0000
     1.0000   1.0000   1.0000   1.0000   1.0000   1.0000   1.0000   1.0000
     1.0000   1.0000   1.0000   1.0000   1.0000   1.0000   1.0000   1.0000
     1.0000   1.0000   1.0000   1.0000   1.0000   1.0000   1.0000   1.0000
     1.0000   1.0000   1.0000   1.0000   1.0000   1.0000   1.0000   1.0000
     1.0000   1.0000   1.0000   1.0000   1.0000   1.0000   1.0000   1.0000
     1.0000   1.0000   1.0000   1.0000   1.0000   1.0000   1.0000   1.0000
     1.0000   1.0000   1.0000   1.0000   1.0000   1.0000   1.0000   1.0000
     1.0000   1.0000   1.0000   1.0000   1.0000   1.0000   1.0000   1.0000
     1.0000   1.0000   1.0000   1.0000   1.0000   1.0000   1.0000   1.0000
     1.0000   1.0000   1.0000   1.0000   1.0000   1.0000   1.0000   1.0000
     1.0000   1.0000   1.0000   1.0000   1.0000   1.0000   1.0000   1.0000
     1.0000   1.0000   1.0000   1.0000   1.0000   1.0000   1.0000   1.0000
     1.0000   1.0000   1.0000   1.0000   1.0000   1.0000   1.0000   1.0000
     1.0000   1.0000   1.0000   1.0000   1.0000   1.0000   1.0000   1.0000
     1.0000   1.0000   1.0000   1.0000   1.0000   1.0000   1.0000   1.0000
     1.0000   1.0000   1.0000   1.0000   1.0000   1.0000   1.0000   1.0000
     1.0000   1.0000   1.0000   1.0000   1.0000   1.0000   1.0000   1.0000
     1.0000   1.0000   1.0000   1.0000   1.0000   1.0000   1.0000   1.0000
     1.0000   1.0000   1.0000   1.0000   1.0000   1.0000   1.0000   1.0000
     1.0000   1.0000   1.0000   1.0000   1.0000   1.0000   1.0000   1.0000
     1.0000   1.0000   1.0000   1.0000   1.0000   1.0000   1.0000   1.0000
     1.0000   1.0000   1.0000   1.0000   1.0000   1.0000   1.0000   1.0000
     1.0000   1.0000   1.0000   1.0000   1.0000   1.0000   1.0000   1.0000
     1.0000   1.0000   1.0000   1.0000   1.0000   1.0000   1.0000   1.0000
     1.0000   1.0000   1.0000   1.0000   1.0000   1.0000   1.0000   1.0000
     1.0000   1.0000   1.0000   1.0000   1.0000   1.0000   1.0000   1.0000
     1.0000   1.0000   1.0000   1.0000   1.0000   1.0000   1.0000   1.0000
     1.0000   1.0000   1.0000   1.0000   1.0000   1.0000   1.0000   1.0000
     1.0000   1.0000   1.0000   1.0000   1.0000   1.0000   1.0000   1.0000
     1.0000   1.0000   1.0000   1.0000   1.0000   1.0052   1.0189   1.0813
     1.0820   0.0075   0.0040   0.0000   0.0000   0.0000   0.0000   0.0000
     0.0000   0.0000   0.0000   0.0000   0.0000   0.0000   0.0000   0.0000
     0.0000   0.0000   0.0000   0.0000   0.0000   0.0000   0.0000   0.0000
     0.0000   0.0000   0.0000   0.0000   0.0000   0.0000   0.0000   0.0000
     0.0000   0.0000   0.0000   0.0000   0.0000   0.0000   0.0000   0.0000
     0.0000   0.0000   0.0000   0.0000   0.0000   0.0000   0.0000   0.0000
     0.0000   0.0000   0.0000   0.0000   0.0000   0.0000   0.0000   0.0000
     0.0000   0.0000   0.0000   0.0000   0.0000   0.0000   0.0000   0.0000
     0.0000   0.0000

          k = 0.0000 0.6213 0.3587 ( 21964 PWs)   bands (ev):

  -123.0315-123.0308-123.0303-123.0298-122.9824-122.9818-122.9724-122.9718
  -122.9703-122.9697-122.9692-122.9689-122.7998-122.7992-122.7973-122.7968
  -122.7857-122.7851-122.7784-122.7778-122.7738-122.7730-122.7728-122.7722
  -122.7034-122.6894-122.6694-122.6688-122.5795-122.5737-122.5721-122.5672
   -77.1286 -77.1274 -77.1224 -77.1215 -77.1202 -77.1198 -77.1142 -77.1142
   -77.1132 -77.1105 -77.1054 -77.1044 -77.0796 -77.0698 -77.0680 -77.0676
   -77.0660 -77.0659 -77.0651 -77.0644 -77.0622 -77.0614 -77.0592 -77.0590
   -77.0584 -77.0578 -77.0574 -77.0563 -77.0555 -77.0553 -77.0518 -77.0516
   -77.0511 -77.0506 -77.0500 -77.0493 -76.8965 -76.8936 -76.8935 -76.8908
   -76.8884 -76.8881 -76.8873 -76.8872 -76.8857 -76.8854 -76.8812 -76.8811
   -76.8793 -76.8789 -76.8782 -76.8766 -76.8766 -76.8760 -76.8734 -76.8723
   -76.8714 -76.8695 -76.8651 -76.8647 -76.8646 -76.8644 -76.8634 -76.8605
   -76.8593 -76.8564 -76.8505 -76.8483 -76.8460 -76.8452 -76.8434 -76.8417
   -76.8080 -76.7919 -76.7875 -76.7771 -76.7721 -76.7719 -76.7687 -76.7645
   -76.7586 -76.7446 -76.7441 -76.7435 -76.6772 -76.6712 -76.6697 -76.6686
   -76.6646 -76.6643 -76.6610 -76.6575 -76.6555 -76.6542 -76.6451 -76.6401
   -15.5970 -13.6775 -12.9711 -10.8013 -10.7299  -7.8894  -7.5533  -5.6037
    -5.5599  -5.2069  -5.0923  -4.6876  -4.6683  -4.5099  -4.4506  -4.4423
    -4.4383  -4.4380  -4.4099  -4.3882  -4.3832  -4.3748  -4.3593  -4.3229
    -4.2975  -4.2918  -4.2819  -4.2769  -4.2539  -4.2352  -4.2344  -4.2283
    -4.2258  -4.1988  -4.1889  -4.1820  -4.1661  -4.1460  -4.1355  -4.1339
    -4.1173  -4.1039  -4.0948  -4.0678  -4.0636  -4.0464  -4.0264  -4.0181
    -4.0081  -4.0013  -3.9857  -3.9841  -3.9751  -3.9739  -3.9603  -3.9553
    -3.9430  -3.9389  -3.9342  -3.9050  -3.8907  -3.8884  -3.8822  -3.8806
    -3.8742  -3.8720  -3.8535  -3.8271  -3.8136  -3.8058  -3.7996  -3.7984
    -3.7937  -3.7881  -3.7757  -3.7745  -3.7676  -3.7667  -3.7603  -3.7560
    -3.7292  -3.7284  -3.7217  -3.7189  -3.7161  -3.7151  -3.7011  -3.6973
    -3.6959  -3.6835  -3.6784  -3.6728  -3.6594  -3.6389  -3.6376  -3.6309
    -3.6298  -3.6171  -3.6167  -3.6018  -3.5899  -3.5686  -3.5613  -3.5609
    -3.5536  -3.5343  -3.5290  -3.5275  -3.5194  -3.5181  -3.5138  -3.5120
    -3.5118  -3.5073  -3.4916  -3.4895  -3.4859  -3.4834  -3.4662  -3.4362
    -3.4345  -3.4328  -3.4296  -3.4202  -3.4185  -3.4184  -3.3946  -3.3840
    -3.3829  -3.3715  -3.3678  -3.3592  -3.3583  -3.3559  -3.3311  -3.3241
    -3.3215  -3.3052  -3.3036  -3.3018  -3.2987  -3.2860  -3.2849  -3.2748
    -3.2729  -3.2707  -3.2703  -3.2598  -3.2551  -3.2452  -3.2382  -3.2341
    -3.2262  -3.2174  -3.2149  -3.2132  -3.2130  -3.2047  -3.2023  -3.2002
    -3.1908  -3.1873  -3.1774  -3.1678  -3.1449  -3.1400  -3.1347  -3.1235
    -3.1142  -3.0926  -3.0315  -2.9994  -2.9550  -2.9020  -2.8345  -2.8324
    -2.8163  -2.4310  -2.2382  -2.1583  -2.1387  -2.0689  -2.0376  -1.6892
    -1.5718  -1.3247  -0.7904  -0.7281  -0.6614  -0.5629  -0.5466  -0.4601
    -0.4151  -0.0742   0.0801   0.8121   0.8334   1.0776   1.1398   1.3567
     1.5440   1.5602   1.5928   1.7300   1.7611   2.3156   2.6289   2.8064
     2.8404   3.0249   3.1751   3.2677   3.9951   4.0212   4.0606   4.0761
     4.1186   4.3535   4.3660   4.7161   4.9970   5.0132   5.3436   6.0661
     6.0818   6.1800   6.1989   6.2543   6.3077   6.3573   6.4806   6.4984
     6.5533   6.6495   6.8483   6.9389   7.1380   7.3415   7.3659   7.4696
     7.5012   7.8256   7.8977   8.0044   8.0820   8.2393   8.2801   8.3787
     8.5065   8.5801   8.7518   8.9331   8.9630   9.0301   9.1039   9.1686
     9.2704   9.3355   9.3912   9.6301   9.7503   9.7622   9.8899   9.9559
    10.0429  10.1033  10.1955  10.2287  10.3176  10.3925  10.5996  10.6819
    10.6922  10.7454  10.8198  10.8356  10.8735  11.0140  11.1190  11.1471
    11.2025  11.2570

     occupation numbers 
     1.0000   1.0000   1.0000   1.0000   1.0000   1.0000   1.0000   1.0000
     1.0000   1.0000   1.0000   1.0000   1.0000   1.0000   1.0000   1.0000
     1.0000   1.0000   1.0000   1.0000   1.0000   1.0000   1.0000   1.0000
     1.0000   1.0000   1.0000   1.0000   1.0000   1.0000   1.0000   1.0000
     1.0000   1.0000   1.0000   1.0000   1.0000   1.0000   1.0000   1.0000
     1.0000   1.0000   1.0000   1.0000   1.0000   1.0000   1.0000   1.0000
     1.0000   1.0000   1.0000   1.0000   1.0000   1.0000   1.0000   1.0000
     1.0000   1.0000   1.0000   1.0000   1.0000   1.0000   1.0000   1.0000
     1.0000   1.0000   1.0000   1.0000   1.0000   1.0000   1.0000   1.0000
     1.0000   1.0000   1.0000   1.0000   1.0000   1.0000   1.0000   1.0000
     1.0000   1.0000   1.0000   1.0000   1.0000   1.0000   1.0000   1.0000
     1.0000   1.0000   1.0000   1.0000   1.0000   1.0000   1.0000   1.0000
     1.0000   1.0000   1.0000   1.0000   1.0000   1.0000   1.0000   1.0000
     1.0000   1.0000   1.0000   1.0000   1.0000   1.0000   1.0000   1.0000
     1.0000   1.0000   1.0000   1.0000   1.0000   1.0000   1.0000   1.0000
     1.0000   1.0000   1.0000   1.0000   1.0000   1.0000   1.0000   1.0000
     1.0000   1.0000   1.0000   1.0000   1.0000   1.0000   1.0000   1.0000
     1.0000   1.0000   1.0000   1.0000   1.0000   1.0000   1.0000   1.0000
     1.0000   1.0000   1.0000   1.0000   1.0000   1.0000   1.0000   1.0000
     1.0000   1.0000   1.0000   1.0000   1.0000   1.0000   1.0000   1.0000
     1.0000   1.0000   1.0000   1.0000   1.0000   1.0000   1.0000   1.0000
     1.0000   1.0000   1.0000   1.0000   1.0000   1.0000   1.0000   1.0000
     1.0000   1.0000   1.0000   1.0000   1.0000   1.0000   1.0000   1.0000
     1.0000   1.0000   1.0000   1.0000   1.0000   1.0000   1.0000   1.0000
     1.0000   1.0000   1.0000   1.0000   1.0000   1.0000   1.0000   1.0000
     1.0000   1.0000   1.0000   1.0000   1.0000   1.0000   1.0000   1.0000
     1.0000   1.0000   1.0000   1.0000   1.0000   1.0000   1.0000   1.0000
     1.0000   1.0000   1.0000   1.0000   1.0000   1.0000   1.0000   1.0000
     1.0000   1.0000   1.0000   1.0000   1.0000   1.0000   1.0000   1.0000
     1.0000   1.0000   1.0000   1.0000   1.0000   1.0000   1.0000   1.0000
     1.0000   1.0000   1.0000   1.0000   1.0000   1.0000   1.0000   1.0000
     1.0000   1.0000   1.0000   1.0000   1.0000   1.0000   1.0000   1.0000
     1.0000   1.0000   1.0000   1.0000   1.0000   1.0000   1.0000   1.0000
     1.0000   1.0000   1.0000   1.0000   1.0000   1.0000   1.0000   1.0000
     1.0000   1.0000   1.0000   1.0000   1.0000   1.0000   1.0000   1.0000
     1.0000   1.0000   1.0000   1.0000   1.0000   1.0000   1.0000   1.0000
     1.0000   1.0000   1.0000   1.0000   1.0000   1.0000   1.0000   1.0000
     1.0000   1.0000   1.0000   1.0000   1.0000   1.0000   1.0000   1.0000
     1.0000   1.0000   1.0000   1.0000   1.0000   1.0000   1.0000   1.0000
     1.0000   1.0000   1.0000   1.0000   1.0000   1.0000   1.0000   1.0000
     1.0000   1.0000   1.0000   1.0000   1.0000   1.0000   1.0000   1.0000
     1.0000   1.0000   1.0000   1.0000   1.0000   1.0000   1.0000   1.0000
     1.0000   1.0001   1.0018   1.0070   0.3625   0.3025   0.2231   0.1959
     0.1331   0.0069   0.0056   0.0000   0.0000   0.0000   0.0000   0.0000
     0.0000   0.0000   0.0000   0.0000   0.0000   0.0000   0.0000   0.0000
     0.0000   0.0000   0.0000   0.0000   0.0000   0.0000   0.0000   0.0000
     0.0000   0.0000   0.0000   0.0000   0.0000   0.0000   0.0000   0.0000
     0.0000   0.0000   0.0000   0.0000   0.0000   0.0000   0.0000   0.0000
     0.0000   0.0000   0.0000   0.0000   0.0000   0.0000   0.0000   0.0000
     0.0000   0.0000   0.0000   0.0000   0.0000   0.0000   0.0000   0.0000
     0.0000   0.0000   0.0000   0.0000   0.0000   0.0000   0.0000   0.0000
     0.0000   0.0000

          k = 0.3333 0.0000 0.0000 ( 22036 PWs)   bands (ev):

  -123.0322-123.0313-123.0307-123.0304-122.9829-122.9823-122.9729-122.9724
  -122.9709-122.9699-122.9698-122.9693-122.8004-122.7997-122.7977-122.7973
  -122.7864-122.7857-122.7793-122.7783-122.7744-122.7735-122.7731-122.7722
  -122.7040-122.6900-122.6699-122.6693-122.5800-122.5742-122.5726-122.5676
   -77.1411 -77.1399 -77.1227 -77.1220 -77.1206 -77.1203 -77.1152 -77.1113
   -77.1098 -77.1098 -77.1068 -77.1061 -77.0914 -77.0822 -77.0783 -77.0767
   -77.0684 -77.0678 -77.0656 -77.0634 -77.0623 -77.0617 -77.0601 -77.0596
   -77.0590 -77.0586 -77.0571 -77.0568 -77.0557 -77.0551 -77.0530 -77.0518
   -77.0513 -77.0484 -77.0468 -77.0419 -76.9057 -76.9032 -76.8979 -76.8945
   -76.8921 -76.8896 -76.8887 -76.8871 -76.8868 -76.8865 -76.8851 -76.8824
   -76.8815 -76.8801 -76.8790 -76.8784 -76.8759 -76.8752 -76.8749 -76.8731
   -76.8724 -76.8716 -76.8714 -76.8703 -76.8678 -76.8668 -76.8652 -76.8646
   -76.8592 -76.8526 -76.8525 -76.8491 -76.8474 -76.8421 -76.8399 -76.8353
   -76.8082 -76.7988 -76.7921 -76.7785 -76.7722 -76.7721 -76.7710 -76.7661
   -76.7650 -76.7461 -76.7451 -76.7395 -76.6774 -76.6730 -76.6714 -76.6703
   -76.6698 -76.6676 -76.6647 -76.6643 -76.6612 -76.6546 -76.6407 -76.6340
   -15.6009 -13.6858 -12.9800 -10.7622 -10.7389  -7.8995  -7.5234  -6.0106
    -5.6264  -5.5523  -5.2249  -5.0941  -5.0772  -4.8075  -4.6841  -4.6752
    -4.5710  -4.5623  -4.5543  -4.5452  -4.5337  -4.5168  -4.5148  -4.5083
    -4.4481  -4.4456  -4.4359  -4.4268  -4.3843  -4.3704  -4.3674  -4.3458
    -4.3265  -4.3034  -4.2905  -4.2855  -4.2661  -4.2615  -4.2431  -4.2350
    -4.2255  -4.1799  -4.1508  -4.1303  -4.1203  -4.0920  -4.0889  -4.0874
    -4.0723  -4.0663  -4.0431  -4.0338  -4.0322  -4.0261  -4.0080  -4.0016
    -3.9893  -3.9790  -3.9660  -3.9635  -3.9533  -3.9451  -3.9418  -3.9349
    -3.9273  -3.9226  -3.9121  -3.8710  -3.8612  -3.8534  -3.8218  -3.8142
    -3.7863  -3.7858  -3.7804  -3.7686  -3.7584  -3.7379  -3.7220  -3.7117
    -3.7115  -3.7067  -3.7055  -3.6817  -3.6755  -3.6630  -3.6616  -3.6592
    -3.6578  -3.6320  -3.6269  -3.6233  -3.6217  -3.6205  -3.6195  -3.5920
    -3.5588  -3.5583  -3.5548  -3.5509  -3.5047  -3.4953  -3.4893  -3.4863
    -3.4809  -3.4666  -3.4655  -3.4632  -3.4588  -3.4433  -3.4415  -3.4413
    -3.4291  -3.4286  -3.4181  -3.4169  -3.4131  -3.4041  -3.3851  -3.3751
    -3.3694  -3.3639  -3.3608  -3.3607  -3.3425  -3.3410  -3.3367  -3.3280
    -3.3233  -3.3185  -3.3149  -3.3139  -3.3064  -3.3056  -3.2952  -3.2863
    -3.2736  -3.2691  -3.2604  -3.2591  -3.2567  -3.2415  -3.2350  -3.2250
    -3.2239  -3.2139  -3.2076  -3.2040  -3.1919  -3.1863  -3.1803  -3.1741
    -3.1689  -3.1652  -3.1561  -3.1558  -3.1404  -3.1375  -3.1258  -3.1166
    -3.1107  -3.1040  -3.1034  -3.0863  -3.0758  -3.0636  -3.0540  -3.0465
    -3.0294  -3.0018  -2.9632  -2.9474  -2.9371  -2.8973  -2.8733  -2.8619
    -2.6014  -2.5352  -2.4235  -2.1503  -1.9359  -1.7119  -1.6143  -0.9493
    -0.7420  -0.5370  -0.4906  -0.2527   0.0677   0.0952   0.2058   0.3352
     0.3473   0.7843   0.8267   0.8351   0.9235   1.1647   1.2100   1.3755
     1.4423   1.5925   1.7471   1.9421   2.0288   2.4186   2.5102   2.5329
     2.8983   2.9667   2.9809   2.9907   3.1597   3.4392   3.6136   4.0510
     4.2447   4.3535   4.3976   4.5439   4.6034   4.7935   5.3298   5.4847
     5.5483   5.5963   5.6141   5.6554   5.8458   5.9026   5.9332   5.9454
     6.2103   6.2732   6.3008   6.4619   6.7723   6.9061   7.0599   7.2082
     7.2468   7.2545   7.4080   7.4676   7.5080   7.6950   7.7156   7.8398
     7.8991   8.0008   8.0499   8.2386   8.5332   8.6744   8.7010   8.9068
     9.1164   9.1189   9.1682   9.1870   9.2199   9.3578   9.3861   9.5168
     9.6817   9.8002   9.9069   9.9930  10.0029  10.0641  10.1658  10.1926
    10.3297  10.3981  10.4154  10.6155  10.7238  10.8424  11.0444  11.1415
    11.3163  11.3871

     occupation numbers 
     1.0000   1.0000   1.0000   1.0000   1.0000   1.0000   1.0000   1.0000
     1.0000   1.0000   1.0000   1.0000   1.0000   1.0000   1.0000   1.0000
     1.0000   1.0000   1.0000   1.0000   1.0000   1.0000   1.0000   1.0000
     1.0000   1.0000   1.0000   1.0000   1.0000   1.0000   1.0000   1.0000
     1.0000   1.0000   1.0000   1.0000   1.0000   1.0000   1.0000   1.0000
     1.0000   1.0000   1.0000   1.0000   1.0000   1.0000   1.0000   1.0000
     1.0000   1.0000   1.0000   1.0000   1.0000   1.0000   1.0000   1.0000
     1.0000   1.0000   1.0000   1.0000   1.0000   1.0000   1.0000   1.0000
     1.0000   1.0000   1.0000   1.0000   1.0000   1.0000   1.0000   1.0000
     1.0000   1.0000   1.0000   1.0000   1.0000   1.0000   1.0000   1.0000
     1.0000   1.0000   1.0000   1.0000   1.0000   1.0000   1.0000   1.0000
     1.0000   1.0000   1.0000   1.0000   1.0000   1.0000   1.0000   1.0000
     1.0000   1.0000   1.0000   1.0000   1.0000   1.0000   1.0000   1.0000
     1.0000   1.0000   1.0000   1.0000   1.0000   1.0000   1.0000   1.0000
     1.0000   1.0000   1.0000   1.0000   1.0000   1.0000   1.0000   1.0000
     1.0000   1.0000   1.0000   1.0000   1.0000   1.0000   1.0000   1.0000
     1.0000   1.0000   1.0000   1.0000   1.0000   1.0000   1.0000   1.0000
     1.0000   1.0000   1.0000   1.0000   1.0000   1.0000   1.0000   1.0000
     1.0000   1.0000   1.0000   1.0000   1.0000   1.0000   1.0000   1.0000
     1.0000   1.0000   1.0000   1.0000   1.0000   1.0000   1.0000   1.0000
     1.0000   1.0000   1.0000   1.0000   1.0000   1.0000   1.0000   1.0000
     1.0000   1.0000   1.0000   1.0000   1.0000   1.0000   1.0000   1.0000
     1.0000   1.0000   1.0000   1.0000   1.0000   1.0000   1.0000   1.0000
     1.0000   1.0000   1.0000   1.0000   1.0000   1.0000   1.0000   1.0000
     1.0000   1.0000   1.0000   1.0000   1.0000   1.0000   1.0000   1.0000
     1.0000   1.0000   1.0000   1.0000   1.0000   1.0000   1.0000   1.0000
     1.0000   1.0000   1.0000   1.0000   1.0000   1.0000   1.0000   1.0000
     1.0000   1.0000   1.0000   1.0000   1.0000   1.0000   1.0000   1.0000
     1.0000   1.0000   1.0000   1.0000   1.0000   1.0000   1.0000   1.0000
     1.0000   1.0000   1.0000   1.0000   1.0000   1.0000   1.0000   1.0000
     1.0000   1.0000   1.0000   1.0000   1.0000   1.0000   1.0000   1.0000
     1.0000   1.0000   1.0000   1.0000   1.0000   1.0000   1.0000   1.0000
     1.0000   1.0000   1.0000   1.0000   1.0000   1.0000   1.0000   1.0000
     1.0000   1.0000   1.0000   1.0000   1.0000   1.0000   1.0000   1.0000
     1.0000   1.0000   1.0000   1.0000   1.0000   1.0000   1.0000   1.0000
     1.0000   1.0000   1.0000   1.0000   1.0000   1.0000   1.0000   1.0000
     1.0000   1.0000   1.0000   1.0000   1.0000   1.0000   1.0000   1.0000
     1.0000   1.0000   1.0000   1.0000   1.0000   1.0000   1.0000   1.0000
     1.0000   1.0000   1.0000   1.0000   1.0000   1.0000   1.0000   1.0000
     1.0000   1.0000   1.0000   1.0000   1.0000   1.0000   1.0000   1.0000
     1.0000   1.0000   1.0000   1.0000   1.0000   1.0000   1.0000   1.0000
     1.0000   1.0000   1.0000   1.0000   1.0000   1.0000   1.0000   1.0000
     1.0000   1.0000   1.0000   1.0001   1.0014   1.0425   1.0821   0.2412
     0.0323   0.0069   0.0034   0.0002   0.0001   0.0000   0.0000   0.0000
     0.0000   0.0000   0.0000   0.0000   0.0000   0.0000   0.0000   0.0000
     0.0000   0.0000   0.0000   0.0000   0.0000   0.0000   0.0000   0.0000
     0.0000   0.0000   0.0000   0.0000   0.0000   0.0000   0.0000   0.0000
     0.0000   0.0000   0.0000   0.0000   0.0000   0.0000   0.0000   0.0000
     0.0000   0.0000   0.0000   0.0000   0.0000   0.0000   0.0000   0.0000
     0.0000   0.0000   0.0000   0.0000   0.0000   0.0000   0.0000   0.0000
     0.0000   0.0000   0.0000   0.0000   0.0000   0.0000   0.0000   0.0000
     0.0000   0.0000

          k = 0.3333 0.6213 0.3587 ( 21989 PWs)   bands (ev):

  -123.0315-123.0309-123.0306-123.0300-122.9826-122.9819-122.9726-122.9720
  -122.9702-122.9699-122.9695-122.9691-122.7999-122.7993-122.7975-122.7969
  -122.7859-122.7852-122.7786-122.7779-122.7738-122.7733-122.7730-122.7724
  -122.7036-122.6896-122.6696-122.6689-122.5796-122.5738-122.5723-122.5673
   -77.1278 -77.1270 -77.1222 -77.1218 -77.1206 -77.1201 -77.1141 -77.1135
   -77.1127 -77.1101 -77.1091 -77.1088 -77.0791 -77.0696 -77.0682 -77.0678
   -77.0658 -77.0654 -77.0653 -77.0649 -77.0628 -77.0612 -77.0602 -77.0589
   -77.0587 -77.0583 -77.0568 -77.0566 -77.0560 -77.0559 -77.0554 -77.0546
   -77.0522 -77.0510 -77.0507 -77.0501 -76.8962 -76.8947 -76.8939 -76.8915
   -76.8908 -76.8891 -76.8882 -76.8866 -76.8864 -76.8851 -76.8817 -76.8813
   -76.8793 -76.8792 -76.8786 -76.8768 -76.8765 -76.8755 -76.8748 -76.8723
   -76.8719 -76.8689 -76.8681 -76.8666 -76.8651 -76.8649 -76.8633 -76.8596
   -76.8591 -76.8566 -76.8496 -76.8480 -76.8465 -76.8463 -76.8451 -76.8448
   -76.8082 -76.7921 -76.7870 -76.7785 -76.7724 -76.7721 -76.7685 -76.7659
   -76.7577 -76.7467 -76.7453 -76.7443 -76.6774 -76.6717 -76.6697 -76.6694
   -76.6649 -76.6642 -76.6622 -76.6601 -76.6566 -76.6543 -76.6448 -76.6398
   -15.5970 -13.6775 -12.9712 -10.8013 -10.7300  -7.8895  -7.5536  -5.6039
    -5.4056  -5.2070  -5.0925  -4.9980  -4.5902  -4.5088  -4.4860  -4.4397
    -4.4380  -4.4351  -4.4301  -4.4072  -4.3559  -4.3493  -4.3304  -4.3283
    -4.3277  -4.3265  -4.3133  -4.2942  -4.2330  -4.2142  -4.2039  -4.2014
    -4.2002  -4.1910  -4.1866  -4.1802  -4.1506  -4.1450  -4.1300  -4.1289
    -4.1123  -4.1071  -4.0875  -4.0720  -4.0690  -4.0478  -4.0451  -4.0370
    -4.0196  -4.0121  -4.0085  -3.9998  -3.9884  -3.9656  -3.9560  -3.9538
    -3.9474  -3.9452  -3.9411  -3.9216  -3.9121  -3.9084  -3.8878  -3.8753
    -3.8725  -3.8706  -3.8646  -3.8572  -3.8415  -3.8362  -3.8320  -3.8147
    -3.8040  -3.7902  -3.7831  -3.7802  -3.7668  -3.7662  -3.7601  -3.7535
    -3.7502  -3.7491  -3.7403  -3.7294  -3.7115  -3.7030  -3.6878  -3.6768
    -3.6747  -3.6675  -3.6566  -3.6554  -3.6518  -3.6418  -3.6211  -3.6160
    -3.6046  -3.5918  -3.5775  -3.5763  -3.5760  -3.5639  -3.5529  -3.5430
    -3.5325  -3.5275  -3.5252  -3.5101  -3.5067  -3.5045  -3.4937  -3.4915
    -3.4886  -3.4814  -3.4737  -3.4689  -3.4670  -3.4562  -3.4427  -3.4424
    -3.4305  -3.4270  -3.4251  -3.4139  -3.3997  -3.3896  -3.3844  -3.3834
    -3.3783  -3.3710  -3.3644  -3.3580  -3.3563  -3.3554  -3.3494  -3.3463
    -3.3274  -3.3269  -3.3255  -3.3202  -3.3074  -3.2985  -3.2939  -3.2864
    -3.2787  -3.2786  -3.2759  -3.2648  -3.2638  -3.2540  -3.2524  -3.2467
    -3.2463  -3.2393  -3.2338  -3.2245  -3.2209  -3.2156  -3.2135  -3.2044
    -3.2018  -3.1947  -3.1877  -3.1865  -3.1660  -3.1551  -3.1343  -3.1182
    -3.1014  -3.0770  -3.0618  -3.0575  -3.0368  -2.9551  -2.9080  -2.8344
    -2.7355  -2.4314  -2.3272  -2.0711  -2.0143  -1.9046  -1.8974  -1.6918
    -1.5130  -1.4234  -0.9558  -0.7863  -0.5553  -0.3140  -0.2868  -0.1894
     0.0680   0.0904   0.2532   0.3881   0.7397   0.7860   0.8115   0.8370
     0.8523   1.4824   1.5459   1.7872   2.1233   2.1539   2.5304   2.5377
     2.6336   2.6832   2.8305   3.2074   3.9080   4.0771   4.1953   4.2586
     4.6246   4.8231   4.9858   5.0354   5.2081   5.2683   5.7483   5.9400
     6.0467   6.1091   6.2867   6.2978   6.3484   6.5294   6.6698   6.8155
     6.8571   6.9212   7.0174   7.1140   7.3254   7.5230   7.5408   7.5757
     7.6273   7.7808   7.8757   7.9760   8.0244   8.0642   8.1666   8.2306
     8.3713   8.3967   8.5069   8.5639   8.7518   8.8050   8.9081   9.1352
     9.2371   9.2856   9.3774   9.4156   9.4711   9.4886   9.5583   9.6662
     9.7720   9.8931   9.9295   9.9819  10.0729  10.0936  10.2063  10.2741
    10.3352  10.4285  10.4724  10.4970  10.6538  10.8355  10.8748  10.9607
    10.9793  11.1415

     occupation numbers 
     1.0000   1.0000   1.0000   1.0000   1.0000   1.0000   1.0000   1.0000
     1.0000   1.0000   1.0000   1.0000   1.0000   1.0000   1.0000   1.0000
     1.0000   1.0000   1.0000   1.0000   1.0000   1.0000   1.0000   1.0000
     1.0000   1.0000   1.0000   1.0000   1.0000   1.0000   1.0000   1.0000
     1.0000   1.0000   1.0000   1.0000   1.0000   1.0000   1.0000   1.0000
     1.0000   1.0000   1.0000   1.0000   1.0000   1.0000   1.0000   1.0000
     1.0000   1.0000   1.0000   1.0000   1.0000   1.0000   1.0000   1.0000
     1.0000   1.0000   1.0000   1.0000   1.0000   1.0000   1.0000   1.0000
     1.0000   1.0000   1.0000   1.0000   1.0000   1.0000   1.0000   1.0000
     1.0000   1.0000   1.0000   1.0000   1.0000   1.0000   1.0000   1.0000
     1.0000   1.0000   1.0000   1.0000   1.0000   1.0000   1.0000   1.0000
     1.0000   1.0000   1.0000   1.0000   1.0000   1.0000   1.0000   1.0000
     1.0000   1.0000   1.0000   1.0000   1.0000   1.0000   1.0000   1.0000
     1.0000   1.0000   1.0000   1.0000   1.0000   1.0000   1.0000   1.0000
     1.0000   1.0000   1.0000   1.0000   1.0000   1.0000   1.0000   1.0000
     1.0000   1.0000   1.0000   1.0000   1.0000   1.0000   1.0000   1.0000
     1.0000   1.0000   1.0000   1.0000   1.0000   1.0000   1.0000   1.0000
     1.0000   1.0000   1.0000   1.0000   1.0000   1.0000   1.0000   1.0000
     1.0000   1.0000   1.0000   1.0000   1.0000   1.0000   1.0000   1.0000
     1.0000   1.0000   1.0000   1.0000   1.0000   1.0000   1.0000   1.0000
     1.0000   1.0000   1.0000   1.0000   1.0000   1.0000   1.0000   1.0000
     1.0000   1.0000   1.0000   1.0000   1.0000   1.0000   1.0000   1.0000
     1.0000   1.0000   1.0000   1.0000   1.0000   1.0000   1.0000   1.0000
     1.0000   1.0000   1.0000   1.0000   1.0000   1.0000   1.0000   1.0000
     1.0000   1.0000   1.0000   1.0000   1.0000   1.0000   1.0000   1.0000
     1.0000   1.0000   1.0000   1.0000   1.0000   1.0000   1.0000   1.0000
     1.0000   1.0000   1.0000   1.0000   1.0000   1.0000   1.0000   1.0000
     1.0000   1.0000   1.0000   1.0000   1.0000   1.0000   1.0000   1.0000
     1.0000   1.0000   1.0000   1.0000   1.0000   1.0000   1.0000   1.0000
     1.0000   1.0000   1.0000   1.0000   1.0000   1.0000   1.0000   1.0000
     1.0000   1.0000   1.0000   1.0000   1.0000   1.0000   1.0000   1.0000
     1.0000   1.0000   1.0000   1.0000   1.0000   1.0000   1.0000   1.0000
     1.0000   1.0000   1.0000   1.0000   1.0000   1.0000   1.0000   1.0000
     1.0000   1.0000   1.0000   1.0000   1.0000   1.0000   1.0000   1.0000
     1.0000   1.0000   1.0000   1.0000   1.0000   1.0000   1.0000   1.0000
     1.0000   1.0000   1.0000   1.0000   1.0000   1.0000   1.0000   1.0000
     1.0000   1.0000   1.0000   1.0000   1.0000   1.0000   1.0000   1.0000
     1.0000   1.0000   1.0000   1.0000   1.0000   1.0000   1.0000   1.0000
     1.0000   1.0000   1.0000   1.0000   1.0000   1.0000   1.0000   1.0000
     1.0000   1.0000   1.0000   1.0000   1.0000   1.0000   1.0000   1.0000
     1.0000   1.0000   1.0000   1.0000   1.0000   1.0000   1.0000   1.0000
     1.0000   1.0000   1.0000   1.0000   1.0000   1.0000   1.0000   1.0000
     1.0000   1.0000   1.0000   1.0030   0.5929   0.1943   0.0591   0.0270
     0.0000   0.0000   0.0000   0.0000   0.0000   0.0000   0.0000   0.0000
     0.0000   0.0000   0.0000   0.0000   0.0000   0.0000   0.0000   0.0000
     0.0000   0.0000   0.0000   0.0000   0.0000   0.0000   0.0000   0.0000
     0.0000   0.0000   0.0000   0.0000   0.0000   0.0000   0.0000   0.0000
     0.0000   0.0000   0.0000   0.0000   0.0000   0.0000   0.0000   0.0000
     0.0000   0.0000   0.0000   0.0000   0.0000   0.0000   0.0000   0.0000
     0.0000   0.0000   0.0000   0.0000   0.0000   0.0000   0.0000   0.0000
     0.0000   0.0000   0.0000   0.0000   0.0000   0.0000   0.0000   0.0000
     0.0000   0.0000

          k = 0.3333-0.6213-0.3587 ( 21989 PWs)   bands (ev):

  -123.0315-123.0309-123.0306-123.0300-122.9826-122.9819-122.9726-122.9720
  -122.9702-122.9699-122.9695-122.9691-122.7999-122.7993-122.7975-122.7969
  -122.7859-122.7852-122.7786-122.7779-122.7738-122.7733-122.7730-122.7724
  -122.7036-122.6896-122.6696-122.6689-122.5796-122.5738-122.5723-122.5673
   -77.1278 -77.1270 -77.1222 -77.1218 -77.1206 -77.1201 -77.1141 -77.1135
   -77.1127 -77.1101 -77.1092 -77.1088 -77.0791 -77.0696 -77.0682 -77.0678
   -77.0658 -77.0654 -77.0652 -77.0649 -77.0628 -77.0612 -77.0602 -77.0589
   -77.0587 -77.0583 -77.0567 -77.0566 -77.0560 -77.0558 -77.0555 -77.0546
   -77.0522 -77.0510 -77.0507 -77.0501 -76.8962 -76.8948 -76.8938 -76.8915
   -76.8908 -76.8891 -76.8882 -76.8866 -76.8864 -76.8851 -76.8818 -76.8812
   -76.8794 -76.8791 -76.8787 -76.8769 -76.8766 -76.8753 -76.8748 -76.8723
   -76.8719 -76.8689 -76.8681 -76.8665 -76.8651 -76.8649 -76.8633 -76.8596
   -76.8591 -76.8566 -76.8496 -76.8480 -76.8465 -76.8464 -76.8452 -76.8447
   -76.8082 -76.7921 -76.7870 -76.7785 -76.7724 -76.7721 -76.7685 -76.7659
   -76.7577 -76.7467 -76.7453 -76.7443 -76.6774 -76.6717 -76.6697 -76.6694
   -76.6650 -76.6642 -76.6622 -76.6601 -76.6567 -76.6542 -76.6448 -76.6398
   -15.5970 -13.6775 -12.9712 -10.8013 -10.7299  -7.8896  -7.5535  -5.6037
    -5.4056  -5.2069  -5.0922  -4.9980  -4.5902  -4.5089  -4.4860  -4.4397
    -4.4380  -4.4352  -4.4301  -4.4072  -4.3559  -4.3493  -4.3304  -4.3283
    -4.3277  -4.3265  -4.3133  -4.2942  -4.2330  -4.2142  -4.2039  -4.2014
    -4.2002  -4.1910  -4.1866  -4.1802  -4.1506  -4.1449  -4.1300  -4.1289
    -4.1123  -4.1071  -4.0875  -4.0720  -4.0691  -4.0478  -4.0451  -4.0370
    -4.0197  -4.0122  -4.0085  -3.9998  -3.9884  -3.9656  -3.9560  -3.9538
    -3.9474  -3.9452  -3.9411  -3.9216  -3.9121  -3.9084  -3.8878  -3.8753
    -3.8725  -3.8706  -3.8645  -3.8572  -3.8415  -3.8362  -3.8320  -3.8147
    -3.8040  -3.7902  -3.7831  -3.7802  -3.7668  -3.7662  -3.7600  -3.7536
    -3.7502  -3.7491  -3.7403  -3.7294  -3.7115  -3.7030  -3.6878  -3.6767
    -3.6747  -3.6675  -3.6566  -3.6555  -3.6519  -3.6417  -3.6211  -3.6160
    -3.6046  -3.5918  -3.5775  -3.5763  -3.5760  -3.5639  -3.5529  -3.5430
    -3.5324  -3.5277  -3.5252  -3.5101  -3.5067  -3.5045  -3.4936  -3.4915
    -3.4887  -3.4813  -3.4738  -3.4687  -3.4671  -3.4562  -3.4429  -3.4421
    -3.4304  -3.4270  -3.4250  -3.4139  -3.3997  -3.3896  -3.3846  -3.3833
    -3.3783  -3.3710  -3.3644  -3.3583  -3.3562  -3.3552  -3.3494  -3.3463
    -3.3275  -3.3266  -3.3255  -3.3202  -3.3074  -3.2987  -3.2938  -3.2863
    -3.2792  -3.2781  -3.2759  -3.2648  -3.2638  -3.2541  -3.2524  -3.2468
    -3.2464  -3.2393  -3.2340  -3.2244  -3.2209  -3.2155  -3.2136  -3.2045
    -3.2013  -3.1950  -3.1877  -3.1865  -3.1659  -3.1551  -3.1343  -3.1184
    -3.1011  -3.0769  -3.0627  -3.0565  -3.0369  -2.9591  -2.9038  -2.8340
    -2.7354  -2.4310  -2.3273  -2.0734  -2.0131  -1.9040  -1.8975  -1.6917
    -1.5131  -1.4234  -0.9559  -0.7867  -0.5554  -0.3133  -0.2868  -0.1896
     0.0670   0.0903   0.2526   0.3874   0.7418   0.7913   0.8125   0.8343
     0.8485   1.4824   1.5452   1.7875   2.1223   2.1543   2.5289   2.5372
     2.6259   2.6864   2.8425   3.2020   3.9083   4.0770   4.1946   4.2583
     4.6250   4.8230   4.9853   5.0355   5.2081   5.2666   5.7478   5.9401
     6.0467   6.1404   6.2445   6.3218   6.3396   6.5294   6.6713   6.8155
     6.8612   6.9348   7.0141   7.1068   7.3085   7.5247   7.5445   7.5767
     7.6114   7.7810   7.8807   7.9118   8.0452   8.0621   8.1302   8.2356
     8.3947   8.4011   8.5147   8.5740   8.7508   8.8607   8.9527   9.0522
     9.1747   9.2963   9.3428   9.4268   9.4530   9.4938   9.6033   9.7381
     9.8638   9.9192   9.9379  10.0595  10.0811  10.1502  10.2160  10.2659
    10.3034  10.3392  10.4376  10.5566  10.6528  10.7182  10.8223  10.9594
    10.9924  11.1384

     occupation numbers 
     1.0000   1.0000   1.0000   1.0000   1.0000   1.0000   1.0000   1.0000
     1.0000   1.0000   1.0000   1.0000   1.0000   1.0000   1.0000   1.0000
     1.0000   1.0000   1.0000   1.0000   1.0000   1.0000   1.0000   1.0000
     1.0000   1.0000   1.0000   1.0000   1.0000   1.0000   1.0000   1.0000
     1.0000   1.0000   1.0000   1.0000   1.0000   1.0000   1.0000   1.0000
     1.0000   1.0000   1.0000   1.0000   1.0000   1.0000   1.0000   1.0000
     1.0000   1.0000   1.0000   1.0000   1.0000   1.0000   1.0000   1.0000
     1.0000   1.0000   1.0000   1.0000   1.0000   1.0000   1.0000   1.0000
     1.0000   1.0000   1.0000   1.0000   1.0000   1.0000   1.0000   1.0000
     1.0000   1.0000   1.0000   1.0000   1.0000   1.0000   1.0000   1.0000
     1.0000   1.0000   1.0000   1.0000   1.0000   1.0000   1.0000   1.0000
     1.0000   1.0000   1.0000   1.0000   1.0000   1.0000   1.0000   1.0000
     1.0000   1.0000   1.0000   1.0000   1.0000   1.0000   1.0000   1.0000
     1.0000   1.0000   1.0000   1.0000   1.0000   1.0000   1.0000   1.0000
     1.0000   1.0000   1.0000   1.0000   1.0000   1.0000   1.0000   1.0000
     1.0000   1.0000   1.0000   1.0000   1.0000   1.0000   1.0000   1.0000
     1.0000   1.0000   1.0000   1.0000   1.0000   1.0000   1.0000   1.0000
     1.0000   1.0000   1.0000   1.0000   1.0000   1.0000   1.0000   1.0000
     1.0000   1.0000   1.0000   1.0000   1.0000   1.0000   1.0000   1.0000
     1.0000   1.0000   1.0000   1.0000   1.0000   1.0000   1.0000   1.0000
     1.0000   1.0000   1.0000   1.0000   1.0000   1.0000   1.0000   1.0000
     1.0000   1.0000   1.0000   1.0000   1.0000   1.0000   1.0000   1.0000
     1.0000   1.0000   1.0000   1.0000   1.0000   1.0000   1.0000   1.0000
     1.0000   1.0000   1.0000   1.0000   1.0000   1.0000   1.0000   1.0000
     1.0000   1.0000   1.0000   1.0000   1.0000   1.0000   1.0000   1.0000
     1.0000   1.0000   1.0000   1.0000   1.0000   1.0000   1.0000   1.0000
     1.0000   1.0000   1.0000   1.0000   1.0000   1.0000   1.0000   1.0000
     1.0000   1.0000   1.0000   1.0000   1.0000   1.0000   1.0000   1.0000
     1.0000   1.0000   1.0000   1.0000   1.0000   1.0000   1.0000   1.0000
     1.0000   1.0000   1.0000   1.0000   1.0000   1.0000   1.0000   1.0000
     1.0000   1.0000   1.0000   1.0000   1.0000   1.0000   1.0000   1.0000
     1.0000   1.0000   1.0000   1.0000   1.0000   1.0000   1.0000   1.0000
     1.0000   1.0000   1.0000   1.0000   1.0000   1.0000   1.0000   1.0000
     1.0000   1.0000   1.0000   1.0000   1.0000   1.0000   1.0000   1.0000
     1.0000   1.0000   1.0000   1.0000   1.0000   1.0000   1.0000   1.0000
     1.0000   1.0000   1.0000   1.0000   1.0000   1.0000   1.0000   1.0000
     1.0000   1.0000   1.0000   1.0000   1.0000   1.0000   1.0000   1.0000
     1.0000   1.0000   1.0000   1.0000   1.0000   1.0000   1.0000   1.0000
     1.0000   1.0000   1.0000   1.0000   1.0000   1.0000   1.0000   1.0000
     1.0000   1.0000   1.0000   1.0000   1.0000   1.0000   1.0000   1.0000
     1.0000   1.0000   1.0000   1.0000   1.0000   1.0000   1.0000   1.0000
     1.0000   1.0000   1.0000   1.0000   1.0000   1.0000   1.0000   1.0000
     1.0000   1.0000   1.0000   1.0027   0.5918   0.1944   0.0596   0.0271
     0.0000   0.0000   0.0000   0.0000   0.0000   0.0000   0.0000   0.0000
     0.0000   0.0000   0.0000   0.0000   0.0000   0.0000   0.0000   0.0000
     0.0000   0.0000   0.0000   0.0000   0.0000   0.0000   0.0000   0.0000
     0.0000   0.0000   0.0000   0.0000   0.0000   0.0000   0.0000   0.0000
     0.0000   0.0000   0.0000   0.0000   0.0000   0.0000   0.0000   0.0000
     0.0000   0.0000   0.0000   0.0000   0.0000   0.0000   0.0000   0.0000
     0.0000   0.0000   0.0000   0.0000   0.0000   0.0000   0.0000   0.0000
     0.0000   0.0000   0.0000   0.0000   0.0000   0.0000   0.0000   0.0000
     0.0000   0.0000

     the Fermi energy is     3.9796 ev

!    total energy              =  -14944.01999256 Ry
     estimated scf accuracy    <       0.00000052 Ry
     smearing contrib. (-TS)   =      -0.01072848 Ry
     internal energy E=F+TS    =  -14944.00926408 Ry

     The total energy is F=E-TS. E is the sum of the following terms:
     one-electron contribution =  -73710.68911849 Ry
     hartree contribution      =   36880.15696543 Ry
     xc contribution           =   -1395.28179023 Ry
     ewald contribution        =   23324.98803605 Ry
     one-center paw contrib.   =     -43.18335685 Ry
      -> PAW hartree energy AE =       0.00000000 Ry
      -> PAW hartree energy PS =       0.00000000 Ry
      -> PAW xc energy AE      =       0.00000000 Ry
      -> PAW xc energy PS      =       0.00000000 Ry
      -> total E_H with PAW    =   36880.15696543 Ry
      -> total E_XC with PAW   =   -1395.28179023 Ry

     convergence has been achieved in  20 iterations

     negative rho (up, down):  1.376E-02 0.000E+00

     Forces acting on atoms (cartesian axes, Ry/au):

     atom    1 type  1   force =     0.00076991    0.00009681   -0.00854136
     atom    2 type  1   force =     0.00042322    0.00004958    0.03216747
     atom    3 type  1   force =    -0.00071708   -0.00004854   -0.00021349
     atom    4 type  1   force =    -0.00120133    0.00000083   -0.00014474
     atom    5 type  1   force =     0.00070265   -0.00005190   -0.00834876
     atom    6 type  1   force =     0.00046360    0.00006232    0.03220637
     atom    7 type  1   force =    -0.00074065    0.00011088   -0.00021183
     atom    8 type  1   force =    -0.00121973    0.00002895    0.00041680
     atom    9 type  1   force =    -0.00098342   -0.00002518   -0.00857422
     atom   10 type  1   force =    -0.00068914    0.00004058    0.03224859
     atom   11 type  1   force =     0.00048754    0.00009841   -0.00000344
     atom   12 type  1   force =     0.00098719    0.00001946    0.00029186
     atom   13 type  1   force =    -0.00091643    0.00006824   -0.00837181
     atom   14 type  1   force =    -0.00061766    0.00004452    0.03216255
     atom   15 type  1   force =     0.00052954   -0.00001560   -0.00006460
     atom   16 type  1   force =     0.00097177    0.00005121   -0.00013852
     atom   17 type  1   force =    -0.00011565    0.00003915   -0.03012834
     atom   18 type  1   force =    -0.00010261    0.00005586    0.00581243
     atom   19 type  1   force =     0.00003141    0.00005168   -0.00043869
     atom   20 type  1   force =     0.00012129    0.00000057    0.00071132
     atom   21 type  1   force =    -0.00011038    0.00000943   -0.03008954
     atom   22 type  1   force =    -0.00007484    0.00002904    0.00590112
     atom   23 type  1   force =     0.00006466    0.00002166   -0.00051049
     atom   24 type  1   force =     0.00027736   -0.00002400   -0.00350381
     atom   25 type  1   force =    -0.00015793    0.00003932   -0.03004898
     atom   26 type  1   force =    -0.00012260    0.00002860    0.00658881
     atom   27 type  1   force =    -0.00023088    0.00001726    0.00023675
     atom   28 type  1   force =    -0.00034967   -0.00001913    0.00010298
     atom   29 type  1   force =    -0.00003120    0.00000531   -0.03005224
     atom   30 type  1   force =    -0.00014271    0.00006321    0.00660150
     atom   31 type  1   force =    -0.00028324    0.00005231    0.00018858
     atom   32 type  1   force =    -0.00026817    0.00000062    0.00023130
     atom   33 type  2   force =     0.00391237   -0.00413116    0.19812932
     atom   34 type  2   force =     0.00020426   -0.00322120   -0.02856645
     atom   35 type  2   force =     0.00565633    0.00286791    0.00008749
     atom   36 type  2   force =    -0.00437084   -0.00496121   -0.00359401
     atom   37 type  2   force =    -0.00729688   -0.00547106    0.01053275
     atom   38 type  2   force =     0.00987596    0.00642147    0.00980307
     atom   39 type  2   force =    -0.00181117    0.00025942    0.01587404
     atom   40 type  3   force =    -0.00219505    0.00435664   -0.16137619
     atom   41 type  3   force =     0.00068089    0.00421295   -0.07039483
     atom   42 type  4   force =     0.01357609    0.01448909    0.01567295
     atom   43 type  4   force =    -0.01471911   -0.01664404    0.01637992
     atom   44 type  4   force =     0.00048394    0.00136386    0.00084571
     atom   45 type  4   force =     0.00040612    0.00002858    0.00010428
     atom   46 type  4   force =     0.00039295    0.00032254   -0.00045658
     atom   47 type  4   force =    -0.00155067   -0.00079525    0.00047498
     The non-local contrib.  to forces
     atom    1 type  1   force =     0.00320567   -0.00035027   -0.18957385
     atom    2 type  1   force =     0.00048842    0.00005588    0.06060706
     atom    3 type  1   force =    -0.00085981   -0.00066014   -0.05418876
     atom    4 type  1   force =     0.00186101    0.00027859   -0.07758174
     atom    5 type  1   force =     0.00293285    0.00037327   -0.18742878
     atom    6 type  1   force =     0.00044165   -0.00010358    0.06075181
     atom    7 type  1   force =    -0.00071981    0.00058990   -0.05379359
     atom    8 type  1   force =     0.00300280   -0.00103603   -0.06777672
     atom    9 type  1   force =    -0.00339626    0.00052512   -0.18913178
     atom   10 type  1   force =    -0.00045222    0.00004116    0.06039745
     atom   11 type  1   force =     0.00085615    0.00091432   -0.05408232
     atom   12 type  1   force =    -0.00217617    0.00062375   -0.06747110
     atom   13 type  1   force =    -0.00301204   -0.00053012   -0.18727436
     atom   14 type  1   force =    -0.00048301   -0.00001299    0.06012413
     atom   15 type  1   force =     0.00074482   -0.00071874   -0.05391249
     atom   16 type  1   force =    -0.00242808   -0.00006948   -0.07498533
     atom   17 type  1   force =    -0.00024385   -0.00036404    0.01942293
     atom   18 type  1   force =    -0.00009691   -0.00016568   -0.00149434
     atom   19 type  1   force =     0.00127300   -0.00053571   -0.00360522
     atom   20 type  1   force =    -0.00002675    0.00021543    0.06557290
     atom   21 type  1   force =     0.00008304    0.00042333    0.01967664
     atom   22 type  1   force =    -0.00016247    0.00019500   -0.00113421
     atom   23 type  1   force =    -0.00119824    0.00047823   -0.00418829
     atom   24 type  1   force =     0.00005837   -0.00041324    0.06525683
     atom   25 type  1   force =     0.00018288   -0.00023093    0.01642276
     atom   26 type  1   force =     0.00014414   -0.00002326   -0.00474689
     atom   27 type  1   force =     0.00030411    0.00006929   -0.00140757
     atom   28 type  1   force =     0.00000276    0.00000283    0.08427508
     atom   29 type  1   force =     0.00002378    0.00026040    0.01625076
     atom   30 type  1   force =     0.00018878    0.00003423   -0.00477857
     atom   31 type  1   force =    -0.00040522   -0.00009966   -0.00171280
     atom   32 type  1   force =    -0.00011287   -0.00000977    0.08408318
     atom   33 type  2   force =    -0.00070880    0.00271438   -0.08550617
     atom   34 type  2   force =     0.00239847   -0.01024142    0.21493185
     atom   35 type  2   force =    -0.02499054   -0.03101265    0.01803393
     atom   36 type  2   force =     0.02361359    0.02931407    0.01727371
     atom   37 type  2   force =     0.02227768    0.02495767   -0.04837854
     atom   38 type  2   force =    -0.01854794   -0.02488175   -0.05189224
     atom   39 type  2   force =    -0.00645746    0.00999174   -0.31693233
     atom   40 type  3   force =    -0.02474248    0.05369731   -1.98127867
     atom   41 type  3   force =     0.01429070   -0.00921758    0.01313085
     atom   42 type  4   force =     0.05580460    0.05702478    0.05275564
     atom   43 type  4   force =    -0.05442945   -0.05936200    0.05051711
     atom   44 type  4   force =    -0.04792384   -0.04909936   -0.04068328
     atom   45 type  4   force =     0.04677811    0.05120734   -0.03881904
     atom   46 type  4   force =     0.04720142    0.04847183    0.03783302
     atom   47 type  4   force =    -0.04611027   -0.05033524    0.03622480
     The ionic contribution  to forces
     atom    1 type  1   force =    -1.03205855   -0.00118466 -401.97305007
     atom    2 type  1   force =    -0.40222826   -0.00209244 -158.48014395
     atom    3 type  1   force =    -0.95842214    0.00219683   94.86226458
     atom    4 type  1   force =    -3.69420195   -0.27004415  343.95208422
     atom    5 type  1   force =    -1.00058703    0.00117789 -402.04484876
     atom    6 type  1   force =    -0.40229520    0.00199460 -158.48008244
     atom    7 type  1   force =    -0.95018803   -0.00124350   94.88698131
     atom    8 type  1   force =    -3.65399224    0.26695489  344.07632604
     atom    9 type  1   force =     1.03170489   -0.00195515 -401.99057992
     atom   10 type  1   force =     0.40235438   -0.00213261 -158.48280797
     atom   11 type  1   force =     0.95039999   -0.00051326   94.94213924
     atom   12 type  1   force =     3.60639802   -0.23789159  344.33007099
     atom   13 type  1   force =     1.00030361    0.00194846 -402.06168001
     atom   14 type  1   force =     0.40241199    0.00202762 -158.48249684
     atom   15 type  1   force =     0.94243588    0.00148213   94.96464808
     atom   16 type  1   force =     3.63439843    0.23977729  344.24400428
     atom   17 type  1   force =     0.00681208   -0.02743393 -341.26477214
     atom   18 type  1   force =     0.01746248    0.00027510  -88.88996410
     atom   19 type  1   force =     0.16714937   -0.03472381  137.86596881
     atom   20 type  1   force =     0.35825493   -0.01351596  358.48219323
     atom   21 type  1   force =     0.00666028    0.02743651 -341.26239849
     atom   22 type  1   force =     0.01740207    0.00007576  -88.88278386
     atom   23 type  1   force =     0.16380873    0.03400285  137.86744996
     atom   24 type  1   force =     0.39966004    0.01341491  356.75874133
     atom   25 type  1   force =    -0.00668071   -0.00614744 -342.33939602
     atom   26 type  1   force =    -0.01666616    0.00020959  -88.65973878
     atom   27 type  1   force =    -0.15989331   -0.00809384  139.43049997
[...]
     atom   31 type  1   force =     0.00000000    0.00000000    0.00000000
     atom   32 type  1   force =     0.00000000    0.00000000    0.00000000
     atom   33 type  2   force =    -0.00128582   -0.00091450    0.01186213
     atom   34 type  2   force =     0.00084390    0.00023673   -0.00431387
     atom   35 type  2   force =     0.00126597    0.00276104   -0.00047728
     atom   36 type  2   force =    -0.00044156   -0.00105359   -0.00402823
     atom   37 type  2   force =    -0.00121739    0.00007007    0.00254216
     atom   38 type  2   force =     0.00238793    0.00259652    0.00304076
     atom   39 type  2   force =    -0.00238357   -0.00346468   -0.00144102
     atom   40 type  3   force =     0.00022058   -0.00087653    0.01165492
     atom   41 type  3   force =    -0.00441089    0.00453578   -0.00116058
     atom   42 type  4   force =     0.00000000    0.00000000    0.00000000
     atom   43 type  4   force =     0.00000000    0.00000000    0.00000000
     atom   44 type  4   force =     0.00000000    0.00000000    0.00000000
     atom   45 type  4   force =     0.00000000    0.00000000    0.00000000
     atom   46 type  4   force =     0.00000000    0.00000000    0.00000000
     atom   47 type  4   force =     0.00000000    0.00000000    0.00000000
     The Hubbard contrib.    to forces
     atom    1 type  1   force =     0.00000000    0.00000000    0.00000000
     atom    2 type  1   force =     0.00000000    0.00000000    0.00000000
     atom    3 type  1   force =     0.00000000    0.00000000    0.00000000
     atom    4 type  1   force =     0.00000000    0.00000000    0.00000000
     atom    5 type  1   force =     0.00000000    0.00000000    0.00000000
     atom    6 type  1   force =     0.00000000    0.00000000    0.00000000
     atom    7 type  1   force =     0.00000000    0.00000000    0.00000000
     atom    8 type  1   force =     0.00000000    0.00000000    0.00000000
     atom    9 type  1   force =     0.00000000    0.00000000    0.00000000
     atom   10 type  1   force =     0.00000000    0.00000000    0.00000000
     atom   11 type  1   force =     0.00000000    0.00000000    0.00000000
     atom   12 type  1   force =     0.00000000    0.00000000    0.00000000
     atom   13 type  1   force =     0.00000000    0.00000000    0.00000000
     atom   14 type  1   force =     0.00000000    0.00000000    0.00000000
     atom   15 type  1   force =     0.00000000    0.00000000    0.00000000
     atom   16 type  1   force =     0.00000000    0.00000000    0.00000000
     atom   17 type  1   force =     0.00000000    0.00000000    0.00000000
     atom   18 type  1   force =     0.00000000    0.00000000    0.00000000
     atom   19 type  1   force =     0.00000000    0.00000000    0.00000000
     atom   20 type  1   force =     0.00000000    0.00000000    0.00000000
     atom   21 type  1   force =     0.00000000    0.00000000    0.00000000
     atom   22 type  1   force =     0.00000000    0.00000000    0.00000000
     atom   23 type  1   force =     0.00000000    0.00000000    0.00000000
     atom   24 type  1   force =     0.00000000    0.00000000    0.00000000
     atom   25 type  1   force =     0.00000000    0.00000000    0.00000000
     atom   26 type  1   force =     0.00000000    0.00000000    0.00000000
     atom   27 type  1   force =     0.00000000    0.00000000    0.00000000
     atom   28 type  1   force =     0.00000000    0.00000000    0.00000000
     atom   29 type  1   force =     0.00000000    0.00000000    0.00000000
     atom   30 type  1   force =     0.00000000    0.00000000    0.00000000
     atom   31 type  1   force =     0.00000000    0.00000000    0.00000000
     atom   32 type  1   force =     0.00000000    0.00000000    0.00000000
     atom   33 type  2   force =     0.00000000    0.00000000    0.00000000
     atom   34 type  2   force =     0.00000000    0.00000000    0.00000000
     atom   35 type  2   force =     0.00000000    0.00000000    0.00000000
     atom   36 type  2   force =     0.00000000    0.00000000    0.00000000
     atom   37 type  2   force =     0.00000000    0.00000000    0.00000000
     atom   38 type  2   force =     0.00000000    0.00000000    0.00000000
     atom   39 type  2   force =     0.00000000    0.00000000    0.00000000
     atom   40 type  3   force =     0.00000000    0.00000000    0.00000000
     atom   41 type  3   force =     0.00000000    0.00000000    0.00000000
     atom   42 type  4   force =     0.00000000    0.00000000    0.00000000
     atom   43 type  4   force =     0.00000000    0.00000000    0.00000000
     atom   44 type  4   force =     0.00000000    0.00000000    0.00000000
     atom   45 type  4   force =     0.00000000    0.00000000    0.00000000
     atom   46 type  4   force =     0.00000000    0.00000000    0.00000000
     atom   47 type  4   force =     0.00000000    0.00000000    0.00000000
     The SCF correction term to forces
     atom    1 type  1   force =    -0.00000000   -0.00000000    0.00000000
     atom    2 type  1   force =    -0.00000000   -0.00000000   -0.00000000
     atom    3 type  1   force =    -0.00002585   -0.00000154   -0.00009359
     atom    4 type  1   force =     0.00002923   -0.00000371    0.00012057
     atom    5 type  1   force =    -0.00000000    0.00000000    0.00000000
     atom    6 type  1   force =    -0.00000000    0.00000000   -0.00000000
     atom    7 type  1   force =    -0.00002515    0.00000164   -0.00009116
     atom    8 type  1   force =     0.00003315    0.00000438    0.00012144
     atom    9 type  1   force =     0.00000000   -0.00000000    0.00000000
     atom   10 type  1   force =     0.00000000   -0.00000000   -0.00000000
     atom   11 type  1   force =     0.00002504   -0.00000104   -0.00008150
     atom   12 type  1   force =    -0.00002574   -0.00000528    0.00013626
     atom   13 type  1   force =     0.00000000    0.00000000    0.00000000
     atom   14 type  1   force =     0.00000000    0.00000000   -0.00000000
     atom   15 type  1   force =     0.00002458    0.00000110   -0.00007942
     atom   16 type  1   force =    -0.00003007    0.00000611    0.00013862
     atom   17 type  1   force =    -0.00000000   -0.00000000    0.00000000
     atom   18 type  1   force =    -0.00000000   -0.00000000   -0.00000000
     atom   19 type  1   force =    -0.00003660   -0.00000365    0.00001254
     atom   20 type  1   force =    -0.00002747   -0.00000690    0.00014245
     atom   21 type  1   force =    -0.00000000    0.00000000    0.00000000
     atom   22 type  1   force =    -0.00000000    0.00000000   -0.00000000
     atom   23 type  1   force =    -0.00003622    0.00000393    0.00001468
     atom   24 type  1   force =    -0.00003013    0.00000695    0.00013923
     atom   25 type  1   force =     0.00000000   -0.00000000    0.00000000
     atom   26 type  1   force =     0.00000000   -0.00000000   -0.00000000
     atom   27 type  1   force =     0.00003811   -0.00000109   -0.00009578
     atom   28 type  1   force =     0.00002221    0.00000121    0.00012122
     atom   29 type  1   force =     0.00000000    0.00000000    0.00000000
     atom   30 type  1   force =     0.00000000    0.00000000   -0.00000000
     atom   31 type  1   force =     0.00003769    0.00000120   -0.00009653
     atom   32 type  1   force =     0.00002299   -0.00000028    0.00011896
     atom   33 type  2   force =    -0.00000587    0.00000142    0.00001228
     atom   34 type  2   force =    -0.00000674    0.00000299   -0.00000986
     atom   35 type  2   force =    -0.00000402    0.00000289   -0.00000889
     atom   36 type  2   force =    -0.00000805   -0.00000051   -0.00000890
     atom   37 type  2   force =    -0.00000685    0.00000074   -0.00000639
     atom   38 type  2   force =    -0.00000522    0.00000193   -0.00000463
     atom   39 type  2   force =    -0.00000814    0.00000225   -0.00000949
     atom   40 type  3   force =    -0.00000634    0.00000345    0.00000709
     atom   41 type  3   force =    -0.00001369    0.00000182   -0.00001202
     atom   42 type  4   force =    -0.00000041    0.00000151   -0.00000074
     atom   43 type  4   force =    -0.00000281   -0.00000041   -0.00000129
     atom   44 type  4   force =    -0.00000011    0.00000073   -0.00000116
     atom   45 type  4   force =    -0.00000108    0.00000018   -0.00000183
     atom   46 type  4   force =    -0.00000033    0.00000079   -0.00000127
     atom   47 type  4   force =    -0.00000094    0.00000033   -0.00000134

     Total force =     0.001602     Total SCF correction =     0.000448
     SCF correction compared to forces is large: reduce conv_thr to get better values


     Computing stress (Cartesian axis) and pressure


     negative rho (up, down):  1.398E-02 0.000E+00
          total   stress  (Ry/bohr**3)                   (kbar)     P=     -305.56
  -0.00210256  -0.00000397  -0.00000064         -309.30       -0.58       -0.09
  -0.00000397  -0.00215425   0.00000217           -0.58     -316.90        0.32
  -0.00000064   0.00000217  -0.00197470           -0.09        0.32     -290.49

     kinetic stress (kbar)  17051.73    -61.90     -3.05
                              -61.90  16988.14      4.65
                               -3.05      4.65  16968.69

     local   stress (kbar)**********  -1101.78   -261.02
                            -1101.78**********    194.54
                             -261.02    194.541142267.61

     nonloc. stress (kbar)  -1729.29      4.10      0.79
                                4.10  -1701.42     -0.83
                                0.79     -0.83  -1733.83

     hartree stress (kbar) 600853.60    360.54    106.58
                              360.54 610698.27    -67.56
                              106.58    -67.56-528053.93

     exc-cor stress (kbar)  -8098.08      2.99      0.30
                                2.99  -8093.76     -0.39
                                0.30     -0.39  -8095.89

     corecor stress (kbar)   -154.54     -1.67     -0.19
                               -1.67   -154.13      0.19
                               -0.19      0.19   -156.59

     ewald   stress (kbar) 520493.63    797.13    156.50
                              797.13 532974.29   -130.28
                              156.50   -130.28-621486.55

     hubbard stress (kbar)      0.00      0.00      0.00
                                0.00      0.00      0.00
                                0.00      0.00      0.00

     DFT-D   stress (kbar)      0.00      0.00      0.00
                                0.00      0.00      0.00
                                0.00      0.00      0.00

     XDM     stress (kbar)      0.00      0.00      0.00
                                0.00      0.00      0.00
                                0.00      0.00      0.00

     dft-nl  stress (kbar)      0.00      0.00      0.00
                                0.00      0.00      0.00
                                0.00      0.00      0.00

     TS-vdW  stress (kbar)      0.00      0.00      0.00
                                0.00      0.00      0.00
                                0.00      0.00      0.00

     MDB     stress (kbar)      0.00      0.00      0.00
                                0.00      0.00      0.00
                                0.00      0.00      0.00

     3D-RISM stress (kbar)      0.00      0.00      0.00
                                0.00      0.00      0.00
                                0.00      0.00      0.00

     Energy error            =      6.9E-06 Ry
     Gradient error          =      4.0E-04 Ry/Bohr

     bfgs converged in  46 scf cycles and  44 bfgs steps
     (criteria: energy <  1.0E-05 Ry, force <  5.0E-04 Ry/Bohr)

     End of BFGS Geometry Optimization

     Final energy             =  -14944.0323983718 Ry

     File ./tmp/Zn100_2x2x4_relax_ecutrho250_ecutwfc25_ABN.bfgs deleted, as requested
Begin final coordinates

ATOMIC_POSITIONS (angstrom)
Zn               1.2182902100        1.3071799410        0.7547006760    0   0   0
Zn               1.2182902100        0.0000000130        3.0188027260    0   0   0
Zn               1.2132863937       -1.3117755689        5.6717808165
Zn               1.2181332985       -2.6222875249        8.3272532965
Zn               1.2182902100        3.9215397970        0.7547006760    0   0   0
Zn               1.2182902100        2.6143598690        3.0188027260    0   0   0
Zn               1.2139811193        1.3017353794        5.6727273163
Zn               1.2187799994       -0.0074658724        8.3448473047
Zn               6.0914510490        1.3071799410        0.7547006760    0   0   0
Zn               6.0914510490        0.0000000130        3.0188027260    0   0   0
Zn               6.0906699775       -1.3126405615        5.6729078437
Zn               6.0958930976       -2.6227071144        8.3362992098
Zn               6.0914510490        3.9215397970        0.7547006760    0   0   0
Zn               6.0914510490        2.6143598690        3.0188027260    0   0   0
Zn               6.0905384099        1.3021364355        5.6717347455
Zn               6.0957023985       -0.0067564100        8.3286632221
Zn               3.6548706290       -0.0000000130        1.5094013740    0   0   0
Zn               3.6548706290       -1.3071799410        3.7735034240    0   0   0
Zn               3.6501138969       -2.6218230762        6.0677311250
Zn               3.6550161899       -3.9290502003        8.4754056182
Zn               3.6548706290        2.6143598430        1.5094013740    0   0   0
Zn               3.6548706290        1.3071799150        3.7735034240    0   0   0
Zn               3.6500675966       -0.0018254950        6.0691274687
Zn               3.6586938457       -1.3153845668        8.4239519528
Zn               8.5280314680       -0.0000000130        1.5094013740    0   0   0
Zn               8.5280314680       -1.3071799410        3.7735034240    0   0   0
Zn               8.5268208636       -2.6186196426        6.0809704573
Zn               8.5310546412       -3.9289758500        8.4845128543
Zn               8.5280314680        2.6143598430        1.5094013740    0   0   0
Zn               8.5280314680        1.3071799150        3.7735034240    0   0   0
Zn               8.5257985349       -0.0044510366        6.0803011521
Zn               8.5320372630       -1.3140173672        8.4866534285
C                3.6720762093       -1.5662591578       17.5775269104
C                3.6392878667       -1.4708633903       16.1552479463
C                4.4648450836       -0.5509595848       15.4745736575
C                2.7719774275       -2.2940799803       15.4064856483
C                2.7230916176       -2.1967054494       14.0245438015
C                4.4204570720       -0.4592868917       14.0907191634
C                3.5465632518       -1.2784326690       13.3375400854
N                3.6983249699       -1.6477767041       18.7485906907
N                3.4618393748       -1.1440475801       11.9686584452
H                3.0119426793       -1.8895981137       11.4369998411
H                4.2348446617       -0.6958401503       11.4771096397
H                5.1398066290        0.0932761509       16.0456433337
H                2.1374872396       -3.0172324482       15.9273606240
H                2.0477834182       -2.8453091656       13.4561097344
H                5.0601599312        0.2629858245       13.5721155118
End final coordinates



     Writing all to output data dir ./tmp/Zn100_2x2x4_relax_ecutrho250_ecutwfc25_ABN.save/ :
     XML data file, charge density, pseudopotentials, collected wavefunctions

     init_run     :     10.54s CPU     10.63s WALL (       1 calls)
     electrons    :  16174.12s CPU  16324.80s WALL (      46 calls)
     update_pot   :      3.63s CPU      3.72s WALL (      45 calls)
     forces       :    438.05s CPU    441.94s WALL (      46 calls)
     stress       :   1230.62s CPU   1234.33s WALL (      46 calls)

     Called by init_run:
     wfcinit      :     10.28s CPU     10.36s WALL (       1 calls)
     wfcinit:atom :      0.02s CPU      0.02s WALL (       5 calls)
     wfcinit:wfcr :     10.10s CPU     10.18s WALL (       5 calls)
     potinit      :      0.08s CPU      0.08s WALL (       1 calls)
     hinit0       :      0.04s CPU      0.05s WALL (       1 calls)

     Called by electrons:
     c_bands      :  14798.27s CPU  14935.18s WALL (     477 calls)
     sum_band     :   1293.79s CPU   1306.03s WALL (     477 calls)
     v_of_rho     :      4.61s CPU      5.04s WALL (     484 calls)
     v_h          :      0.19s CPU      0.24s WALL (     484 calls)
     v_xc         :      5.28s CPU      5.71s WALL (     576 calls)
     newd         :     52.70s CPU     52.94s WALL (     484 calls)
     PAW_pot      :     34.41s CPU     34.56s WALL (     529 calls)
     mix_rho      :      0.88s CPU      0.92s WALL (     477 calls)

     Called by c_bands:
     init_us_2    :     30.79s CPU     30.91s WALL (    5460 calls)
     cegterg      :  14745.38s CPU  14881.77s WALL (    2385 calls)

     Called by sum_band:
     sum_band:wei :      1.14s CPU      1.15s WALL (     477 calls)
     sum_band:loo :   1263.11s CPU   1275.07s WALL (     477 calls)
     sum_band:buf :      4.78s CPU      4.82s WALL (    2385 calls)
     sum_band:ini :     13.29s CPU     13.33s WALL (    2385 calls)
     sum_band:cal :   1135.07s CPU   1145.70s WALL (    2610 calls)
     sum_band:bec :     26.17s CPU     26.25s WALL (    2610 calls)
     addusdens    :     27.88s CPU     28.07s WALL (     477 calls)
                                        0.00s GPU  (     477 calls)
     addusd:skk   :      0.44s CPU      0.44s WALL (    1908 calls)
                                        0.00s GPU  (    1908 calls)

     Called by *egterg:
     cdiaghg      :   2234.46s CPU   2287.17s WALL (    8970 calls)
     cegterg:over :   1834.15s CPU   1846.59s WALL (    7005 calls)
     cegterg:upda :    753.81s CPU    758.47s WALL (    7005 calls)
     cegterg:last :   2637.10s CPU   2658.88s WALL (    4879 calls)
     cdiaghg:chol :    157.66s CPU    158.09s WALL (    8970 calls)
     cdiaghg:inve :     31.52s CPU     31.61s WALL (    8970 calls)
     cdiaghg:para :    605.45s CPU    620.73s WALL (   17940 calls)
     h_psi        :   4937.66s CPU   4973.02s WALL (    9395 calls)
     s_psi        :   1710.23s CPU   1714.43s WALL (    9395 calls)
     g_psi        :      3.76s CPU      3.79s WALL (    7005 calls)

     Called by h_psi:
     h_psi:calbec :   2264.34s CPU   2285.58s WALL (    9395 calls)
     vloc_psi     :    796.98s CPU    806.11s WALL (    9395 calls)
     add_vuspsi   :   1866.61s CPU   1871.34s WALL (    9395 calls)

     General routines
     calbec       :   3903.31s CPU   3939.85s WALL (   13155 calls)
     fft          :      3.09s CPU      3.55s WALL (    6558 calls)
     ffts         :      0.22s CPU      0.24s WALL (     477 calls)
     fftw         :    913.85s CPU    924.37s WALL ( 5237172 calls)

     Parallel routines

     PAW routines
     PAW_pot      :     34.41s CPU     34.56s WALL (     529 calls)

     PWSCF        :      4h59m CPU      5h 2m WALL


   This run was terminated on:  21:45:26  16Mar2025            

=------------------------------------------------------------------------------=
   JOB DONE.
=------------------------------------------------------------------------------=
Note: The following floating-point exceptions are signalling: IEEE_DENORMAL
Note: The following floating-point exceptions are signalling: IEEE_DENORMAL
Note: The following floating-point exceptions are signalling: IEEE_DENORMAL
Note: The following floating-point exceptions are signalling: IEEE_DENORMAL
Note: The following floating-point exceptions are signalling: IEEE_DENORMAL
Note: The following floating-point exceptions are signalling: IEEE_DENORMAL
Note: The following floating-point exceptions are signalling: IEEE_DENORMAL
