--------------------------------------------------------------------------
WARNING: There was an error initializing an OpenFabrics device.

  Local host:   ga01
  Local device: mlx5_0
--------------------------------------------------------------------------
--------------------------------------------------------------------------
WARNING: There is at least one non-excluded one OpenFabrics device found,
but there are no active ports detected (or Open MPI was unable to use
them).  This is most certainly not what you wanted.  Check your
cables, subnet manager configuration, etc.  The openib BTL will be
ignored for this job.

  Local host: ga01
--------------------------------------------------------------------------

     Program PWSCF v.7.3.1 starts on 16Apr2025 at  1:58:55 

     This program is part of the open-source Quantum ESPRESSO suite
     for quantum simulation of materials; please cite
         "P. Giannozzi et al., J. Phys.:Condens. Matter 21 395502 (2009);
         "P. Giannozzi et al., J. Phys.:Condens. Matter 29 465901 (2017);
         "P. Giannozzi et al., J. Chem. Phys. 152 154105 (2020);
          URL http://www.quantum-espresso.org", 
     in publications or presentations arising from this work. More details at
     http://www.quantum-espresso.org/quote

     Parallel version (MPI), running on    31 processors

     MPI processes distributed on     1 nodes
     163891 MiB available memory on the printing compute node when the environment starts

     Waiting for input...
     Reading input from standard input
Warning: card &CELL ignored
Warning: card   CELL_DOFREE = 'ALL' ignored
Warning: card / ignored

     Current dimensions of program PWSCF are:
     Max number of different atomic species (ntypx) = 10
     Max number of k-points (npk) =  40000
     Max angular momentum in pseudopotentials (lmaxx) =  4
     file C.pbe-n-kjpaw_psl.1.0.0.UPF: wavefunction(s)  2S 2P renormalized

     R & G space division:  proc/nbgrp/npool/nimage =      31
     Subspace diagonalization in iterative solution of the eigenvalue problem:
     one sub-group per band group will be used
     custom distributed-memory algorithm (size of sub-group:  5*  5 procs)


     Parallelization info
     --------------------
     sticks:   dense  smooth     PW     G-vecs:    dense   smooth      PW
     Min         261     149     39                40469    17483    2356
     Max         262     150     41                40475    17488    2364
     Sum        8103    4637   1215              1254623   542067   73181

     Using Slab Decomposition



     bravais-lattice index     =            0
     lattice parameter (alat)  =      18.4179  a.u.
     unit-cell volume          =   15858.2170 (a.u.)^3
     number of atoms/cell      =           65
     number of atomic types    =            4
     number of electrons       =      1002.00
     number of Kohn-Sham states=          601
     kinetic-energy cutoff     =      40.0000  Ry
     charge density cutoff     =     280.0000  Ry
     scf convergence threshold =      1.0E-06
     mixing beta               =       0.4000
     number of iterations used =            8  plain     mixing
     energy convergence thresh.=      5.0E-05
     force convergence thresh. =      8.0E-04
     Exchange-correlation= PBE
                           (   1   4   3   4   0   0   0)
     nstep                     =          300


     celldm(1)=  18.417879  celldm(2)=   0.000000  celldm(3)=   0.000000
     celldm(4)=   0.000000  celldm(5)=   0.000000  celldm(6)=   0.000000

     crystal axes: (cart. coord. in units of alat)
               a(1) = (   1.000000   0.000000   0.000000 )  
               a(2) = (   0.000000   1.072963   0.000000 )  
               a(3) = (   0.000000  -1.365810   2.365652 )  

     reciprocal axes: (cart. coord. in units 2 pi/alat)
               b(1) = (  1.000000  0.000000 -0.000000 )  
               b(2) = ( -0.000000  0.931999  0.538090 )  
               b(3) = (  0.000000  0.000000  0.422716 )  


     PseudoPot. # 1 for Zn read from file:
     /home/yongsang/Research/PSID_server_room/qe/[00]QE/qepseudo/SSSP_1.3.0_PBE_efficiency/Zn_pbe_v1.uspp.F.UPF
     MD5 check sum: df62231357ef9e81f77b2b3087fa5675
     Pseudo is Ultrasoft, Zval = 20.0
     Generated by new atomic code, or converted to UPF format
     Using radial grid of  943 points,  6 beta functions with: 
                l(1) =   0
                l(2) =   0
                l(3) =   1
                l(4) =   1
                l(5) =   2
                l(6) =   2
     Q(r) pseudized with  8 coefficients,  rinner =    1.100   1.100   1.100
                                                       1.100   1.100

     PseudoPot. # 2 for N  read from file:
     /home/yongsang/Research/PSID_server_room/qe/[00]QE/qepseudo/SSSP_1.3.0_PBE_efficiency/N.pbe-n-radius_5.UPF
     MD5 check sum: 16739722b17309cd8fe442a2ace49922
     Pseudo is Ultrasoft + core correction, Zval =  5.0
     Generated using "atomic" code by A. Dal Corso  v.5.1
     Using radial grid of 1085 points,  4 beta functions with: 
                l(1) =   0
                l(2) =   0
                l(3) =   1
                l(4) =   1
     Q(r) pseudized with 0 coefficients 


     PseudoPot. # 3 for C  read from file:
     /home/yongsang/Research/PSID_server_room/qe/[00]QE/qepseudo/SSSP_1.3.0_PBE_efficiency/C.pbe-n-kjpaw_psl.1.0.0.UPF
     MD5 check sum: 5d2aebdfa2cae82b50a7e79e9516da0f
     Pseudo is Projector augmented-wave + core cor, Zval =  4.0
     Generated using "atomic" code by A. Dal Corso  v.5.1
     Shape of augmentation charge: PSQ
     Using radial grid of 1073 points,  4 beta functions with: 
                l(1) =   0
                l(2) =   0
                l(3) =   1
                l(4) =   1
     Q(r) pseudized with 0 coefficients 


     PseudoPot. # 4 for H  read from file:
     /home/yongsang/Research/PSID_server_room/qe/[00]QE/qepseudo/SSSP_1.3.0_PBE_efficiency/H.pbe-rrkjus_psl.1.0.0.UPF
     MD5 check sum: f52b6d4d1c606e5624b1dc7b2218f220
     Pseudo is Ultrasoft, Zval =  1.0
     Generated using "atomic" code by A. Dal Corso  v.5.1
     Using radial grid of  929 points,  2 beta functions with: 
                l(1) =   0
                l(2) =   0
     Q(r) pseudized with 0 coefficients 


     atomic species   valence    mass     pseudopotential
     Zn               20.00    65.38000     Zn( 1.00)
     N                 5.00    14.00674     N ( 1.00)
     C                 4.00    12.01070     C ( 1.00)
     H                 1.00     1.00794     H ( 1.00)

     No symmetry found


                                    s                        frac. trans.

      isym =  1     identity                                     

 cryst.   s( 1) = (     1          0          0      )
                  (     0          1          0      )
                  (     0          0          1      )

 cart.    s( 1) = (  1.0000000  0.0000000  0.0000000 )
                  (  0.0000000  1.0000000 -0.0000000 )
                  (  0.0000000  0.0000000  1.0000000 )


   Cartesian axes

     site n.     atom                  positions (alat units)
         1        Zn     tau(   1) = (   0.1250000   0.1341203   0.0774344  )
         2        Zn     tau(   2) = (   0.1250000   0.6706017   0.0774344  )
         3        Zn     tau(   3) = (   0.1254355  -0.0000659   0.3663588  )
         4        Zn     tau(   4) = (   0.1254363   0.5365404   0.3662887  )
         5        Zn     tau(   5) = (   0.1252702  -0.1341656   0.6251262  )
         6        Zn     tau(   6) = (   0.1252777   0.4024072   0.6251464  )
         7        Zn     tau(   7) = (   0.1250000   0.4023610   0.0774344  )
         8        Zn     tau(   8) = (   0.1250000   0.9388424   0.0774344  )
         9        Zn     tau(   9) = (   0.1254456   0.2682606   0.3663796  )
        10        Zn     tau(  10) = (   0.1254350   0.8047243   0.3662418  )
        11        Zn     tau(  11) = (   0.1252783   0.1341187   0.6251453  )
        12        Zn     tau(  12) = (   0.1252697   0.6706189   0.6251228  )
        13        Zn     tau(  13) = (   0.6250000   0.1341203   0.0774344  )
        14        Zn     tau(  14) = (   0.6250000   0.6706017   0.0774344  )
        15        Zn     tau(  15) = (   0.6245281  -0.0000638   0.3665247  )
        16        Zn     tau(  16) = (   0.6245270   0.5365419   0.3664904  )
        17        Zn     tau(  17) = (   0.6247150  -0.1341737   0.6252632  )
        18        Zn     tau(  18) = (   0.6247105   0.4024094   0.6252948  )
        19        Zn     tau(  19) = (   0.6250000   0.4023610   0.0774344  )
        20        Zn     tau(  20) = (   0.6250000   0.9388424   0.0774344  )
        21        Zn     tau(  21) = (   0.6245216   0.2682681   0.3665651  )
        22        Zn     tau(  22) = (   0.6245321   0.8047117   0.3664232  )
        23        Zn     tau(  23) = (   0.6247131   0.1341157   0.6252902  )
        24        Zn     tau(  24) = (   0.6247175   0.6706215   0.6252710  )
        25        Zn     tau(  25) = (   0.3750000   0.0000000   0.1548688  )
        26        Zn     tau(  26) = (   0.3750000   0.5364814   0.1548688  )
        27        Zn     tau(  27) = (   0.3745046  -0.1341714   0.3889500  )
        28        Zn     tau(  28) = (   0.3745046   0.4024249   0.3889898  )
        29        Zn     tau(  29) = (   0.3746919  -0.2682568   0.6329084  )
        30        Zn     tau(  30) = (   0.3746970   0.2682757   0.6328984  )
        31        Zn     tau(  31) = (   0.3750000   0.2682407   0.1548688  )
        32        Zn     tau(  32) = (   0.3750000   0.8047221   0.1548688  )
        33        Zn     tau(  33) = (   0.3745120   0.1340709   0.3890099  )
        34        Zn     tau(  34) = (   0.3744965   0.6706470   0.3889242  )
        35        Zn     tau(  35) = (   0.3746988  -0.0000299   0.6328957  )
        36        Zn     tau(  36) = (   0.3746947   0.5365025   0.6329113  )
        37        Zn     tau(  37) = (   0.8750000   0.0000000   0.1548688  )
        38        Zn     tau(  38) = (   0.8750000   0.5364814   0.1548688  )
        39        Zn     tau(  39) = (   0.8755371  -0.1341797   0.3891205  )
        40        Zn     tau(  40) = (   0.8755441   0.4024177   0.3891626  )
        41        Zn     tau(  41) = (   0.8753258  -0.2682562   0.6328998  )
        42        Zn     tau(  42) = (   0.8753266   0.2682699   0.6328854  )
        43        Zn     tau(  43) = (   0.8750000   0.2682407   0.1548688  )
        44        Zn     tau(  44) = (   0.8750000   0.8047221   0.1548688  )
        45        Zn     tau(  45) = (   0.8755369   0.1340755   0.3891857  )
        46        Zn     tau(  46) = (   0.8755419   0.6706575   0.3890923  )
        47        Zn     tau(  47) = (   0.8753223  -0.0000330   0.6328793  )
        48        Zn     tau(  48) = (   0.8753273   0.5365108   0.6329031  )
        49        C      tau(  49) = (   0.3056581   0.1597649   1.1888648  )
        50        C      tau(  50) = (   0.3581476   0.2703978   1.1121030  )
        51        C      tau(  51) = (   0.3071090   0.1630639   1.3315631  )
        52        C      tau(  52) = (   0.4115518   0.3833774   1.1842429  )
        53        C      tau(  53) = (   0.3600882   0.2753102   1.4045225  )
        54        C      tau(  54) = (   0.4120047   0.3848690   1.3273533  )
        55        C      tau(  55) = (   0.3604824   0.2763550   1.5591902  )
        56        N      tau(  56) = (   0.3571750   0.2676955   0.9706041  )
        57        H      tau(  57) = (   0.3188322   0.1866409   0.9190742  )
        58        H      tau(  58) = (   0.4199351   0.1899395   1.6011491  )
        59        H      tau(  59) = (   0.2636283   0.0705886   1.1354453  )
        60        H      tau(  60) = (   0.3946197   0.3467902   0.9154166  )
        61        H      tau(  61) = (   0.2656940   0.0754838   1.3880573  )
        62        H      tau(  62) = (   0.4529977   0.4705683   1.1272591  )
        63        H      tau(  63) = (   0.4543235   0.4742502   1.3802006  )
        64        H      tau(  64) = (   0.4054433   0.3714369   1.5995916  )
        65        H      tau(  65) = (   0.2558897   0.2675947   1.6009903  )

     --------------------------------------------
     DFT-D3 Dispersion Correction (3-body terms):
     --------------------------------------------
       Reference C6 values for interpolation: 

         atom   Coordination number   C6
         H          0.912             6.05
         H          0.000            15.18
         C          0.000            98.23
         C          0.987            86.49
         C          1.998            58.72
         C          2.999            51.56
         C          3.984            36.41
         N          0.000            50.54
         N          0.994            44.25
         N          2.014            39.35
         N          2.990            31.16
         Zn         0.000           681.04
         Zn         1.942           306.91

       Values used:

         atom   Coordination number  R0_AB[au]  C6      C8
         Zn         4.540            3.053    306.91  23930.67
         Zn         4.543            3.053    306.91  23930.67
         Zn         6.756            3.053    306.91  23930.67
         Zn         6.757            3.053    306.91  23930.67
         Zn         5.959            3.053    306.91  23930.67
         Zn         5.959            3.053    306.91  23930.67
         Zn         4.541            3.053    306.91  23930.67
         Zn         4.542            3.053    306.91  23930.67
         Zn         6.753            3.053    306.91  23930.67
         Zn         6.759            3.053    306.91  23930.67
         Zn         5.959            3.053    306.91  23930.67
         Zn         5.959            3.053    306.91  23930.67
         Zn         4.537            3.053    306.91  23930.67
         Zn         4.539            3.053    306.91  23930.67
         Zn         6.705            3.053    306.91  23930.67
         Zn         6.706            3.053    306.91  23930.67
         Zn         5.925            3.053    306.91  23930.67
         Zn         5.925            3.053    306.91  23930.67
         Zn         4.537            3.053    306.91  23930.67
         Zn         4.539            3.053    306.91  23930.67
         Zn         6.703            3.053    306.91  23930.67
         Zn         6.708            3.053    306.91  23930.67
         Zn         5.924            3.053    306.91  23930.67
         Zn         5.925            3.053    306.91  23930.67
         Zn         6.090            3.053    306.91  23930.67
         Zn         6.091            3.053    306.91  23930.67
         Zn         7.993            3.053    306.91  23930.67
         Zn         7.991            3.053    306.91  23930.67
         Zn         6.168            3.053    306.91  23930.67
         Zn         6.187            3.053    306.91  23930.67
         Zn         6.089            3.053    306.91  23930.67
         Zn         6.092            3.053    306.91  23930.67
         Zn         7.990            3.053    306.91  23930.67
         Zn         7.993            3.053    306.91  23930.67
         Zn         6.169            3.053    306.91  23930.67
         Zn         6.170            3.053    306.91  23930.67
         Zn         6.077            3.053    306.91  23930.67
         Zn         6.078            3.053    306.91  23930.67
         Zn         7.950            3.053    306.91  23930.67
         Zn         7.947            3.053    306.91  23930.67
         Zn         6.145            3.053    306.91  23930.67
         Zn         6.143            3.053    306.91  23930.67
         Zn         6.076            3.053    306.91  23930.67
         Zn         6.079            3.053    306.91  23930.67
         Zn         7.946            3.053    306.91  23930.67
         Zn         7.950            3.053    306.91  23930.67
         Zn         6.144            3.053    306.91  23930.67
         Zn         6.144            3.053    306.91  23930.67
         C          3.164            2.750     50.41   1458.01
         C          3.139            2.750     50.62   1463.93
         C          3.166            2.750     50.40   1457.62
         C          3.164            2.750     50.41   1458.09
         C          3.128            2.750     50.70   1466.28
         C          3.164            2.750     50.42   1458.19
         C          4.038            2.750     36.59   1058.28
         N          3.097            2.478     31.24    689.10
         H          1.011            2.062      6.17     74.60
         H          0.997            2.062      6.18     74.75
         H          1.003            2.062      6.18     74.69
         H          1.012            2.062      6.17     74.59
         H          1.003            2.062      6.18     74.68
         H          1.003            2.062      6.18     74.69
         H          1.003            2.062      6.18     74.68
         H          0.998            2.062      6.18     74.74
         H          0.997            2.062      6.18     74.75

         Molecular C6 ( Ry / a.u.^6 ) =    839477.68


   Crystallographic axes

     site n.     atom                  positions (cryst. coord.)
         1        Zn     tau(   1) = (  0.1250000  0.1666667  0.0327328  )
         2        Zn     tau(   2) = (  0.1250000  0.6666667  0.0327328  )
         3        Zn     tau(   3) = (  0.1254355  0.1970725  0.1548659  )
         4        Zn     tau(   4) = (  0.1254363  0.6971513  0.1548362  )
         5        Zn     tau(   5) = (  0.1252702  0.2113319  0.2642511  )
         6        Zn     tau(   6) = (  0.1252777  0.7114279  0.2642596  )
         7        Zn     tau(   7) = (  0.1250000  0.4166667  0.0327328  )
         8        Zn     tau(   8) = (  0.1250000  0.9166667  0.0327328  )
         9        Zn     tau(   9) = (  0.1254456  0.4471637  0.1548747  )
        10        Zn     tau(  10) = (  0.1254350  0.9470731  0.1548164  )
        11        Zn     tau(  11) = (  0.1252783  0.4613828  0.2642592  )
        12        Zn     tau(  12) = (  0.1252697  0.9613882  0.2642496  )
        13        Zn     tau(  13) = (  0.6250000  0.1666667  0.0327328  )
        14        Zn     tau(  14) = (  0.6250000  0.6666667  0.0327328  )
        15        Zn     tau(  15) = (  0.6245281  0.1971637  0.1549360  )
        16        Zn     tau(  16) = (  0.6245270  0.6972612  0.1549215  )
        17        Zn     tau(  17) = (  0.6247150  0.2113980  0.2643090  )
        18        Zn     tau(  18) = (  0.6247105  0.7115098  0.2643223  )
        19        Zn     tau(  19) = (  0.6250000  0.4166667  0.0327328  )
        20        Zn     tau(  20) = (  0.6250000  0.9166667  0.0327328  )
        21        Zn     tau(  21) = (  0.6245216  0.4472705  0.1549531  )
        22        Zn     tau(  22) = (  0.6245321  0.9471590  0.1548931  )
        23        Zn     tau(  23) = (  0.6247131  0.4614579  0.2643204  )
        24        Zn     tau(  24) = (  0.6247175  0.9614704  0.2643123  )
        25        Zn     tau(  25) = (  0.3750000  0.0833333  0.0654656  )
        26        Zn     tau(  26) = (  0.3750000  0.5833333  0.0654656  )
        27        Zn     tau(  27) = (  0.3745046  0.0842425  0.1644155  )
        28        Zn     tau(  28) = (  0.3745046  0.5843710  0.1644324  )
        29        Zn     tau(  29) = (  0.3746919  0.0905466  0.2675408  )
        30        Zn     tau(  30) = (  0.3746970  0.5905888  0.2675365  )
        31        Zn     tau(  31) = (  0.3750000  0.3333333  0.0654656  )
        32        Zn     tau(  32) = (  0.3750000  0.8333334  0.0654656  )
        33        Zn     tau(  33) = (  0.3745120  0.3342762  0.1644409  )
        34        Zn     tau(  34) = (  0.3744965  0.8343184  0.1644046  )
        35        Zn     tau(  35) = (  0.3746988  0.3405268  0.2675354  )
        36        Zn     tau(  36) = (  0.3746947  0.8405829  0.2675420  )
        37        Zn     tau(  37) = (  0.8750000  0.0833333  0.0654656  )
        38        Zn     tau(  38) = (  0.8750000  0.5833333  0.0654656  )
        39        Zn     tau(  39) = (  0.8755371  0.0843264  0.1644876  )
        40        Zn     tau(  40) = (  0.8755441  0.5844573  0.1645054  )
        41        Zn     tau(  41) = (  0.8753258  0.0905424  0.2675371  )
        42        Zn     tau(  42) = (  0.8753266  0.5905764  0.2675310  )
        43        Zn     tau(  43) = (  0.8750000  0.3333333  0.0654656  )
        44        Zn     tau(  44) = (  0.8750000  0.8333334  0.0654656  )
        45        Zn     tau(  45) = (  0.8755369  0.3343750  0.1645152  )
        46        Zn     tau(  46) = (  0.8755419  0.8344186  0.1644757  )
        47        Zn     tau(  47) = (  0.8753223  0.3405151  0.2675284  )
        48        Zn     tau(  48) = (  0.8753273  0.8405862  0.2675385  )
        49        C      tau(  49) = (  0.3056581  0.7886167  0.5025526  )
        50        C      tau(  50) = (  0.3581476  0.8504217  0.4701041  )
        51        C      tau(  51) = (  0.3071090  0.8684759  0.5628735  )
        52        C      tau(  52) = (  0.4115518  0.9945363  0.5005989  )
        53        C      tau(  53) = (  0.3600882  1.0123480  0.5937147  )
        54        C      tau(  54) = (  0.4120047  1.0729327  0.5610940  )
        55        C      tau(  55) = (  0.3604824  1.0965469  0.6590953  )
        56        N      tau(  56) = (  0.3571750  0.7717640  0.4102903  )
        57        H      tau(  57) = (  0.3188322  0.6684936  0.3885077  )
        58        H      tau(  58) = (  0.4199351  1.0385854  0.6768320  )
        59        H      tau(  59) = (  0.2636283  0.6767600  0.4799713  )
        60        H      tau(  60) = (  0.3946197  0.8157844  0.3869616  )
        61        H      tau(  61) = (  0.2656940  0.8172502  0.5867546  )
        62        H      tau(  62) = (  0.4529977  1.0451357  0.4765109  )
        63        H      tau(  63) = (  0.4543235  1.1846725  0.5834334  )
        64        H      tau(  64) = (  0.4054433  1.2069026  0.6761736  )
        65        H      tau(  65) = (  0.2558897  1.1108745  0.6767648  )

     number of k points=     5  Marzari-Vanderbilt smearing, width (Ry)=  0.0200
                       cart. coord. in units 2pi/alat
        k(    1) = (   0.0000000   0.0000000   0.0000000), wk =   0.2222222
        k(    2) = (   0.0000000   0.3106663   0.1793633), wk =   0.4444444
        k(    3) = (   0.3333333   0.0000000   0.0000000), wk =   0.4444444
        k(    4) = (   0.3333333   0.3106663   0.1793633), wk =   0.4444444
        k(    5) = (   0.3333333  -0.3106663  -0.1793633), wk =   0.4444444

                       cryst. coord.
        k(    1) = (   0.0000000   0.0000000   0.0000000), wk =   0.2222222
        k(    2) = (   0.0000000   0.3333333  -0.0000000), wk =   0.4444444
        k(    3) = (   0.3333333   0.0000000   0.0000000), wk =   0.4444444
        k(    4) = (   0.3333333   0.3333333  -0.0000000), wk =   0.4444444
        k(    5) = (   0.3333333  -0.3333333   0.0000000), wk =   0.4444444

     Dense  grid:  1254623 G-vectors     FFT dimensions: ( 100, 108, 270)

     Smooth grid:   542067 G-vectors     FFT dimensions: (  75,  80, 216)

     Dynamical RAM for                 wfc:      20.04 MB

     Dynamical RAM for     wfc (w. buffer):     120.23 MB

     Dynamical RAM for           str. fact:       2.47 MB

     Dynamical RAM for           local pot:       0.00 MB

     Dynamical RAM for          nlocal pot:      31.54 MB

     Dynamical RAM for                qrad:       5.37 MB

     Dynamical RAM for          rho,v,vnew:       4.08 MB

     Dynamical RAM for               rhoin:       1.36 MB

     Dynamical RAM for            rho*nmix:       9.88 MB

     Dynamical RAM for           G-vectors:       2.45 MB

     Dynamical RAM for          h,s,v(r/c):       2.64 MB

     Dynamical RAM for          <psi|beta>:       8.68 MB

     Dynamical RAM for                 psi:      40.08 MB

     Dynamical RAM for                hpsi:      40.08 MB

     Dynamical RAM for                spsi:      40.08 MB

     Dynamical RAM for      wfcinit/wfcrot:      54.47 MB

     Dynamical RAM for           addusdens:     144.52 MB

     Dynamical RAM for          addusforce:     203.07 MB

     Dynamical RAM for         addusstress:     124.14 MB

     Estimated static dynamical RAM per process >     174.29 MB

     Estimated max dynamical RAM per process >     387.24 MB

     Estimated total dynamical RAM >      11.72 GB

     Initial potential from superposition of free atoms

     starting charge    1001.9928, renormalised to    1002.0000

     negative rho (up, down):  1.280E-03 0.000E+00
     Starting wfcs are  665 randomized atomic wfcs
[ga01:788280] 28 more processes have sent help message help-mpi-btl-openib.txt / error in device init
[ga01:788280] Set MCA parameter "orte_base_help_aggregate" to 0 to see all help / error messages
[ga01:788280] 1 more process has sent help message help-mpi-btl-openib.txt / no active ports found
     Checking if some PAW data can be deallocated... 
       PAW data deallocated on   27 nodes for type:  3

     total cpu time spent up to now is       27.8 secs

     Self-consistent Calculation

     iteration #  1     ecut=    40.00 Ry     beta= 0.40
     Davidson diagonalization with overlap

---- Real-time Memory Report at c_bands before calling an iterative solver
           418 MiB given to the printing process from OS
             0 MiB allocation reported by mallinfo(arena+hblkhd)
        157636 MiB available memory on the node where the printing process lives
------------------
     ethr =  1.00E-02,  avg # of iterations =  7.6

     negative rho (up, down):  1.712E-03 0.000E+00

     total cpu time spent up to now is      136.1 secs

     total energy              =  -22308.80506694 Ry
     estimated scf accuracy    <      12.18074005 Ry

     iteration #  2     ecut=    40.00 Ry     beta= 0.40
     Davidson diagonalization with overlap

---- Real-time Memory Report at c_bands before calling an iterative solver
           528 MiB given to the printing process from OS
             0 MiB allocation reported by mallinfo(arena+hblkhd)
        156442 MiB available memory on the node where the printing process lives
------------------
     ethr =  1.22E-03,  avg # of iterations =  9.8

     negative rho (up, down):  2.729E-03 0.000E+00

     total cpu time spent up to now is      250.0 secs

     total energy              =  -22291.54751454 Ry
     estimated scf accuracy    <     359.84163418 Ry

     iteration #  3     ecut=    40.00 Ry     beta= 0.40
     Davidson diagonalization with overlap

---- Real-time Memory Report at c_bands before calling an iterative solver
           552 MiB given to the printing process from OS
             0 MiB allocation reported by mallinfo(arena+hblkhd)
        156435 MiB available memory on the node where the printing process lives
------------------
     ethr =  1.22E-03,  avg # of iterations =  8.6

     negative rho (up, down):  2.561E-03 0.000E+00

     total cpu time spent up to now is      396.0 secs

     total energy              =  -22313.78962570 Ry
     estimated scf accuracy    <       8.46515649 Ry

     iteration #  4     ecut=    40.00 Ry     beta= 0.40
     Davidson diagonalization with overlap

---- Real-time Memory Report at c_bands before calling an iterative solver
           553 MiB given to the printing process from OS
             0 MiB allocation reported by mallinfo(arena+hblkhd)
        156409 MiB available memory on the node where the printing process lives
------------------
     ethr =  8.45E-04,  avg # of iterations =  5.0

     negative rho (up, down):  2.489E-03 0.000E+00

     total cpu time spent up to now is      486.2 secs

     total energy              =  -22314.28616448 Ry
     estimated scf accuracy    <       6.86425833 Ry

     iteration #  5     ecut=    40.00 Ry     beta= 0.40
     Davidson diagonalization with overlap

---- Real-time Memory Report at c_bands before calling an iterative solver
           556 MiB given to the printing process from OS
             0 MiB allocation reported by mallinfo(arena+hblkhd)
        156383 MiB available memory on the node where the printing process lives
------------------
     ethr =  6.85E-04,  avg # of iterations =  2.4

     negative rho (up, down):  2.569E-03 0.000E+00

     total cpu time spent up to now is      570.4 secs

     total energy              =  -22314.67977178 Ry
     estimated scf accuracy    <       0.46981177 Ry

     iteration #  6     ecut=    40.00 Ry     beta= 0.40
     Davidson diagonalization with overlap

---- Real-time Memory Report at c_bands before calling an iterative solver
           562 MiB given to the printing process from OS
             0 MiB allocation reported by mallinfo(arena+hblkhd)
        156349 MiB available memory on the node where the printing process lives
------------------
     ethr =  4.69E-05,  avg # of iterations = 11.6

     negative rho (up, down):  2.781E-03 0.000E+00

     total cpu time spent up to now is      677.6 secs

     total energy              =  -22314.68782740 Ry
     estimated scf accuracy    <       0.21347519 Ry

     iteration #  7     ecut=    40.00 Ry     beta= 0.40
     Davidson diagonalization with overlap

---- Real-time Memory Report at c_bands before calling an iterative solver
           563 MiB given to the printing process from OS
             0 MiB allocation reported by mallinfo(arena+hblkhd)
        156325 MiB available memory on the node where the printing process lives
------------------
     ethr =  2.13E-05,  avg # of iterations =  3.6

     negative rho (up, down):  2.888E-03 0.000E+00

     total cpu time spent up to now is      763.9 secs

     total energy              =  -22314.68400260 Ry
     estimated scf accuracy    <       0.08439847 Ry

     iteration #  8     ecut=    40.00 Ry     beta= 0.40
     Davidson diagonalization with overlap

---- Real-time Memory Report at c_bands before calling an iterative solver
           563 MiB given to the printing process from OS
             0 MiB allocation reported by mallinfo(arena+hblkhd)
        156299 MiB available memory on the node where the printing process lives
------------------
     ethr =  8.42E-06,  avg # of iterations = 14.4

     negative rho (up, down):  2.954E-03 0.000E+00

     total cpu time spent up to now is      868.2 secs

     total energy              =  -22314.68001143 Ry
     estimated scf accuracy    <       0.08740658 Ry

     iteration #  9     ecut=    40.00 Ry     beta= 0.40
     Davidson diagonalization with overlap

---- Real-time Memory Report at c_bands before calling an iterative solver
           564 MiB given to the printing process from OS
             0 MiB allocation reported by mallinfo(arena+hblkhd)
        156269 MiB available memory on the node where the printing process lives
------------------
     ethr =  8.42E-06,  avg # of iterations =  3.0

     negative rho (up, down):  2.996E-03 0.000E+00

     total cpu time spent up to now is      953.0 secs

     total energy              =  -22314.67886210 Ry
     estimated scf accuracy    <       0.04616323 Ry

     iteration # 10     ecut=    40.00 Ry     beta= 0.40
     Davidson diagonalization with overlap

---- Real-time Memory Report at c_bands before calling an iterative solver
           565 MiB given to the printing process from OS
             0 MiB allocation reported by mallinfo(arena+hblkhd)
        156241 MiB available memory on the node where the printing process lives
------------------
     c_bands:  3 eigenvalues not converged
     c_bands:  2 eigenvalues not converged
     c_bands:  1 eigenvalues not converged
     ethr =  4.61E-06,  avg # of iterations = 17.8

     negative rho (up, down):  3.025E-03 0.000E+00

     total cpu time spent up to now is     1058.1 secs

     total energy              =  -22314.67505360 Ry
     estimated scf accuracy    <       0.03805641 Ry

     iteration # 11     ecut=    40.00 Ry     beta= 0.40
     Davidson diagonalization with overlap

---- Real-time Memory Report at c_bands before calling an iterative solver
           566 MiB given to the printing process from OS
             0 MiB allocation reported by mallinfo(arena+hblkhd)
        156239 MiB available memory on the node where the printing process lives
------------------
     c_bands:  1 eigenvalues not converged
     ethr =  3.80E-06,  avg # of iterations = 10.2

     negative rho (up, down):  3.188E-03 0.000E+00

     total cpu time spent up to now is     1152.0 secs

     total energy              =  -22314.65243309 Ry
     estimated scf accuracy    <       0.03108940 Ry

     iteration # 12     ecut=    40.00 Ry     beta= 0.40
     Davidson diagonalization with overlap

---- Real-time Memory Report at c_bands before calling an iterative solver
           566 MiB given to the printing process from OS
             0 MiB allocation reported by mallinfo(arena+hblkhd)
        156239 MiB available memory on the node where the printing process lives
------------------
     c_bands:  4 eigenvalues not converged
     ethr =  3.10E-06,  avg # of iterations = 18.0

     negative rho (up, down):  3.113E-03 0.000E+00

     total cpu time spent up to now is     1287.9 secs

     total energy              =  -22314.65179552 Ry
     estimated scf accuracy    <       0.00941567 Ry

     iteration # 13     ecut=    40.00 Ry     beta= 0.40
     Davidson diagonalization with overlap

---- Real-time Memory Report at c_bands before calling an iterative solver
           566 MiB given to the printing process from OS
             0 MiB allocation reported by mallinfo(arena+hblkhd)
        156229 MiB available memory on the node where the printing process lives
------------------
     ethr =  9.40E-07,  avg # of iterations = 16.2

     negative rho (up, down):  3.104E-03 0.000E+00

     total cpu time spent up to now is     1401.9 secs

     total energy              =  -22314.65774047 Ry
     estimated scf accuracy    <       0.00644346 Ry

     iteration # 14     ecut=    40.00 Ry     beta= 0.40
     Davidson diagonalization with overlap

---- Real-time Memory Report at c_bands before calling an iterative solver
           566 MiB given to the printing process from OS
             0 MiB allocation reported by mallinfo(arena+hblkhd)
        156227 MiB available memory on the node where the printing process lives
------------------
     c_bands:  1 eigenvalues not converged
     ethr =  6.43E-07,  avg # of iterations = 14.8

     negative rho (up, down):  3.105E-03 0.000E+00

     total cpu time spent up to now is     1501.1 secs

     total energy              =  -22314.65650295 Ry
     estimated scf accuracy    <       0.01172588 Ry

     iteration # 15     ecut=    40.00 Ry     beta= 0.40
     Davidson diagonalization with overlap

---- Real-time Memory Report at c_bands before calling an iterative solver
           566 MiB given to the printing process from OS
             0 MiB allocation reported by mallinfo(arena+hblkhd)
        156226 MiB available memory on the node where the printing process lives
------------------
     ethr =  6.43E-07,  avg # of iterations =  6.8

     negative rho (up, down):  3.108E-03 0.000E+00

     total cpu time spent up to now is     1589.4 secs

     total energy              =  -22314.65522902 Ry
     estimated scf accuracy    <       0.00960206 Ry

     iteration # 16     ecut=    40.00 Ry     beta= 0.40
     Davidson diagonalization with overlap

---- Real-time Memory Report at c_bands before calling an iterative solver
           566 MiB given to the printing process from OS
             0 MiB allocation reported by mallinfo(arena+hblkhd)
        156216 MiB available memory on the node where the printing process lives
------------------
     ethr =  6.43E-07,  avg # of iterations = 14.0

     negative rho (up, down):  3.094E-03 0.000E+00

     total cpu time spent up to now is     1687.9 secs

     total energy              =  -22314.65512735 Ry
     estimated scf accuracy    <       0.00099424 Ry

     iteration # 17     ecut=    40.00 Ry     beta= 0.40
     Davidson diagonalization with overlap

---- Real-time Memory Report at c_bands before calling an iterative solver
           566 MiB given to the printing process from OS
             0 MiB allocation reported by mallinfo(arena+hblkhd)
        156211 MiB available memory on the node where the printing process lives
------------------
     ethr =  9.92E-08,  avg # of iterations = 14.4

     negative rho (up, down):  3.085E-03 0.000E+00

     total cpu time spent up to now is     1790.2 secs

     total energy              =  -22314.65230295 Ry
     estimated scf accuracy    <       0.03623752 Ry

     iteration # 18     ecut=    40.00 Ry     beta= 0.40
     Davidson diagonalization with overlap

---- Real-time Memory Report at c_bands before calling an iterative solver
           566 MiB given to the printing process from OS
             0 MiB allocation reported by mallinfo(arena+hblkhd)
        156210 MiB available memory on the node where the printing process lives
------------------
     ethr =  9.92E-08,  avg # of iterations = 13.2

     negative rho (up, down):  3.082E-03 0.000E+00

     total cpu time spent up to now is     1890.8 secs

     total energy              =  -22314.65551413 Ry
     estimated scf accuracy    <       0.00533585 Ry

     iteration # 19     ecut=    40.00 Ry     beta= 0.40
     Davidson diagonalization with overlap

---- Real-time Memory Report at c_bands before calling an iterative solver
           566 MiB given to the printing process from OS
             0 MiB allocation reported by mallinfo(arena+hblkhd)
        156212 MiB available memory on the node where the printing process lives
------------------
     ethr =  9.92E-08,  avg # of iterations =  1.4

     negative rho (up, down):  3.081E-03 0.000E+00

     total cpu time spent up to now is     1964.1 secs

     total energy              =  -22314.65549328 Ry
     estimated scf accuracy    <       0.00155390 Ry

     iteration # 20     ecut=    40.00 Ry     beta= 0.40
     Davidson diagonalization with overlap

---- Real-time Memory Report at c_bands before calling an iterative solver
           566 MiB given to the printing process from OS
             0 MiB allocation reported by mallinfo(arena+hblkhd)
        156203 MiB available memory on the node where the printing process lives
------------------
     ethr =  9.92E-08,  avg # of iterations =  1.0

     negative rho (up, down):  3.080E-03 0.000E+00

     total cpu time spent up to now is     2031.5 secs

     total energy              =  -22314.65551811 Ry
     estimated scf accuracy    <       0.00028090 Ry

     iteration # 21     ecut=    40.00 Ry     beta= 0.40
     Davidson diagonalization with overlap

---- Real-time Memory Report at c_bands before calling an iterative solver
           566 MiB given to the printing process from OS
             0 MiB allocation reported by mallinfo(arena+hblkhd)
        156198 MiB available memory on the node where the printing process lives
------------------
     ethr =  2.80E-08,  avg # of iterations =  1.0

     negative rho (up, down):  3.080E-03 0.000E+00

     total cpu time spent up to now is     2098.8 secs

     total energy              =  -22314.65550719 Ry
     estimated scf accuracy    <       0.00022120 Ry

     iteration # 22     ecut=    40.00 Ry     beta= 0.40
     Davidson diagonalization with overlap

---- Real-time Memory Report at c_bands before calling an iterative solver
           566 MiB given to the printing process from OS
             0 MiB allocation reported by mallinfo(arena+hblkhd)
        156197 MiB available memory on the node where the printing process lives
------------------
     ethr =  2.21E-08,  avg # of iterations =  1.0

     negative rho (up, down):  3.080E-03 0.000E+00

     total cpu time spent up to now is     2166.2 secs

     total energy              =  -22314.65550251 Ry
     estimated scf accuracy    <       0.00006006 Ry

     iteration # 23     ecut=    40.00 Ry     beta= 0.40
     Davidson diagonalization with overlap

---- Real-time Memory Report at c_bands before calling an iterative solver
           566 MiB given to the printing process from OS
             0 MiB allocation reported by mallinfo(arena+hblkhd)
        156196 MiB available memory on the node where the printing process lives
------------------
     ethr =  5.99E-09,  avg # of iterations =  1.0

     negative rho (up, down):  3.079E-03 0.000E+00

     total cpu time spent up to now is     2233.7 secs

     total energy              =  -22314.65550664 Ry
     estimated scf accuracy    <       0.00000384 Ry

     iteration # 24     ecut=    40.00 Ry     beta= 0.40
     Davidson diagonalization with overlap

---- Real-time Memory Report at c_bands before calling an iterative solver
           566 MiB given to the printing process from OS
             0 MiB allocation reported by mallinfo(arena+hblkhd)
        156194 MiB available memory on the node where the printing process lives
------------------
     ethr =  3.84E-10,  avg # of iterations =  1.0

     negative rho (up, down):  3.079E-03 0.000E+00

     total cpu time spent up to now is     2301.0 secs

     End of self-consistent calculation

          k = 0.0000 0.0000 0.0000 ( 67685 PWs)   bands (ev):

  -124.8810-124.8802-124.8798-124.8789-124.8697-124.8688-124.8685-124.8676
  -124.7263-124.7250-124.7247-124.7233-124.7207-124.7167-124.7155-124.7149
  -124.7134-124.6995-124.6983-124.6914-124.6829-124.6821-124.6819-124.6810
  -124.6455-124.6447-124.6444-124.6429-124.6412-124.6405-124.6400-124.6394
  -124.6202-124.6141-124.6125-124.6113-124.6105-124.6066-124.6054-124.6036
  -124.5344-124.5328-124.5323-124.5319-124.5312-124.5306-124.5298-124.5286
   -79.0391 -79.0366 -79.0354 -79.0353 -79.0341 -79.0299 -79.0289 -79.0285
   -79.0277 -79.0274 -79.0267 -79.0266 -79.0254 -79.0243 -79.0241 -79.0230
   -79.0186 -79.0176 -79.0173 -79.0162 -79.0152 -79.0152 -79.0141 -79.0027
   -78.8882 -78.8858 -78.8845 -78.8842 -78.8829 -78.8821 -78.8807 -78.8802
   -78.8789 -78.8788 -78.8761 -78.8749 -78.8744 -78.8729 -78.8728 -78.8716
   -78.8708 -78.8693 -78.8692 -78.8682 -78.8666 -78.8665 -78.8650 -78.8638
   -78.8625 -78.8570 -78.8567 -78.8553 -78.8542 -78.8475 -78.8470 -78.8462
   -78.8460 -78.8451 -78.8451 -78.8445 -78.8443 -78.8440 -78.8401 -78.8378
   -78.8306 -78.8297 -78.8287 -78.8284 -78.8279 -78.8277 -78.8274 -78.8154
   -78.8056 -78.8046 -78.8044 -78.8043 -78.8028 -78.8013 -78.8006 -78.8001
   -78.8001 -78.7994 -78.7943 -78.7933 -78.7930 -78.7923 -78.7917 -78.7915
   -78.7902 -78.7893 -78.7889 -78.7881 -78.7880 -78.7876 -78.7817 -78.7797
   -78.7755 -78.7753 -78.7737 -78.7722 -78.7721 -78.7717 -78.7714 -78.7681
   -78.7669 -78.7658 -78.7649 -78.7643 -78.7634 -78.7632 -78.7618 -78.7600
   -78.7582 -78.7571 -78.7570 -78.7557 -78.7518 -78.7492 -78.7458 -78.7380
   -78.7092 -78.7075 -78.7070 -78.7069 -78.7058 -78.7055 -78.7046 -78.7033
   -78.6863 -78.6838 -78.6826 -78.6811 -78.6806 -78.6802 -78.6795 -78.6790
   -78.6781 -78.6770 -78.6741 -78.6738 -78.6715 -78.6713 -78.6616 -78.6590
   -17.0058 -14.8148 -12.6497 -12.2622 -10.6095  -9.0821  -8.3757  -7.8703
    -6.9622  -6.8916  -6.8719  -6.7017  -6.5973  -6.5966  -6.5822  -6.4846
    -6.4744  -6.4644  -6.4571  -6.4247  -6.3921  -6.3604  -6.3560  -6.2943
    -6.2848  -6.2814  -6.2809  -6.2651  -6.2488  -6.2334  -6.2330  -6.2270
    -6.2175  -6.2174  -6.2045  -6.1916  -6.1916  -6.1779  -6.1755  -6.1755
    -6.1512  -6.1259  -6.1257  -6.1236  -6.1234  -6.1081  -6.1078  -6.1050
    -6.0994  -6.0991  -6.0843  -6.0754  -6.0734  -6.0552  -6.0544  -6.0020
    -5.9872  -5.9817  -5.9807  -5.9696  -5.9607  -5.9591  -5.9581  -5.9548
    -5.9548  -5.9538  -5.9299  -5.9296  -5.9281  -5.9271  -5.9246  -5.9238
    -5.9120  -5.9066  -5.8816  -5.8813  -5.8741  -5.8736  -5.8699  -5.8631
    -5.8628  -5.8509  -5.8417  -5.8291  -5.8290  -5.8158  -5.8151  -5.8076
    -5.8018  -5.8013  -5.7999  -5.7998  -5.7976  -5.7973  -5.7807  -5.7797
    -5.7769  -5.7768  -5.7747  -5.7664  -5.7371  -5.7369  -5.7367  -5.7239
    -5.7220  -5.7141  -5.7128  -5.7030  -5.7029  -5.6870  -5.6819  -5.6811
    -5.6695  -5.6635  -5.6523  -5.6504  -5.6444  -5.6442  -5.6388  -5.6379
    -5.6238  -5.6042  -5.6039  -5.6021  -5.6010  -5.5906  -5.5853  -5.5844
    -5.5834  -5.5782  -5.5781  -5.5683  -5.5591  -5.5520  -5.5508  -5.5490
    -5.5485  -5.5467  -5.5459  -5.5237  -5.5235  -5.5177  -5.5175  -5.5057
    -5.5036  -5.5025  -5.4850  -5.4847  -5.4843  -5.4832  -5.4765  -5.4737
    -5.4736  -5.4714  -5.4712  -5.4708  -5.4682  -5.4654  -5.4604  -5.4476
    -5.4471  -5.4412  -5.4409  -5.4192  -5.4192  -5.4152  -5.4141  -5.4136
    -5.4128  -5.4083  -5.4073  -5.4057  -5.4050  -5.4048  -5.4047  -5.3962
    -5.3959  -5.3863  -5.3852  -5.3816  -5.3754  -5.3679  -5.3647  -5.3647
    -5.3644  -5.3636  -5.3580  -5.3568  -5.3547  -5.3516  -5.3512  -5.3511
    -5.3435  -5.3432  -5.3253  -5.3241  -5.3237  -5.3081  -5.3076  -5.3049
    -5.3030  -5.3010  -5.2912  -5.2905  -5.2904  -5.2891  -5.2885  -5.2855
    -5.2813  -5.2651  -5.2617  -5.2615  -5.2605  -5.2591  -5.2442  -5.2420
    -5.2371  -5.2286  -5.2267  -5.2230  -5.2040  -5.2039  -5.2005  -5.2004
    -5.1909  -5.1877  -5.1872  -5.1785  -5.1770  -5.1767  -5.1697  -5.1696
    -5.1670  -5.1653  -5.1629  -5.1628  -5.1599  -5.1572  -5.1549  -5.1497
    -5.1436  -5.1286  -5.1053  -5.1031  -5.1017  -5.0774  -5.0752  -5.0651
    -5.0567  -5.0229  -5.0072  -4.9993  -4.9982  -4.9809  -4.9377  -4.9227
    -4.7728  -4.3189  -4.2737  -4.2702  -4.2283  -4.2179  -4.1258  -4.0984
    -4.0212  -4.0048  -4.0028  -4.0025  -3.2340  -3.1909  -3.0930  -2.7844
    -2.7840  -2.6538  -2.6536  -2.4518  -2.0639  -2.0561  -1.9371  -1.9174
    -1.7294  -1.5591  -1.5012  -1.3051  -0.8901  -0.6970  -0.6872  -0.6871
    -0.5537  -0.3653  -0.3619  -0.2519  -0.1296  -0.1168  -0.0277  -0.0206
     0.0450   0.2554   0.4860   0.4873   0.6332   0.7938   0.8728   1.0281
     1.0305   1.0386   1.1350   1.1430   1.2441   1.4058   1.4487   1.7649
     2.1046   2.2785   2.2843   2.5304   2.5588   2.5666   2.5765   2.5766
     2.7861   2.9946   3.0014   3.0692   3.0835   3.5242   3.6812   3.7522
     3.9900   4.0788   4.0866   4.2183   4.2704   4.3172   4.3177   4.3851
     4.6542   4.7354   4.7558   4.8839   4.9288   5.0751   5.1663   5.3768
     5.3916   5.4595   5.5030   5.5407   5.6609   5.7081   5.7086   5.7099
     5.7176   6.1154   6.1521   6.2619   6.3206   6.3387   6.3716   6.4159
     6.5350   6.5708   6.5777   6.6146   6.6837   6.7614   6.8250   6.9544
     7.0037   7.0091   7.0321   7.1360   7.1587   7.1643   7.1902   7.1993
     7.2576   7.3017   7.3552   7.3934   7.4310   7.4954   7.5030   7.5133
     7.5170   7.6570   7.6660   7.7522   7.8159   7.8180   7.8372   7.8697
     7.9862   8.0129   8.0757   8.1279   8.1690   8.2042   8.2222   8.2524
     8.2550   8.2883   8.4101   8.5037   8.5941   8.6554   8.6771   8.6912
     8.7403

     occupation numbers 
     1.0000   1.0000   1.0000   1.0000   1.0000   1.0000   1.0000   1.0000
     1.0000   1.0000   1.0000   1.0000   1.0000   1.0000   1.0000   1.0000
     1.0000   1.0000   1.0000   1.0000   1.0000   1.0000   1.0000   1.0000
     1.0000   1.0000   1.0000   1.0000   1.0000   1.0000   1.0000   1.0000
     1.0000   1.0000   1.0000   1.0000   1.0000   1.0000   1.0000   1.0000
     1.0000   1.0000   1.0000   1.0000   1.0000   1.0000   1.0000   1.0000
     1.0000   1.0000   1.0000   1.0000   1.0000   1.0000   1.0000   1.0000
     1.0000   1.0000   1.0000   1.0000   1.0000   1.0000   1.0000   1.0000
     1.0000   1.0000   1.0000   1.0000   1.0000   1.0000   1.0000   1.0000
     1.0000   1.0000   1.0000   1.0000   1.0000   1.0000   1.0000   1.0000
     1.0000   1.0000   1.0000   1.0000   1.0000   1.0000   1.0000   1.0000
     1.0000   1.0000   1.0000   1.0000   1.0000   1.0000   1.0000   1.0000
     1.0000   1.0000   1.0000   1.0000   1.0000   1.0000   1.0000   1.0000
     1.0000   1.0000   1.0000   1.0000   1.0000   1.0000   1.0000   1.0000
     1.0000   1.0000   1.0000   1.0000   1.0000   1.0000   1.0000   1.0000
     1.0000   1.0000   1.0000   1.0000   1.0000   1.0000   1.0000   1.0000
     1.0000   1.0000   1.0000   1.0000   1.0000   1.0000   1.0000   1.0000
     1.0000   1.0000   1.0000   1.0000   1.0000   1.0000   1.0000   1.0000
     1.0000   1.0000   1.0000   1.0000   1.0000   1.0000   1.0000   1.0000
     1.0000   1.0000   1.0000   1.0000   1.0000   1.0000   1.0000   1.0000
     1.0000   1.0000   1.0000   1.0000   1.0000   1.0000   1.0000   1.0000
     1.0000   1.0000   1.0000   1.0000   1.0000   1.0000   1.0000   1.0000
     1.0000   1.0000   1.0000   1.0000   1.0000   1.0000   1.0000   1.0000
     1.0000   1.0000   1.0000   1.0000   1.0000   1.0000   1.0000   1.0000
     1.0000   1.0000   1.0000   1.0000   1.0000   1.0000   1.0000   1.0000
     1.0000   1.0000   1.0000   1.0000   1.0000   1.0000   1.0000   1.0000
     1.0000   1.0000   1.0000   1.0000   1.0000   1.0000   1.0000   1.0000
     1.0000   1.0000   1.0000   1.0000   1.0000   1.0000   1.0000   1.0000
     1.0000   1.0000   1.0000   1.0000   1.0000   1.0000   1.0000   1.0000
     1.0000   1.0000   1.0000   1.0000   1.0000   1.0000   1.0000   1.0000
     1.0000   1.0000   1.0000   1.0000   1.0000   1.0000   1.0000   1.0000
     1.0000   1.0000   1.0000   1.0000   1.0000   1.0000   1.0000   1.0000
     1.0000   1.0000   1.0000   1.0000   1.0000   1.0000   1.0000   1.0000
     1.0000   1.0000   1.0000   1.0000   1.0000   1.0000   1.0000   1.0000
     1.0000   1.0000   1.0000   1.0000   1.0000   1.0000   1.0000   1.0000
     1.0000   1.0000   1.0000   1.0000   1.0000   1.0000   1.0000   1.0000
     1.0000   1.0000   1.0000   1.0000   1.0000   1.0000   1.0000   1.0000
     1.0000   1.0000   1.0000   1.0000   1.0000   1.0000   1.0000   1.0000
     1.0000   1.0000   1.0000   1.0000   1.0000   1.0000   1.0000   1.0000
     1.0000   1.0000   1.0000   1.0000   1.0000   1.0000   1.0000   1.0000
     1.0000   1.0000   1.0000   1.0000   1.0000   1.0000   1.0000   1.0000
     1.0000   1.0000   1.0000   1.0000   1.0000   1.0000   1.0000   1.0000
     1.0000   1.0000   1.0000   1.0000   1.0000   1.0000   1.0000   1.0000
     1.0000   1.0000   1.0000   1.0000   1.0000   1.0000   1.0000   1.0000
     1.0000   1.0000   1.0000   1.0000   1.0000   1.0000   1.0000   1.0000
     1.0000   1.0000   1.0000   1.0000   1.0000   1.0000   1.0000   1.0000
     1.0000   1.0000   1.0000   1.0000   1.0000   1.0000   1.0000   1.0000
     1.0000   1.0000   1.0000   1.0000   1.0000   1.0000   1.0000   1.0000
     1.0000   1.0000   1.0000   1.0000   1.0000   1.0000   1.0000   1.0000
     1.0000   1.0000   1.0000   1.0000   1.0000   1.0000   1.0000   1.0000
     1.0000   1.0000   1.0000   1.0000   1.0000   1.0000   1.0000   1.0000
     1.0000   1.0000   1.0000   1.0000   1.0000   1.0000   1.0000   1.0000
     1.0000   1.0000   1.0000   1.0000   1.0000   1.0000   1.0000   1.0000
     1.0000   1.0000   1.0000   1.0000   1.0000   1.0000   1.0000   1.0000
     1.0000   1.0000   1.0000   1.0000   1.0000   1.0000   1.0000   1.0000
     1.0000   1.0000   1.0000   1.0000   1.0000   1.0000   1.0000   1.0000
     1.0000   1.0000   1.0000   1.0000   1.0000   1.0000   1.0000   1.0000
     1.0000   1.0000   1.0000   1.0000   1.0000   1.0000   1.0000   1.0000
     1.0000   1.0000   1.0000   1.0000   1.0000   1.0000   1.0000   1.0000
     1.0000   1.0000   1.0000   1.0000   1.0000   1.0000   1.0000   1.0000
     1.0000   1.0000   1.0000   1.0000   1.0000   1.0000   1.0000   1.0000
     1.0000   1.0000   1.0000   1.0000   1.0004   1.0058   1.0155   1.0592
     1.0600   1.0628   1.0833   1.0831   1.0303   0.7079   0.5901   0.0414
     0.0001   0.0000   0.0000   0.0000   0.0000   0.0000   0.0000   0.0000
     0.0000   0.0000   0.0000   0.0000   0.0000   0.0000   0.0000   0.0000
     0.0000   0.0000   0.0000   0.0000   0.0000   0.0000   0.0000   0.0000
     0.0000   0.0000   0.0000   0.0000   0.0000   0.0000   0.0000   0.0000
     0.0000   0.0000   0.0000   0.0000   0.0000   0.0000   0.0000   0.0000
     0.0000   0.0000   0.0000   0.0000   0.0000   0.0000   0.0000   0.0000
     0.0000   0.0000   0.0000   0.0000   0.0000   0.0000   0.0000   0.0000
     0.0000   0.0000   0.0000   0.0000   0.0000   0.0000   0.0000   0.0000
     0.0000   0.0000   0.0000   0.0000   0.0000   0.0000   0.0000   0.0000
     0.0000   0.0000   0.0000   0.0000   0.0000   0.0000   0.0000   0.0000
     0.0000   0.0000   0.0000   0.0000   0.0000   0.0000   0.0000   0.0000
     0.0000   0.0000   0.0000   0.0000   0.0000   0.0000   0.0000   0.0000
     0.0000

          k = 0.0000 0.3107 0.1794 ( 67822 PWs)   bands (ev):

  -124.8810-124.8804-124.8796-124.8790-124.8696-124.8690-124.8683-124.8677
  -124.7263-124.7251-124.7245-124.7233-124.7207-124.7167-124.7155-124.7148
  -124.7135-124.6995-124.6983-124.6914-124.6828-124.6824-124.6816-124.6811
  -124.6455-124.6448-124.6442-124.6429-124.6411-124.6407-124.6398-124.6395
  -124.6202-124.6141-124.6125-124.6113-124.6105-124.6066-124.6054-124.6036
  -124.5343-124.5329-124.5322-124.5319-124.5312-124.5307-124.5297-124.5286
   -79.0375 -79.0365 -79.0359 -79.0348 -79.0342 -79.0328 -79.0299 -79.0291
   -79.0282 -79.0275 -79.0260 -79.0253 -79.0247 -79.0237 -79.0231 -79.0214
   -79.0204 -79.0186 -79.0179 -79.0170 -79.0163 -79.0158 -79.0090 -79.0044
   -78.8882 -78.8858 -78.8846 -78.8841 -78.8829 -78.8821 -78.8808 -78.8800
   -78.8788 -78.8773 -78.8761 -78.8750 -78.8743 -78.8729 -78.8728 -78.8726
   -78.8717 -78.8707 -78.8693 -78.8680 -78.8676 -78.8650 -78.8638 -78.8629
   -78.8625 -78.8604 -78.8558 -78.8553 -78.8508 -78.8498 -78.8469 -78.8465
   -78.8461 -78.8457 -78.8452 -78.8451 -78.8440 -78.8417 -78.8385 -78.8378
   -78.8340 -78.8312 -78.8296 -78.8291 -78.8280 -78.8275 -78.8216 -78.8171
   -78.8056 -78.8048 -78.8043 -78.8028 -78.8027 -78.8012 -78.8008 -78.7999
   -78.7994 -78.7984 -78.7981 -78.7942 -78.7939 -78.7935 -78.7928 -78.7915
   -78.7900 -78.7896 -78.7886 -78.7882 -78.7859 -78.7817 -78.7816 -78.7813
   -78.7771 -78.7753 -78.7737 -78.7722 -78.7721 -78.7714 -78.7705 -78.7681
   -78.7669 -78.7658 -78.7649 -78.7644 -78.7642 -78.7634 -78.7619 -78.7617
   -78.7582 -78.7571 -78.7565 -78.7557 -78.7526 -78.7471 -78.7445 -78.7395
   -78.7092 -78.7076 -78.7069 -78.7069 -78.7058 -78.7055 -78.7045 -78.7033
   -78.6847 -78.6826 -78.6822 -78.6812 -78.6805 -78.6802 -78.6801 -78.6795
   -78.6790 -78.6781 -78.6775 -78.6770 -78.6679 -78.6653 -78.6632 -78.6606
   -17.0058 -14.8148 -12.6497 -12.2622 -10.6095  -9.0821  -8.3756  -7.7105
    -7.2500  -6.9561  -6.8717  -6.7649  -6.5960  -6.4954  -6.4390  -6.4277
    -6.4079  -6.3978  -6.3922  -6.3687  -6.3592  -6.3574  -6.3433  -6.3338
    -6.3022  -6.2864  -6.2813  -6.2710  -6.2678  -6.2661  -6.2614  -6.2542
    -6.2478  -6.2348  -6.2297  -6.2123  -6.2046  -6.1970  -6.1937  -6.1919
    -6.1734  -6.1729  -6.1577  -6.1480  -6.1214  -6.1157  -6.1077  -6.0974
    -6.0854  -6.0795  -6.0654  -6.0609  -6.0538  -6.0493  -6.0387  -6.0306
    -6.0164  -6.0162  -6.0159  -5.9827  -5.9778  -5.9724  -5.9704  -5.9542
    -5.9468  -5.9444  -5.9426  -5.9392  -5.9327  -5.9255  -5.9252  -5.9194
    -5.9169  -5.8939  -5.8912  -5.8904  -5.8854  -5.8825  -5.8798  -5.8680
    -5.8534  -5.8484  -5.8480  -5.8431  -5.8402  -5.8292  -5.8245  -5.8168
    -5.8122  -5.8029  -5.7983  -5.7973  -5.7972  -5.7944  -5.7870  -5.7796
    -5.7769  -5.7767  -5.7697  -5.7676  -5.7625  -5.7583  -5.7555  -5.7524
    -5.7496  -5.7489  -5.7387  -5.7298  -5.7260  -5.7191  -5.7158  -5.7094
    -5.7086  -5.6967  -5.6918  -5.6893  -5.6820  -5.6766  -5.6654  -5.6603
    -5.6536  -5.6448  -5.6424  -5.6346  -5.6323  -5.6264  -5.6235  -5.6182
    -5.5957  -5.5887  -5.5799  -5.5752  -5.5688  -5.5660  -5.5633  -5.5610
    -5.5479  -5.5412  -5.5302  -5.5293  -5.5260  -5.5077  -5.5029  -5.4940
    -5.4936  -5.4913  -5.4856  -5.4821  -5.4806  -5.4804  -5.4783  -5.4755
    -5.4732  -5.4686  -5.4678  -5.4561  -5.4499  -5.4495  -5.4426  -5.4398
    -5.4378  -5.4212  -5.4161  -5.4147  -5.4127  -5.4124  -5.4097  -5.4028
    -5.3933  -5.3824  -5.3820  -5.3774  -5.3703  -5.3699  -5.3644  -5.3633
    -5.3618  -5.3600  -5.3595  -5.3575  -5.3550  -5.3464  -5.3416  -5.3406
    -5.3371  -5.3332  -5.3328  -5.3279  -5.3180  -5.3171  -5.3112  -5.3099
    -5.3094  -5.2966  -5.2961  -5.2927  -5.2914  -5.2852  -5.2844  -5.2839
    -5.2831  -5.2822  -5.2804  -5.2782  -5.2701  -5.2682  -5.2647  -5.2545
    -5.2498  -5.2464  -5.2393  -5.2347  -5.2322  -5.2316  -5.2315  -5.2305
    -5.2288  -5.2255  -5.2230  -5.2203  -5.2155  -5.2078  -5.2012  -5.2008
    -5.1998  -5.1988  -5.1951  -5.1881  -5.1814  -5.1777  -5.1685  -5.1635
    -5.1594  -5.1578  -5.1576  -5.1464  -5.1377  -5.1375  -5.1364  -5.1343
    -5.1254  -5.1208  -5.1188  -5.1167  -5.1104  -5.0713  -5.0586  -5.0511
    -5.0496  -5.0282  -5.0250  -5.0213  -5.0065  -4.9902  -4.9805  -4.7846
    -4.7655  -4.7574  -4.6349  -4.6309  -4.3029  -4.0983  -4.0055  -3.9627
    -3.8564  -3.5114  -3.3989  -3.3551  -3.2895  -3.2387  -3.2262  -3.0926
    -3.0692  -2.9818  -2.7050  -2.4494  -1.9969  -1.9332  -1.8077  -1.7910
    -1.7472  -1.5955  -1.5806  -1.5706  -1.3928  -1.2913  -1.1075  -1.0803
    -0.6491  -0.5424  -0.4302  -0.2436  -0.1373  -0.1293  -0.1126   0.0214
     0.2446   0.2932   0.3440   0.5674   0.6282   1.0057   1.1720   1.2351
     1.2880   1.3044   1.3843   1.5823   1.6024   1.6193   1.6284   1.9864
     2.1471   2.1737   2.2106   2.3169   2.5517   2.7665   2.8991   2.9218
     2.9267   2.9389   3.2501   3.3683   3.3799   3.6612   3.7734   3.8162
     3.8500   3.8805   3.9783   4.0750   4.1149   4.2592   4.3409   4.4297
     4.5586   4.6900   4.7475   4.8620   4.9121   4.9237   5.0419   5.1738
     5.2099   5.3021   5.3887   5.4241   5.5311   5.5624   5.5717   5.6525
     5.7246   5.7352   5.7447   5.7984   5.8155   5.9498   6.0798   6.1425
     6.1714   6.3060   6.3801   6.5097   6.6002   6.6331   6.6375   6.7235
     6.7623   6.8826   7.0181   7.0351   7.0686   7.1073   7.1293   7.1903
     7.2278   7.2936   7.3411   7.3713   7.4079   7.4323   7.4955   7.5134
     7.5994   7.6089   7.6763   7.8029   7.8866   7.9809   8.0351   8.0603
     8.1080   8.1190   8.1604   8.2158   8.2881   8.3250   8.3778   8.4001
     8.4342   8.4883   8.5235   8.5301   8.5911   8.6827   8.7207   8.7538
     8.7761

     occupation numbers 
     1.0000   1.0000   1.0000   1.0000   1.0000   1.0000   1.0000   1.0000
     1.0000   1.0000   1.0000   1.0000   1.0000   1.0000   1.0000   1.0000
     1.0000   1.0000   1.0000   1.0000   1.0000   1.0000   1.0000   1.0000
     1.0000   1.0000   1.0000   1.0000   1.0000   1.0000   1.0000   1.0000
     1.0000   1.0000   1.0000   1.0000   1.0000   1.0000   1.0000   1.0000
     1.0000   1.0000   1.0000   1.0000   1.0000   1.0000   1.0000   1.0000
     1.0000   1.0000   1.0000   1.0000   1.0000   1.0000   1.0000   1.0000
     1.0000   1.0000   1.0000   1.0000   1.0000   1.0000   1.0000   1.0000
     1.0000   1.0000   1.0000   1.0000   1.0000   1.0000   1.0000   1.0000
     1.0000   1.0000   1.0000   1.0000   1.0000   1.0000   1.0000   1.0000
     1.0000   1.0000   1.0000   1.0000   1.0000   1.0000   1.0000   1.0000
     1.0000   1.0000   1.0000   1.0000   1.0000   1.0000   1.0000   1.0000
     1.0000   1.0000   1.0000   1.0000   1.0000   1.0000   1.0000   1.0000
     1.0000   1.0000   1.0000   1.0000   1.0000   1.0000   1.0000   1.0000
     1.0000   1.0000   1.0000   1.0000   1.0000   1.0000   1.0000   1.0000
     1.0000   1.0000   1.0000   1.0000   1.0000   1.0000   1.0000   1.0000
     1.0000   1.0000   1.0000   1.0000   1.0000   1.0000   1.0000   1.0000
     1.0000   1.0000   1.0000   1.0000   1.0000   1.0000   1.0000   1.0000
     1.0000   1.0000   1.0000   1.0000   1.0000   1.0000   1.0000   1.0000
     1.0000   1.0000   1.0000   1.0000   1.0000   1.0000   1.0000   1.0000
     1.0000   1.0000   1.0000   1.0000   1.0000   1.0000   1.0000   1.0000
     1.0000   1.0000   1.0000   1.0000   1.0000   1.0000   1.0000   1.0000
     1.0000   1.0000   1.0000   1.0000   1.0000   1.0000   1.0000   1.0000
     1.0000   1.0000   1.0000   1.0000   1.0000   1.0000   1.0000   1.0000
     1.0000   1.0000   1.0000   1.0000   1.0000   1.0000   1.0000   1.0000
     1.0000   1.0000   1.0000   1.0000   1.0000   1.0000   1.0000   1.0000
     1.0000   1.0000   1.0000   1.0000   1.0000   1.0000   1.0000   1.0000
     1.0000   1.0000   1.0000   1.0000   1.0000   1.0000   1.0000   1.0000
     1.0000   1.0000   1.0000   1.0000   1.0000   1.0000   1.0000   1.0000
     1.0000   1.0000   1.0000   1.0000   1.0000   1.0000   1.0000   1.0000
     1.0000   1.0000   1.0000   1.0000   1.0000   1.0000   1.0000   1.0000
     1.0000   1.0000   1.0000   1.0000   1.0000   1.0000   1.0000   1.0000
     1.0000   1.0000   1.0000   1.0000   1.0000   1.0000   1.0000   1.0000
     1.0000   1.0000   1.0000   1.0000   1.0000   1.0000   1.0000   1.0000
     1.0000   1.0000   1.0000   1.0000   1.0000   1.0000   1.0000   1.0000
     1.0000   1.0000   1.0000   1.0000   1.0000   1.0000   1.0000   1.0000
     1.0000   1.0000   1.0000   1.0000   1.0000   1.0000   1.0000   1.0000
     1.0000   1.0000   1.0000   1.0000   1.0000   1.0000   1.0000   1.0000
     1.0000   1.0000   1.0000   1.0000   1.0000   1.0000   1.0000   1.0000
     1.0000   1.0000   1.0000   1.0000   1.0000   1.0000   1.0000   1.0000
     1.0000   1.0000   1.0000   1.0000   1.0000   1.0000   1.0000   1.0000
     1.0000   1.0000   1.0000   1.0000   1.0000   1.0000   1.0000   1.0000
     1.0000   1.0000   1.0000   1.0000   1.0000   1.0000   1.0000   1.0000
     1.0000   1.0000   1.0000   1.0000   1.0000   1.0000   1.0000   1.0000
     1.0000   1.0000   1.0000   1.0000   1.0000   1.0000   1.0000   1.0000
     1.0000   1.0000   1.0000   1.0000   1.0000   1.0000   1.0000   1.0000
     1.0000   1.0000   1.0000   1.0000   1.0000   1.0000   1.0000   1.0000
     1.0000   1.0000   1.0000   1.0000   1.0000   1.0000   1.0000   1.0000
     1.0000   1.0000   1.0000   1.0000   1.0000   1.0000   1.0000   1.0000
     1.0000   1.0000   1.0000   1.0000   1.0000   1.0000   1.0000   1.0000
     1.0000   1.0000   1.0000   1.0000   1.0000   1.0000   1.0000   1.0000
     1.0000   1.0000   1.0000   1.0000   1.0000   1.0000   1.0000   1.0000
     1.0000   1.0000   1.0000   1.0000   1.0000   1.0000   1.0000   1.0000
     1.0000   1.0000   1.0000   1.0000   1.0000   1.0000   1.0000   1.0000
     1.0000   1.0000   1.0000   1.0000   1.0000   1.0000   1.0000   1.0000
     1.0000   1.0000   1.0000   1.0000   1.0000   1.0000   1.0000   1.0000
     1.0000   1.0000   1.0000   1.0000   1.0000   1.0000   1.0000   1.0000
     1.0000   1.0000   1.0000   1.0000   1.0000   1.0000   1.0000   1.0000
     1.0000   1.0000   1.0000   1.0000   1.0000   1.0000   1.0000   1.0000
     1.0000   1.0000   1.0000   1.0000   1.0000   1.0000   1.0000   1.0000
     1.0000   1.0000   1.0000   1.0000   1.0000   1.0000   1.0000   1.0000
     1.0000   1.0000   1.0000   1.0001   1.0004   1.0515   1.0782   1.0395
     0.9712   0.9430   0.7646   0.2578   0.2194   0.1903   0.1756   0.0014
     0.0001   0.0000   0.0000   0.0000   0.0000   0.0000   0.0000   0.0000
     0.0000   0.0000   0.0000   0.0000   0.0000   0.0000   0.0000   0.0000
     0.0000   0.0000   0.0000   0.0000   0.0000   0.0000   0.0000   0.0000
     0.0000   0.0000   0.0000   0.0000   0.0000   0.0000   0.0000   0.0000
     0.0000   0.0000   0.0000   0.0000   0.0000   0.0000   0.0000   0.0000
     0.0000   0.0000   0.0000   0.0000   0.0000   0.0000   0.0000   0.0000
     0.0000   0.0000   0.0000   0.0000   0.0000   0.0000   0.0000   0.0000
     0.0000   0.0000   0.0000   0.0000   0.0000   0.0000   0.0000   0.0000
     0.0000   0.0000   0.0000   0.0000   0.0000   0.0000   0.0000   0.0000
     0.0000   0.0000   0.0000   0.0000   0.0000   0.0000   0.0000   0.0000
     0.0000   0.0000   0.0000   0.0000   0.0000   0.0000   0.0000   0.0000
     0.0000   0.0000   0.0000   0.0000   0.0000   0.0000   0.0000   0.0000
     0.0000

          k = 0.3333 0.0000 0.0000 ( 67745 PWs)   bands (ev):

  -124.8810-124.8802-124.8798-124.8789-124.8697-124.8688-124.8685-124.8676
  -124.7263-124.7250-124.7247-124.7233-124.7207-124.7167-124.7155-124.7149
  -124.7134-124.6995-124.6983-124.6914-124.6829-124.6821-124.6819-124.6810
  -124.6455-124.6447-124.6444-124.6429-124.6412-124.6405-124.6400-124.6394
  -124.6202-124.6141-124.6125-124.6113-124.6105-124.6066-124.6054-124.6036
  -124.5344-124.5328-124.5323-124.5319-124.5312-124.5306-124.5298-124.5286
   -79.0391 -79.0366 -79.0354 -79.0353 -79.0341 -79.0299 -79.0289 -79.0285
   -79.0277 -79.0274 -79.0267 -79.0266 -79.0254 -79.0243 -79.0241 -79.0230
   -79.0186 -79.0176 -79.0173 -79.0162 -79.0152 -79.0152 -79.0141 -79.0027
   -78.8882 -78.8858 -78.8845 -78.8842 -78.8829 -78.8821 -78.8807 -78.8802
   -78.8789 -78.8788 -78.8761 -78.8749 -78.8744 -78.8729 -78.8728 -78.8716
   -78.8708 -78.8693 -78.8692 -78.8682 -78.8666 -78.8665 -78.8650 -78.8638
   -78.8625 -78.8570 -78.8567 -78.8553 -78.8542 -78.8475 -78.8470 -78.8462
   -78.8460 -78.8451 -78.8451 -78.8445 -78.8443 -78.8440 -78.8402 -78.8378
   -78.8306 -78.8297 -78.8287 -78.8284 -78.8279 -78.8277 -78.8274 -78.8154
   -78.8056 -78.8046 -78.8044 -78.8043 -78.8028 -78.8013 -78.8006 -78.8001
   -78.8001 -78.7994 -78.7943 -78.7933 -78.7930 -78.7923 -78.7917 -78.7915
   -78.7902 -78.7893 -78.7889 -78.7881 -78.7880 -78.7876 -78.7817 -78.7797
   -78.7755 -78.7753 -78.7737 -78.7722 -78.7721 -78.7717 -78.7714 -78.7681
   -78.7669 -78.7658 -78.7649 -78.7643 -78.7634 -78.7632 -78.7619 -78.7600
   -78.7582 -78.7571 -78.7569 -78.7557 -78.7518 -78.7492 -78.7458 -78.7380
   -78.7092 -78.7075 -78.7070 -78.7069 -78.7058 -78.7055 -78.7046 -78.7033
   -78.6863 -78.6838 -78.6826 -78.6811 -78.6806 -78.6803 -78.6795 -78.6790
   -78.6781 -78.6770 -78.6741 -78.6738 -78.6715 -78.6713 -78.6616 -78.6590
   -17.0058 -14.8148 -12.6497 -12.2622 -10.6095  -9.0821  -8.3756  -7.7031
    -7.2532  -6.9555  -6.8720  -6.6203  -6.5427  -6.5344  -6.5214  -6.5208
    -6.4635  -6.4404  -6.4361  -6.4064  -6.3824  -6.3678  -6.3595  -6.3592
    -6.3427  -6.3236  -6.3052  -6.2828  -6.2665  -6.2641  -6.2351  -6.2146
    -6.2010  -6.1967  -6.1964  -6.1957  -6.1892  -6.1891  -6.1655  -6.1653
    -6.1517  -6.1495  -6.1387  -6.1385  -6.1300  -6.1236  -6.1234  -6.1077
    -6.1075  -6.1069  -6.0899  -6.0628  -6.0626  -6.0441  -6.0434  -6.0153
    -6.0040  -6.0013  -5.9983  -5.9960  -5.9955  -5.9949  -5.9871  -5.9747
    -5.9683  -5.9645  -5.9642  -5.9475  -5.9470  -5.9298  -5.9295  -5.9263
    -5.9064  -5.9063  -5.9007  -5.9005  -5.8807  -5.8801  -5.8762  -5.8714
    -5.8571  -5.8412  -5.8340  -5.8339  -5.8180  -5.8175  -5.8118  -5.8091
    -5.8017  -5.8014  -5.7942  -5.7909  -5.7866  -5.7864  -5.7680  -5.7602
    -5.7600  -5.7560  -5.7556  -5.7445  -5.7444  -5.7393  -5.7258  -5.7192
    -5.7174  -5.7170  -5.7151  -5.7149  -5.6826  -5.6806  -5.6764  -5.6760
    -5.6716  -5.6489  -5.6307  -5.6266  -5.6229  -5.6226  -5.6160  -5.6148
    -5.6019  -5.5982  -5.5977  -5.5962  -5.5960  -5.5905  -5.5871  -5.5870
    -5.5825  -5.5700  -5.5689  -5.5688  -5.5619  -5.5594  -5.5590  -5.5573
    -5.5571  -5.5414  -5.5413  -5.5281  -5.5280  -5.5171  -5.5158  -5.5127
    -5.5078  -5.4938  -5.4924  -5.4856  -5.4756  -5.4751  -5.4722  -5.4719
    -5.4711  -5.4610  -5.4609  -5.4555  -5.4417  -5.4416  -5.4344  -5.4301
    -5.4298  -5.4286  -5.4285  -5.4267  -5.4128  -5.4125  -5.4063  -5.4063
    -5.4003  -5.3993  -5.3971  -5.3965  -5.3958  -5.3954  -5.3942  -5.3927
    -5.3910  -5.3908  -5.3898  -5.3848  -5.3689  -5.3668  -5.3665  -5.3632
    -5.3621  -5.3560  -5.3551  -5.3546  -5.3542  -5.3483  -5.3420  -5.3295
    -5.3290  -5.3234  -5.3232  -5.3219  -5.3168  -5.3156  -5.3092  -5.3084
    -5.3019  -5.2975  -5.2958  -5.2949  -5.2899  -5.2891  -5.2824  -5.2787
    -5.2786  -5.2671  -5.2640  -5.2593  -5.2522  -5.2516  -5.2445  -5.2435
    -5.2390  -5.2317  -5.2251  -5.2247  -5.2200  -5.2198  -5.2178  -5.2124
    -5.2071  -5.2036  -5.2018  -5.1964  -5.1891  -5.1889  -5.1829  -5.1735
    -5.1672  -5.1488  -5.1466  -5.1464  -5.1326  -5.1325  -5.1320  -5.1316
    -5.1286  -5.1244  -5.1141  -5.1090  -5.0885  -5.0602  -5.0548  -5.0401
    -5.0340  -5.0331  -5.0219  -5.0064  -4.9965  -4.9900  -4.9570  -4.9558
    -4.9464  -4.8284  -4.7710  -4.3117  -4.2961  -4.0988  -4.0905  -4.0857
    -4.0049  -3.6110  -3.6091  -3.2345  -3.0934  -3.0853  -2.9538  -2.8746
    -2.8743  -2.6776  -2.5062  -2.4456  -1.9476  -1.9216  -1.9097  -1.6127
    -1.6105  -1.4268  -1.3487  -1.3217  -1.2442  -1.2200  -1.2190  -1.2065
    -1.1953  -1.0172  -0.8632  -0.6769  -0.1295  -0.1017   0.0091   0.1751
     0.1872   0.1878   0.3473   0.4897   0.5254   0.6926   0.6948   0.8908
     1.0255   1.1408   1.2587   1.5421   1.5481   1.7100   1.7678   2.0469
     2.1651   2.1758   2.3994   2.4015   2.5333   3.0114   3.0257   3.0390
     3.1003   3.1834   3.1835   3.2986   3.3250   3.3400   3.4211   3.8319
     4.1171   4.1311   4.4098   4.4325   4.4474   4.4909   4.6343   4.6446
     4.6596   4.6652   4.8877   5.0004   5.0952   5.1189   5.1835   5.2097
     5.3103   5.3852   5.4396   5.6289   5.7502   5.8374   5.8376   5.8453
     5.8458   5.9147   5.9320   6.0364   6.0489   6.0666   6.1942   6.3255
     6.3808   6.3868   6.4203   6.4585   6.5321   6.5697   6.5977   6.6535
     6.7170   6.7616   6.7700   6.8039   6.8817   6.9007   6.9906   7.0410
     7.1165   7.1756   7.2919   7.3365   7.3596   7.3810   7.4203   7.4330
     7.4347   7.4496   7.4823   7.5437   7.5928   7.7078   7.7592   7.8608
     7.9204   7.9612   7.9718   7.9847   8.1534   8.1976   8.2161   8.2752
     8.3278   8.3708   8.3981   8.5328   8.5769   8.5830   8.6024   8.6479
     8.6894

     occupation numbers 
     1.0000   1.0000   1.0000   1.0000   1.0000   1.0000   1.0000   1.0000
     1.0000   1.0000   1.0000   1.0000   1.0000   1.0000   1.0000   1.0000
     1.0000   1.0000   1.0000   1.0000   1.0000   1.0000   1.0000   1.0000
     1.0000   1.0000   1.0000   1.0000   1.0000   1.0000   1.0000   1.0000
     1.0000   1.0000   1.0000   1.0000   1.0000   1.0000   1.0000   1.0000
     1.0000   1.0000   1.0000   1.0000   1.0000   1.0000   1.0000   1.0000
     1.0000   1.0000   1.0000   1.0000   1.0000   1.0000   1.0000   1.0000
     1.0000   1.0000   1.0000   1.0000   1.0000   1.0000   1.0000   1.0000
     1.0000   1.0000   1.0000   1.0000   1.0000   1.0000   1.0000   1.0000
     1.0000   1.0000   1.0000   1.0000   1.0000   1.0000   1.0000   1.0000
     1.0000   1.0000   1.0000   1.0000   1.0000   1.0000   1.0000   1.0000
     1.0000   1.0000   1.0000   1.0000   1.0000   1.0000   1.0000   1.0000
     1.0000   1.0000   1.0000   1.0000   1.0000   1.0000   1.0000   1.0000
     1.0000   1.0000   1.0000   1.0000   1.0000   1.0000   1.0000   1.0000
     1.0000   1.0000   1.0000   1.0000   1.0000   1.0000   1.0000   1.0000
     1.0000   1.0000   1.0000   1.0000   1.0000   1.0000   1.0000   1.0000
     1.0000   1.0000   1.0000   1.0000   1.0000   1.0000   1.0000   1.0000
     1.0000   1.0000   1.0000   1.0000   1.0000   1.0000   1.0000   1.0000
     1.0000   1.0000   1.0000   1.0000   1.0000   1.0000   1.0000   1.0000
     1.0000   1.0000   1.0000   1.0000   1.0000   1.0000   1.0000   1.0000
     1.0000   1.0000   1.0000   1.0000   1.0000   1.0000   1.0000   1.0000
     1.0000   1.0000   1.0000   1.0000   1.0000   1.0000   1.0000   1.0000
     1.0000   1.0000   1.0000   1.0000   1.0000   1.0000   1.0000   1.0000
     1.0000   1.0000   1.0000   1.0000   1.0000   1.0000   1.0000   1.0000
     1.0000   1.0000   1.0000   1.0000   1.0000   1.0000   1.0000   1.0000
     1.0000   1.0000   1.0000   1.0000   1.0000   1.0000   1.0000   1.0000
     1.0000   1.0000   1.0000   1.0000   1.0000   1.0000   1.0000   1.0000
     1.0000   1.0000   1.0000   1.0000   1.0000   1.0000   1.0000   1.0000
     1.0000   1.0000   1.0000   1.0000   1.0000   1.0000   1.0000   1.0000
     1.0000   1.0000   1.0000   1.0000   1.0000   1.0000   1.0000   1.0000
     1.0000   1.0000   1.0000   1.0000   1.0000   1.0000   1.0000   1.0000
     1.0000   1.0000   1.0000   1.0000   1.0000   1.0000   1.0000   1.0000
     1.0000   1.0000   1.0000   1.0000   1.0000   1.0000   1.0000   1.0000
     1.0000   1.0000   1.0000   1.0000   1.0000   1.0000   1.0000   1.0000
     1.0000   1.0000   1.0000   1.0000   1.0000   1.0000   1.0000   1.0000
     1.0000   1.0000   1.0000   1.0000   1.0000   1.0000   1.0000   1.0000
     1.0000   1.0000   1.0000   1.0000   1.0000   1.0000   1.0000   1.0000
     1.0000   1.0000   1.0000   1.0000   1.0000   1.0000   1.0000   1.0000
     1.0000   1.0000   1.0000   1.0000   1.0000   1.0000   1.0000   1.0000
     1.0000   1.0000   1.0000   1.0000   1.0000   1.0000   1.0000   1.0000
     1.0000   1.0000   1.0000   1.0000   1.0000   1.0000   1.0000   1.0000
     1.0000   1.0000   1.0000   1.0000   1.0000   1.0000   1.0000   1.0000
     1.0000   1.0000   1.0000   1.0000   1.0000   1.0000   1.0000   1.0000
     1.0000   1.0000   1.0000   1.0000   1.0000   1.0000   1.0000   1.0000
     1.0000   1.0000   1.0000   1.0000   1.0000   1.0000   1.0000   1.0000
     1.0000   1.0000   1.0000   1.0000   1.0000   1.0000   1.0000   1.0000
     1.0000   1.0000   1.0000   1.0000   1.0000   1.0000   1.0000   1.0000
     1.0000   1.0000   1.0000   1.0000   1.0000   1.0000   1.0000   1.0000
     1.0000   1.0000   1.0000   1.0000   1.0000   1.0000   1.0000   1.0000
     1.0000   1.0000   1.0000   1.0000   1.0000   1.0000   1.0000   1.0000
     1.0000   1.0000   1.0000   1.0000   1.0000   1.0000   1.0000   1.0000
     1.0000   1.0000   1.0000   1.0000   1.0000   1.0000   1.0000   1.0000
     1.0000   1.0000   1.0000   1.0000   1.0000   1.0000   1.0000   1.0000
     1.0000   1.0000   1.0000   1.0000   1.0000   1.0000   1.0000   1.0000
     1.0000   1.0000   1.0000   1.0000   1.0000   1.0000   1.0000   1.0000
     1.0000   1.0000   1.0000   1.0000   1.0000   1.0000   1.0000   1.0000
     1.0000   1.0000   1.0000   1.0000   1.0000   1.0000   1.0000   1.0000
     1.0000   1.0000   1.0000   1.0000   1.0000   1.0000   1.0000   1.0000
     1.0000   1.0000   1.0000   1.0000   1.0000   1.0000   1.0000   1.0000
     1.0000   1.0000   1.0000   1.0000   1.0000   1.0000   1.0000   1.0000
     1.0000   1.0000   1.0000   1.0000   1.0000   1.0000   1.0000   1.0000
     1.0000   1.0000   1.0000   1.0000   1.0001   1.0013   1.0013   1.0189
     1.0583   1.0832   1.0133   0.3454   0.3314   0.0783   0.0399   0.0005
     0.0000   0.0000   0.0000   0.0000   0.0000   0.0000   0.0000   0.0000
     0.0000   0.0000   0.0000   0.0000   0.0000   0.0000   0.0000   0.0000
     0.0000   0.0000   0.0000   0.0000   0.0000   0.0000   0.0000   0.0000
     0.0000   0.0000   0.0000   0.0000   0.0000   0.0000   0.0000   0.0000
     0.0000   0.0000   0.0000   0.0000   0.0000   0.0000   0.0000   0.0000
     0.0000   0.0000   0.0000   0.0000   0.0000   0.0000   0.0000   0.0000
     0.0000   0.0000   0.0000   0.0000   0.0000   0.0000   0.0000   0.0000
     0.0000   0.0000   0.0000   0.0000   0.0000   0.0000   0.0000   0.0000
     0.0000   0.0000   0.0000   0.0000   0.0000   0.0000   0.0000   0.0000
     0.0000   0.0000   0.0000   0.0000   0.0000   0.0000   0.0000   0.0000
     0.0000   0.0000   0.0000   0.0000   0.0000   0.0000   0.0000   0.0000
     0.0000   0.0000   0.0000   0.0000   0.0000   0.0000   0.0000   0.0000
     0.0000

          k = 0.3333 0.3107 0.1794 ( 67762 PWs)   bands (ev):

  -124.8810-124.8804-124.8796-124.8790-124.8696-124.8690-124.8683-124.8677
  -124.7263-124.7251-124.7245-124.7233-124.7207-124.7167-124.7155-124.7148
  -124.7135-124.6995-124.6983-124.6914-124.6828-124.6824-124.6816-124.6811
  -124.6455-124.6448-124.6442-124.6429-124.6411-124.6407-124.6398-124.6395
  -124.6202-124.6141-124.6125-124.6113-124.6105-124.6066-124.6054-124.6036
  -124.5343-124.5329-124.5322-124.5319-124.5312-124.5307-124.5297-124.5286
   -79.0375 -79.0365 -79.0359 -79.0348 -79.0342 -79.0328 -79.0298 -79.0291
   -79.0282 -79.0275 -79.0260 -79.0253 -79.0247 -79.0237 -79.0231 -79.0214
   -79.0204 -79.0186 -79.0179 -79.0170 -79.0163 -79.0158 -79.0090 -79.0044
   -78.8882 -78.8858 -78.8846 -78.8841 -78.8829 -78.8821 -78.8808 -78.8800
   -78.8788 -78.8773 -78.8761 -78.8750 -78.8743 -78.8729 -78.8728 -78.8726
   -78.8717 -78.8707 -78.8693 -78.8680 -78.8676 -78.8650 -78.8638 -78.8629
   -78.8625 -78.8604 -78.8558 -78.8553 -78.8508 -78.8498 -78.8469 -78.8465
   -78.8461 -78.8457 -78.8452 -78.8451 -78.8440 -78.8417 -78.8385 -78.8378
   -78.8340 -78.8312 -78.8296 -78.8291 -78.8280 -78.8275 -78.8216 -78.8171
   -78.8056 -78.8048 -78.8043 -78.8028 -78.8027 -78.8012 -78.8008 -78.7999
   -78.7994 -78.7984 -78.7981 -78.7942 -78.7939 -78.7935 -78.7928 -78.7915
   -78.7900 -78.7896 -78.7886 -78.7882 -78.7859 -78.7817 -78.7816 -78.7813
   -78.7771 -78.7753 -78.7737 -78.7722 -78.7721 -78.7714 -78.7705 -78.7681
   -78.7669 -78.7658 -78.7649 -78.7643 -78.7642 -78.7634 -78.7619 -78.7617
   -78.7582 -78.7571 -78.7565 -78.7557 -78.7526 -78.7471 -78.7445 -78.7395
   -78.7092 -78.7076 -78.7069 -78.7069 -78.7058 -78.7055 -78.7045 -78.7033
   -78.6847 -78.6826 -78.6822 -78.6812 -78.6805 -78.6802 -78.6801 -78.6795
   -78.6790 -78.6781 -78.6775 -78.6770 -78.6679 -78.6653 -78.6632 -78.6606
   -17.0058 -14.8148 -12.6497 -12.2622 -10.6095  -9.0821  -8.3755  -7.5456
    -7.1064  -7.0983  -6.9513  -6.8719  -6.7044  -6.5342  -6.4574  -6.4469
    -6.4063  -6.3850  -6.3750  -6.3659  -6.3577  -6.3397  -6.3363  -6.2968
    -6.2961  -6.2890  -6.2782  -6.2727  -6.2709  -6.2700  -6.2642  -6.2597
    -6.2464  -6.2390  -6.2350  -6.2297  -6.2111  -6.2107  -6.1910  -6.1868
    -6.1829  -6.1728  -6.1695  -6.1484  -6.1476  -6.1363  -6.1326  -6.1274
    -6.1142  -6.1018  -6.0735  -6.0689  -6.0680  -6.0658  -6.0650  -6.0379
    -6.0268  -6.0052  -6.0022  -5.9984  -5.9937  -5.9826  -5.9801  -5.9715
    -5.9706  -5.9678  -5.9569  -5.9493  -5.9477  -5.9473  -5.9316  -5.9261
    -5.9226  -5.9156  -5.9140  -5.9000  -5.8959  -5.8940  -5.8815  -5.8789
    -5.8770  -5.8645  -5.8587  -5.8524  -5.8502  -5.8445  -5.8412  -5.8313
    -5.8279  -5.8188  -5.8164  -5.8083  -5.7962  -5.7906  -5.7879  -5.7874
    -5.7743  -5.7731  -5.7702  -5.7685  -5.7540  -5.7439  -5.7399  -5.7396
    -5.7331  -5.7323  -5.7147  -5.7135  -5.7049  -5.7048  -5.7026  -5.6990
    -5.6908  -5.6821  -5.6745  -5.6599  -5.6594  -5.6580  -5.6510  -5.6369
    -5.6313  -5.6230  -5.6065  -5.5976  -5.5974  -5.5958  -5.5949  -5.5943
    -5.5775  -5.5723  -5.5578  -5.5554  -5.5511  -5.5430  -5.5307  -5.5300
    -5.5262  -5.5224  -5.5197  -5.5186  -5.5164  -5.5124  -5.5092  -5.5005
    -5.4973  -5.4905  -5.4862  -5.4767  -5.4749  -5.4702  -5.4605  -5.4573
    -5.4536  -5.4514  -5.4420  -5.4359  -5.4319  -5.4312  -5.4277  -5.4258
    -5.4209  -5.4180  -5.4091  -5.4057  -5.4029  -5.4021  -5.4012  -5.3978
    -5.3942  -5.3825  -5.3805  -5.3796  -5.3783  -5.3772  -5.3629  -5.3621
    -5.3583  -5.3556  -5.3526  -5.3490  -5.3450  -5.3422  -5.3389  -5.3387
    -5.3363  -5.3348  -5.3334  -5.3329  -5.3284  -5.3251  -5.3225  -5.3193
    -5.3175  -5.3117  -5.3109  -5.3050  -5.3031  -5.3027  -5.2973  -5.2964
    -5.2918  -5.2888  -5.2832  -5.2769  -5.2764  -5.2720  -5.2661  -5.2613
    -5.2596  -5.2451  -5.2442  -5.2429  -5.2415  -5.2409  -5.2400  -5.2360
    -5.2331  -5.2313  -5.2282  -5.2261  -5.2149  -5.2139  -5.2060  -5.2053
    -5.1983  -5.1958  -5.1896  -5.1838  -5.1825  -5.1794  -5.1691  -5.1621
    -5.1610  -5.1602  -5.1593  -5.1581  -5.1539  -5.1508  -5.1425  -5.1393
    -5.1390  -5.1355  -5.1257  -5.1233  -5.1191  -5.1056  -5.0991  -5.0919
    -5.0877  -5.0688  -5.0663  -5.0388  -5.0325  -4.9977  -4.9729  -4.7736
    -4.6735  -4.6703  -4.5417  -4.3114  -4.2666  -4.1064  -4.1018  -4.0976
    -4.0053  -3.6117  -3.2348  -3.1554  -3.0981  -3.0717  -2.9595  -2.7945
[...]
     atom   45 type  1   force =    -0.00002278   -0.00010506   -0.00000581
     atom   46 type  1   force =    -0.00002125    0.00010577    0.00000447
     atom   47 type  1   force =    -0.00002506   -0.00009109   -0.00002368
     atom   48 type  1   force =    -0.00002075    0.00009096   -0.00000034
     atom   49 type  3   force =     0.00000118   -0.00000047   -0.00000232
     atom   50 type  3   force =    -0.00000071    0.00000023   -0.00000616
     atom   51 type  3   force =     0.00000500    0.00000183   -0.00000940
     atom   52 type  3   force =    -0.00000692   -0.00000147   -0.00000520
     atom   53 type  3   force =     0.00000365    0.00000090   -0.00000806
     atom   54 type  3   force =    -0.00000512   -0.00000760   -0.00000546
     atom   55 type  3   force =     0.00000123    0.00000476   -0.00000212
     atom   56 type  2   force =     0.00001364    0.00000286    0.00000321
     atom   57 type  4   force =     0.00000183   -0.00000093    0.00000284
     atom   58 type  4   force =     0.00000068    0.00000029   -0.00000073
     atom   59 type  4   force =    -0.00000011   -0.00000066    0.00000004
     atom   60 type  4   force =     0.00000099   -0.00000151    0.00000397
     atom   61 type  4   force =     0.00000016   -0.00000090   -0.00000192
     atom   62 type  4   force =    -0.00000095    0.00000043   -0.00000103
     atom   63 type  4   force =    -0.00000004    0.00000053   -0.00000043
     atom   64 type  4   force =    -0.00000051   -0.00000058    0.00000002
     atom   65 type  4   force =    -0.00000006    0.00000101   -0.00000028

     DFT-D3 dispersion contribution to forces:
     atom    1 type  1   force =    -0.00000130    0.00000097    0.00156026
     atom    2 type  1   force =     0.00000434   -0.00000042    0.00156855
     atom    3 type  1   force =     0.00001425    0.00001431    0.00164908
     atom    4 type  1   force =     0.00000984   -0.00001840    0.00161011
     atom    5 type  1   force =     0.00006832    0.00011870   -0.00102457
     atom    6 type  1   force =     0.00051362   -0.00027892   -0.00036722
     atom    7 type  1   force =    -0.00000253   -0.00000138    0.00155606
     atom    8 type  1   force =     0.00000317    0.00000102    0.00156976
     atom    9 type  1   force =    -0.00015404    0.00000393    0.00151238
     atom   10 type  1   force =     0.00000732    0.00000446    0.00162266
     atom   11 type  1   force =     0.00047607    0.00021546   -0.00038723
     atom   12 type  1   force =     0.00005983   -0.00008893   -0.00106638
     atom   13 type  1   force =     0.00000227    0.00000128    0.00156181
     atom   14 type  1   force =    -0.00000347   -0.00000106    0.00156719
     atom   15 type  1   force =    -0.00001403    0.00001993    0.00162331
     atom   16 type  1   force =    -0.00001178   -0.00001779    0.00163841
     atom   17 type  1   force =    -0.00004869    0.00006514   -0.00109396
     atom   18 type  1   force =    -0.00047686   -0.00016537   -0.00049702
     atom   19 type  1   force =     0.00000078   -0.00000171    0.00155730
     atom   20 type  1   force =    -0.00000458    0.00000105    0.00157071
     atom   21 type  1   force =     0.00018383    0.00000329    0.00147433
     atom   22 type  1   force =    -0.00000607   -0.00000248    0.00162221
     atom   23 type  1   force =    -0.00043809    0.00021102   -0.00055868
     atom   24 type  1   force =    -0.00006372   -0.00009291   -0.00105289
     atom   25 type  1   force =    -0.00000045    0.00001546    0.00274920
     atom   26 type  1   force =     0.00000227   -0.00001504    0.00274666
     atom   27 type  1   force =    -0.00000259   -0.00000674   -0.00247667
     atom   28 type  1   force =    -0.00002425    0.00004429   -0.00234123
     atom   29 type  1   force =    -0.00000186   -0.00000233   -0.00211417
     atom   30 type  1   force =    -0.00006259   -0.00001270   -0.00069261
     atom   31 type  1   force =     0.00000151   -0.00000027    0.00275820
     atom   32 type  1   force =     0.00000072    0.00000008    0.00272789
     atom   33 type  1   force =     0.00002205   -0.00004560   -0.00234840
     atom   34 type  1   force =     0.00001075    0.00000972   -0.00247507
     atom   35 type  1   force =    -0.00007525    0.00053015   -0.00140567
     atom   36 type  1   force =    -0.00000774   -0.00053759   -0.00138149
     atom   37 type  1   force =     0.00000055   -0.00000004    0.00272838
     atom   38 type  1   force =    -0.00000210    0.00000022    0.00272583
     atom   39 type  1   force =    -0.00000500   -0.00000303   -0.00248730
     atom   40 type  1   force =     0.00001760    0.00000415   -0.00245747
     atom   41 type  1   force =    -0.00000003    0.00000231   -0.00220148
     atom   42 type  1   force =     0.00002108   -0.00000010   -0.00209337
     atom   43 type  1   force =    -0.00000092   -0.00000126    0.00272523
     atom   44 type  1   force =    -0.00000093    0.00000078    0.00272832
     atom   45 type  1   force =    -0.00002106   -0.00000640   -0.00247239
     atom   46 type  1   force =    -0.00000450    0.00000652   -0.00248761
     atom   47 type  1   force =     0.00000726    0.00002956   -0.00215957
     atom   48 type  1   force =    -0.00000226   -0.00002991   -0.00216683
     atom   49 type  3   force =    -0.00008133   -0.00017619   -0.00012127
     atom   50 type  3   force =    -0.00000094   -0.00000239   -0.00085617
     atom   51 type  3   force =    -0.00004824   -0.00010279   -0.00005863
     atom   52 type  3   force =     0.00008799    0.00018969   -0.00015045
     atom   53 type  3   force =     0.00000329    0.00000610   -0.00012252
     atom   54 type  3   force =     0.00004610    0.00009961   -0.00021887
     atom   55 type  3   force =    -0.00000019    0.00000230   -0.00010997
     atom   56 type  2   force =     0.00000622    0.00000118   -0.00172951
     atom   57 type  4   force =     0.00001504    0.00005524   -0.00175444
     atom   58 type  4   force =     0.00004843   -0.00005905   -0.00011689
     atom   59 type  4   force =     0.00000843    0.00000514   -0.00020719
     atom   60 type  4   force =    -0.00001174   -0.00002997   -0.00174699
     atom   61 type  4   force =     0.00002947    0.00005313    0.00005782
     atom   62 type  4   force =    -0.00001010   -0.00000844   -0.00022834
     atom   63 type  4   force =    -0.00002327   -0.00003917   -0.00000746
     atom   64 type  4   force =     0.00001539    0.00003258    0.00014474
     atom   65 type  4   force =    -0.00007531   -0.00000038   -0.00011844

     Total force =     0.001872     Total SCF correction =     0.000586

     DFT-D3 dispersion Force =     0.013871
     SCF correction compared to forces is large: reduce conv_thr to get better values


     Computing stress (Cartesian axis) and pressure


     negative rho (up, down):  3.084E-03 0.000E+00
          total   stress  (Ry/bohr**3)                   (kbar)     P=      -17.25
  -0.00019789   0.00000035  -0.00000007          -29.11        0.05       -0.01
   0.00000035  -0.00013413   0.00000016            0.05      -19.73        0.02
  -0.00000007   0.00000016  -0.00001984           -0.01        0.02       -2.92

     kinetic stress (kbar)  12413.78    -25.01     -0.02
                              -25.01  12348.44      0.05
                               -0.02      0.05  12399.30

     local   stress (kbar)-952578.99   -617.01     -3.99
                             -617.01-965970.11    -17.50
                               -3.99    -17.50 962427.33

     nonloc. stress (kbar)  -1196.45      1.73      0.00
                                1.73  -1165.87      0.01
                                0.00      0.01  -1213.56

     hartree stress (kbar) 503000.73    227.31      1.80
                              227.31 508694.92      7.71
                                1.80      7.71-447954.80

     exc-cor stress (kbar)  -6050.04      1.24     -0.00
                                1.24  -6044.65     -0.00
                               -0.00     -0.00  -6052.01

     corecor stress (kbar)    -75.89     -0.37      0.00
                               -0.37    -76.49      0.00
                                0.00      0.00    -76.58

     ewald   stress (kbar) 444463.78    412.16      2.20
                              412.16 452202.75      9.75
                                2.20      9.75-519529.32

     hubbard stress (kbar)      0.00      0.00      0.00
                                0.00      0.00      0.00
                                0.00      0.00      0.00

     DFT-D   stress (kbar)     -6.04      0.00     -0.00
                                0.00     -8.72     -0.00
                               -0.00     -0.00     -3.30

     XDM     stress (kbar)      0.00      0.00      0.00
                                0.00      0.00      0.00
                                0.00      0.00      0.00

     dft-nl  stress (kbar)      0.00      0.00      0.00
                                0.00      0.00      0.00
                                0.00      0.00      0.00

     TS-vdW  stress (kbar)      0.00      0.00      0.00
                                0.00      0.00      0.00
                                0.00      0.00      0.00

     MDB     stress (kbar)      0.00      0.00      0.00
                                0.00      0.00      0.00
                                0.00      0.00      0.00

     3D-RISM stress (kbar)      0.00      0.00      0.00
                                0.00      0.00      0.00
                                0.00      0.00      0.00

     Energy error            =      1.0E-05 Ry
     Gradient error          =      5.9E-04 Ry/Bohr

     bfgs converged in  14 scf cycles and  13 bfgs steps
     (criteria: energy <  5.0E-05 Ry, force <  8.0E-04 Ry/Bohr)

     End of BFGS Geometry Optimization

     Final energy             =  -22314.6561533347 Ry

     File ./tmp/Zn100_3layer_ptoluidine_relax.bfgs deleted, as requested
Begin final coordinates

ATOMIC_POSITIONS (angstrom)
Zn               1.2182900000        1.3071800000        0.7547010000    0   0   0
Zn               1.2182900000        6.5359000000        0.7547010000    0   0   0
Zn               1.2168911279        0.0002661457        3.5724654530
Zn               1.2172289636        5.2275110211        3.5702059044
Zn               1.2181691082       -1.3066499457        6.0971997838
Zn               1.2215494845        3.9199427524        6.1176735328
Zn               1.2182900000        3.9215400000        0.7547010000    0   0   0
Zn               1.2182900000        9.1502600000        0.7547010000    0   0   0
Zn               1.2147163791        2.6152066991        3.5716060968
Zn               1.2177157994        7.8430696586        3.5704767097
Zn               1.2188256926        1.3075052122        6.1000241417
Zn               1.2185162346        6.5342235523        6.0976887675
Zn               6.0914510000        1.3071800000        0.7547010000    0   0   0
Zn               6.0914510000        6.5359000000        0.7547010000    0   0   0
Zn               6.0930300806        0.0008224917        3.5697017603
Zn               6.0927173565        5.2282772695        3.5727809618
Zn               6.0915135873       -1.3061490863        6.0972825185
Zn               6.0918762058        3.9220270092        6.1035058081
Zn               6.0914510000        3.9215400000        0.7547010000    0   0   0
Zn               6.0914510000        9.1502600000        0.7547010000    0   0   0
Zn               6.0947958001        2.6143194461        3.5714400367
Zn               6.0922216255        7.8430993721        3.5712862119
Zn               6.0924808986        1.3070660590        6.1115418696
Zn               6.0916892819        6.5354682618        6.0964059772
Zn               3.6548710000       -0.0000000000        1.5094010000    0   0   0
Zn               3.6548710000        5.2287200000        1.5094010000    0   0   0
Zn               3.6547011385       -1.3084559618        3.7848599615
Zn               3.6543944840        3.9277021661        3.7713140067
Zn               3.6554675863       -2.6143777549        6.1601269561
Zn               3.6625949483        2.6132280474        6.0989013889
Zn               3.6548710000        2.6143600000        1.5094010000    0   0   0
Zn               3.6548710000        7.8430800000        1.5094010000    0   0   0
Zn               3.6557895846        1.3006041156        3.7718515445
Zn               3.6559278887        6.5372765352        3.7852949323
Zn               3.6555916481        0.0010159576        6.1624730808
Zn               3.6548607662        5.2265764173        6.1604171061
Zn               8.5280310000       -0.0000000000        1.5094010000    0   0   0
Zn               8.5280310000        5.2287200000        1.5094010000    0   0   0
Zn               8.5272696187       -1.3072753230        3.7822991302
Zn               8.5271086414        3.9218195733        3.7823916562
Zn               8.5276792128       -2.6142555388        6.1565944767
Zn               8.5280987936        2.6147124563        6.1606258937
Zn               8.5280310000        2.6143600000        1.5094010000    0   0   0
Zn               8.5280310000        7.8430800000        1.5094010000    0   0   0
Zn               8.5279144974        1.3070280213        3.7828446045
Zn               8.5279500368        6.5359318991        3.7829727531
Zn               8.5273062831        0.0006121255        6.1584134596
Zn               8.5279662429        5.2276282017        6.1581470802
C                2.9808417259        1.5543834695       11.5839909855
C                3.4917788186        2.6342312461       10.8361479655
C                2.9940352808        1.5857834543       12.9748551618
C                4.0109733522        3.7355299380       11.5410913952
C                3.5088965337        2.6797173435       13.6874234733
C                4.0142192201        3.7478654026       12.9351118369
C                3.5133428464        2.6955453691       15.1951845860
N                3.4796138832        2.6109729009        9.4579718644
H                3.1006551617        1.8261833774        8.9461560128
H                4.0940964184        1.8555642719       15.6071395633
H                2.5700720539        0.6860970259       11.0636160148
H                3.8408106653        3.3832658273        8.9142690259
H                2.5888342873        0.7328997993       13.5248417557
H                4.4142235493        4.5874697894       10.9888477535
H                4.4237807466        4.6181884421       13.4532109258
H                3.9523815758        3.6241222452       15.5840203779
H                2.4946459416        2.6125313429       15.6048278102
End final coordinates



     Writing all to output data dir ./tmp/Zn100_3layer_ptoluidine_relax.save/ :
     XML data file, charge density, pseudopotentials, collected wavefunctions

     init_run     :     27.23s CPU     27.68s WALL (       1 calls)
     electrons    :  13022.43s CPU  13105.44s WALL (      14 calls)
     update_pot   :      2.19s CPU      2.34s WALL (      13 calls)
     forces       :    274.62s CPU    277.15s WALL (      14 calls)
     force_dftd3  :      2.94s CPU      2.98s WALL (      14 calls)
     stress       :   2311.98s CPU   2322.09s WALL (      14 calls)
     stres_dftd3  :      2.94s CPU      2.95s WALL (      14 calls)

     Called by init_run:
     wfcinit      :     25.83s CPU     26.11s WALL (       1 calls)
     wfcinit:atom :      0.06s CPU      0.09s WALL (       5 calls)
     wfcinit:wfcr :     25.31s CPU     25.49s WALL (       5 calls)
     potinit      :      0.46s CPU      0.56s WALL (       1 calls)
     hinit0       :      0.32s CPU      0.34s WALL (       1 calls)

     Called by electrons:
     c_bands      :  12041.65s CPU  12108.67s WALL (     145 calls)
     sum_band     :    914.51s CPU    924.25s WALL (     145 calls)
     v_of_rho     :     11.76s CPU     13.08s WALL (     146 calls)
     v_h          :      0.71s CPU      0.93s WALL (     146 calls)
     v_xc         :     13.18s CPU     14.59s WALL (     174 calls)
     newd         :     48.95s CPU     53.11s WALL (     146 calls)
     PAW_pot      :      8.80s CPU      8.82s WALL (     159 calls)
     mix_rho      :      1.46s CPU      1.73s WALL (     145 calls)
     energy_dftd3 :      1.86s CPU      1.86s WALL (      14 calls)

     Called by c_bands:
     init_us_2    :     36.19s CPU     36.45s WALL (    1660 calls)
     cegterg      :  11975.62s CPU  12041.75s WALL (     725 calls)

     Called by sum_band:
     sum_band:wei :      0.19s CPU      0.19s WALL (     145 calls)
     sum_band:loo :    867.30s CPU    870.88s WALL (     145 calls)
     sum_band:buf :      8.40s CPU      8.47s WALL (     725 calls)
     sum_band:ini :     16.17s CPU     16.27s WALL (     725 calls)
     sum_band:cal :    687.73s CPU    689.76s WALL (     790 calls)
     sum_band:bec :      4.90s CPU      4.92s WALL (     790 calls)
     addusdens    :     45.09s CPU     50.89s WALL (     145 calls)
                                        0.00s GPU  (     145 calls)
     addusd:skk   :      2.37s CPU      2.51s WALL (     580 calls)
                                        0.00s GPU  (     580 calls)

     Called by *egterg:
     cdiaghg      :   1249.04s CPU   1253.52s WALL (    3102 calls)
     cegterg:over :   1567.08s CPU   1572.05s WALL (    2507 calls)
     cegterg:upda :    967.71s CPU    974.81s WALL (    2507 calls)
     cegterg:last :   2729.08s CPU   2736.66s WALL (    1413 calls)
     cdiaghg:chol :     92.19s CPU     92.47s WALL (    3102 calls)
     cdiaghg:inve :     12.76s CPU     12.79s WALL (    3102 calls)
     cdiaghg:para :    338.17s CPU    340.26s WALL (    6204 calls)
     h_psi        :   3607.22s CPU   3631.23s WALL (    3237 calls)
     s_psi        :   1358.56s CPU   1362.24s WALL (    3237 calls)
     g_psi        :      7.52s CPU      7.56s WALL (    2507 calls)

     Called by h_psi:
     h_psi:calbec :   1393.18s CPU   1397.52s WALL (    3237 calls)
     vloc_psi     :    838.13s CPU    844.45s WALL (    3237 calls)
     add_vuspsi   :   1361.52s CPU   1365.44s WALL (    3237 calls)

     General routines
     calbec       :   2386.93s CPU   2394.21s WALL (    4377 calls)
     fft          :      9.16s CPU     11.32s WALL (    2246 calls)
     ffts         :      0.59s CPU      0.81s WALL (     291 calls)
     fftw         :    856.95s CPU    862.88s WALL ( 2348873 calls)
     interpolate  :      0.84s CPU      1.08s WALL (     146 calls)

     Parallel routines

     PAW routines
     PAW_pot      :      8.80s CPU      8.82s WALL (     159 calls)

     PWSCF        :      4h21m CPU      4h23m WALL


   This run was terminated on:   6:22:21  16Apr2025            

=------------------------------------------------------------------------------=
   JOB DONE.
=------------------------------------------------------------------------------=
Note: The following floating-point exceptions are signalling: IEEE_DENORMAL
Note: The following floating-point exceptions are signalling: IEEE_DENORMAL
Note: The following floating-point exceptions are signalling: IEEE_DENORMAL
Note: The following floating-point exceptions are signalling: IEEE_DENORMAL
Note: The following floating-point exceptions are signalling: IEEE_DENORMAL
Note: The following floating-point exceptions are signalling: IEEE_DENORMAL
Note: The following floating-point exceptions are signalling: IEEE_DENORMAL
Note: The following floating-point exceptions are signalling: IEEE_DENORMAL
Note: The following floating-point exceptions are signalling: IEEE_DENORMAL
Note: The following floating-point exceptions are signalling: IEEE_DENORMAL
Note: The following floating-point exceptions are signalling: IEEE_DENORMAL
Note: The following floating-point exceptions are signalling: IEEE_DENORMAL
