--------------------------------------------------------------------------
By default, for Open MPI 4.0 and later, infiniband ports on a device
are not used by default.  The intent is to use UCX for these devices.
You can override this policy by setting the btl_openib_allow_ib MCA parameter
to true.

  Local host:              psid05
  Local adapter:           mlx4_0
  Local port:              1

--------------------------------------------------------------------------
--------------------------------------------------------------------------
WARNING: There was an error initializing an OpenFabrics device.

  Local host:   psid05
  Local device: mlx4_0
--------------------------------------------------------------------------

     Program PWSCF v.7.3.1 starts on 25Mar2025 at  4: 3:38 

     This program is part of the open-source Quantum ESPRESSO suite
     for quantum simulation of materials; please cite
         "P. Giannozzi et al., J. Phys.:Condens. Matter 21 395502 (2009);
         "P. Giannozzi et al., J. Phys.:Condens. Matter 29 465901 (2017);
         "P. Giannozzi et al., J. Chem. Phys. 152 154105 (2020);
          URL http://www.quantum-espresso.org", 
     in publications or presentations arising from this work. More details at
     http://www.quantum-espresso.org/quote

     Parallel version (MPI), running on    34 processors

     MPI processes distributed on     1 nodes
     81814 MiB available memory on the printing compute node when the environment starts

     Waiting for input...
     Reading input from standard input

     Current dimensions of program PWSCF are:
     Max number of different atomic species (ntypx) = 10
     Max number of k-points (npk) =  40000
     Max angular momentum in pseudopotentials (lmaxx) =  4
     file C.pbe-n-kjpaw_psl.1.0.0.UPF: wavefunction(s)  2S 2P renormalized

     R & G space division:  proc/nbgrp/npool/nimage =      34
     Subspace diagonalization in iterative solution of the eigenvalue problem:
     one sub-group per band group will be used
     custom distributed-memory algorithm (size of sub-group:  5*  5 procs)


     Parallelization info
     --------------------
     sticks:   dense  smooth     PW     G-vecs:    dense   smooth      PW
     Min          95      95     25                 9909     9909    1385
     Max          96      96     26                 9921     9921    1394
     Sum        3241    3241    859               337189   337189   47187

     Using Slab Decomposition



     bravais-lattice index     =            0
     lattice parameter (alat)  =      19.7617  a.u.
     unit-cell volume          =   15176.5939 (a.u.)^3
     number of atoms/cell      =           79
     number of atomic types    =            4
     number of electrons       =      1324.00
     number of Kohn-Sham states=          794
     kinetic-energy cutoff     =      30.0000  Ry
     charge density cutoff     =     120.0000  Ry
     scf convergence threshold =      1.0E-08
     mixing beta               =       0.7000
     number of iterations used =            8  plain     mixing
     Exchange-correlation= PBE
                           (   1   4   3   4   0   0   0)

     celldm(1)=  19.761696  celldm(2)=   0.000000  celldm(3)=   0.000000
     celldm(4)=   0.000000  celldm(5)=   0.000000  celldm(6)=   0.000000

     crystal axes: (cart. coord. in units of alat)
               a(1) = (   1.000000   0.000000   0.000000 )  
               a(2) = (  -0.500000   0.866025   0.000000 )  
               a(3) = (   0.000000   0.000000   2.270759 )  

     reciprocal axes: (cart. coord. in units 2 pi/alat)
               b(1) = (  1.000000  0.577350 -0.000000 )  
               b(2) = (  0.000000  1.154701  0.000000 )  
               b(3) = (  0.000000 -0.000000  0.440381 )  


     PseudoPot. # 1 for Zn read from file:
     /home/ys/qepseudo/SSSP_1.3.0_PBE_efficiency/Zn_pbe_v1.uspp.F.UPF
     MD5 check sum: df62231357ef9e81f77b2b3087fa5675
     Pseudo is Ultrasoft, Zval = 20.0
     Generated by new atomic code, or converted to UPF format
     Using radial grid of  943 points,  6 beta functions with: 
                l(1) =   0
                l(2) =   0
                l(3) =   1
                l(4) =   1
                l(5) =   2
                l(6) =   2
     Q(r) pseudized with  8 coefficients,  rinner =    1.100   1.100   1.100
                                                       1.100   1.100

     PseudoPot. # 2 for C  read from file:
     /home/ys/qepseudo/SSSP_1.3.0_PBE_efficiency/C.pbe-n-kjpaw_psl.1.0.0.UPF
     MD5 check sum: 5d2aebdfa2cae82b50a7e79e9516da0f
     Pseudo is Projector augmented-wave + core cor, Zval =  4.0
     Generated using "atomic" code by A. Dal Corso  v.5.1
     Shape of augmentation charge: PSQ
     Using radial grid of 1073 points,  4 beta functions with: 
                l(1) =   0
                l(2) =   0
                l(3) =   1
                l(4) =   1
     Q(r) pseudized with 0 coefficients 


     PseudoPot. # 3 for N  read from file:
     /home/ys/qepseudo/SSSP_1.3.0_PBE_efficiency/N.pbe-n-radius_5.UPF
     MD5 check sum: 16739722b17309cd8fe442a2ace49922
     Pseudo is Ultrasoft + core correction, Zval =  5.0
     Generated using "atomic" code by A. Dal Corso  v.5.1
     Using radial grid of 1085 points,  4 beta functions with: 
                l(1) =   0
                l(2) =   0
                l(3) =   1
                l(4) =   1
     Q(r) pseudized with 0 coefficients 


     PseudoPot. # 4 for H  read from file:
     /home/ys/qepseudo/SSSP_1.3.0_PBE_efficiency/H.pbe-rrkjus_psl.1.0.0.UPF
     MD5 check sum: f52b6d4d1c606e5624b1dc7b2218f220
     Pseudo is Ultrasoft, Zval =  1.0
     Generated using "atomic" code by A. Dal Corso  v.5.1
     Using radial grid of  929 points,  2 beta functions with: 
                l(1) =   0
                l(2) =   0
     Q(r) pseudized with 0 coefficients 


     atomic species   valence    mass     pseudopotential
     Zn               20.00    65.38000     Zn( 1.00)
     C                 4.00    12.01070     C ( 1.00)
     N                 5.00    14.00670     N ( 1.00)
     H                 1.00     1.00800     H ( 1.00)

     No symmetry found


                                    s                        frac. trans.

      isym =  1     identity                                     

 cryst.   s( 1) = (     1          0          0      )
                  (     0          1          0      )
                  (     0          0          1      )

 cart.    s( 1) = (  1.0000000  0.0000000  0.0000000 )
                  (  0.0000000  1.0000000  0.0000000 )
                  (  0.0000000  0.0000000  1.0000000 )


   Cartesian axes

     site n.     atom                  positions (alat units)
         1        Zn     tau(   1) = (  -0.0000000   0.1443376   0.1164999  )
         2        Zn     tau(   2) = (   0.5000000   0.1443376   0.1164999  )
         3        Zn     tau(   3) = (   0.0000919   0.1444891   0.5718932  )
         4        Zn     tau(   4) = (   0.5001401   0.1440829   0.5703571  )
         5        Zn     tau(   5) = (  -0.1250000   0.3608439   0.1164999  )
         6        Zn     tau(   6) = (   0.3750000   0.3608439   0.1164999  )
         7        Zn     tau(   7) = (  -0.1247712   0.3609876   0.5717521  )
         8        Zn     tau(   8) = (   0.3746805   0.3612275   0.5703296  )
         9        Zn     tau(   9) = (  -0.2500000   0.5773503   0.1164999  )
        10        Zn     tau(  10) = (   0.2500000   0.5773503   0.1164999  )
        11        Zn     tau(  11) = (  -0.2497700   0.5775781   0.5717797  )
        12        Zn     tau(  12) = (   0.2500224   0.5775422   0.5715270  )
        13        Zn     tau(  13) = (  -0.3750000   0.7938566   0.1164999  )
        14        Zn     tau(  14) = (   0.1250000   0.7938566   0.1164999  )
        15        Zn     tau(  15) = (  -0.3749466   0.7940221   0.5715032  )
        16        Zn     tau(  16) = (   0.1251479   0.7938894   0.5717371  )
        17        Zn     tau(  17) = (   0.2500000   0.1443376   0.1164999  )
        18        Zn     tau(  18) = (   0.7500000   0.1443376   0.1164999  )
        19        Zn     tau(  19) = (   0.2498286   0.1444068   0.5711996  )
        20        Zn     tau(  20) = (   0.7503461   0.1443488   0.5713354  )
        21        Zn     tau(  21) = (   0.1250000   0.3608439   0.1164999  )
        22        Zn     tau(  22) = (   0.6250000   0.3608439   0.1164999  )
        23        Zn     tau(  23) = (   0.1250046   0.3609944   0.5715452  )
        24        Zn     tau(  24) = (   0.6254897   0.3611651   0.5703786  )
        25        Zn     tau(  25) = (  -0.0000000   0.5773503   0.1164999  )
        26        Zn     tau(  26) = (   0.5000000   0.5773503   0.1164999  )
        27        Zn     tau(  27) = (   0.0000947   0.5774765   0.5717250  )
        28        Zn     tau(  28) = (   0.5000489   0.5777477   0.5712229  )
        29        Zn     tau(  29) = (  -0.1250000   0.7938566   0.1164999  )
        30        Zn     tau(  30) = (   0.3750000   0.7938566   0.1164999  )
        31        Zn     tau(  31) = (  -0.1249271   0.7938390   0.5717767  )
        32        Zn     tau(  32) = (   0.3750923   0.7940127   0.5718864  )
        33        Zn     tau(  33) = (   0.1250000   0.0721688   0.3494996  )
        34        Zn     tau(  34) = (   0.6250000   0.0721688   0.3494996  )
        35        Zn     tau(  35) = (   0.1251920   0.0726115   0.8148491  )
        36        Zn     tau(  36) = (   0.6252156   0.0724631   0.8155515  )
        37        Zn     tau(  37) = (   0.0000000   0.2886751   0.3494996  )
        38        Zn     tau(  38) = (   0.5000000   0.2886751   0.3494996  )
        39        Zn     tau(  39) = (   0.0002707   0.2890852   0.8155094  )
        40        Zn     tau(  40) = (   0.5001166   0.2891297   0.8037374  )
        41        Zn     tau(  41) = (  -0.1250000   0.5051815   0.3494996  )
        42        Zn     tau(  42) = (   0.3750000   0.5051815   0.3494996  )
        43        Zn     tau(  43) = (  -0.1246678   0.5055953   0.8152510  )
        44        Zn     tau(  44) = (   0.3751247   0.5056097   0.8160989  )
        45        Zn     tau(  45) = (  -0.2500000   0.7216878   0.3494996  )
        46        Zn     tau(  46) = (   0.2500000   0.7216878   0.3494996  )
        47        Zn     tau(  47) = (  -0.2498227   0.7220662   0.8156814  )
        48        Zn     tau(  48) = (   0.2501856   0.7220497   0.8155660  )
        49        Zn     tau(  49) = (   0.3750000   0.0721688   0.3494996  )
        50        Zn     tau(  50) = (   0.8750000   0.0721688   0.3494996  )
        51        Zn     tau(  51) = (   0.3751191   0.0724194   0.8128663  )
        52        Zn     tau(  52) = (   0.8751699   0.0725850   0.8153100  )
        53        Zn     tau(  53) = (   0.2500000   0.2886751   0.3494996  )
        54        Zn     tau(  54) = (   0.7500000   0.2886751   0.3494996  )
        55        Zn     tau(  55) = (   0.2501500   0.2891474   0.8163492  )
        56        Zn     tau(  56) = (   0.7503339   0.2890919   0.8155709  )
        57        Zn     tau(  57) = (   0.1250000   0.5051815   0.3494996  )
        58        Zn     tau(  58) = (   0.6250000   0.5051815   0.3494996  )
        59        Zn     tau(  59) = (   0.1252635   0.5055594   0.8147593  )
        60        Zn     tau(  60) = (   0.6253034   0.5056626   0.8134436  )
        61        Zn     tau(  61) = (   0.0000000   0.7216878   0.3494996  )
        62        Zn     tau(  62) = (   0.5000000   0.7216878   0.3494996  )
        63        Zn     tau(  63) = (   0.0002153   0.7219742   0.8151875  )
        64        Zn     tau(  64) = (   0.5002011   0.7221302   0.8147754  )
        65        C      tau(  65) = (   0.5906464   0.2283291   1.6718584  )
        66        C      tau(  66) = (   0.5696681   0.2405519   1.5379848  )
        67        C      tau(  67) = (   0.5010665   0.1459804   1.4703634  )
        68        C      tau(  68) = (   0.6169399   0.3473224   1.4702298  )
        69        C      tau(  69) = (   0.5957303   0.3595100   1.3400699  )
        70        C      tau(  70) = (   0.4797752   0.1581913   1.3402401  )
        71        C      tau(  71) = (   0.5261558   0.2654704   1.2722574  )
        72        N      tau(  72) = (   0.6078177   0.2179181   1.7823484  )
        73        N      tau(  73) = (   0.4990624   0.2808922   1.1445168  )
        74        H      tau(  74) = (   0.5512369   0.3451578   1.0929778  )
        75        H      tau(  75) = (   0.4695321   0.2034025   1.0932174  )
        76        H      tau(  76) = (   0.4643745   0.0627104   1.5219463  )
        77        H      tau(  77) = (   0.6705225   0.4209393   1.5216882  )
        78        H      tau(  78) = (   0.6325892   0.4430777   1.2888032  )
        79        H      tau(  79) = (   0.4260501   0.0842634   1.2891064  )

   Crystallographic axes

     site n.     atom                  positions (cryst. coord.)
         1        Zn     tau(   1) = (  0.0833333  0.1666667  0.0513044  )
         2        Zn     tau(   2) = (  0.5833333  0.1666667  0.0513044  )
         3        Zn     tau(   3) = (  0.0835128  0.1668417  0.2518512  )
         4        Zn     tau(   4) = (  0.5833264  0.1663726  0.2511747  )
         5        Zn     tau(   5) = (  0.0833333  0.4166667  0.0513044  )
         6        Zn     tau(   6) = (  0.5833333  0.4166667  0.0513044  )
         7        Zn     tau(   7) = (  0.0836451  0.4168326  0.2517890  )
         8        Zn     tau(   8) = (  0.5832353  0.4171096  0.2511626  )
         9        Zn     tau(   9) = (  0.0833333  0.6666667  0.0513044  )
        10        Zn     tau(  10) = (  0.5833333  0.6666667  0.0513044  )
        11        Zn     tau(  11) = (  0.0836949  0.6669298  0.2518012  )
        12        Zn     tau(  12) = (  0.5834666  0.6668883  0.2516899  )
        13        Zn     tau(  13) = (  0.0833333  0.9166667  0.0513044  )
        14        Zn     tau(  14) = (  0.5833333  0.9166667  0.0513044  )
        15        Zn     tau(  15) = (  0.0834822  0.9168577  0.2516794  )
        16        Zn     tau(  16) = (  0.5835001  0.9167046  0.2517824  )
        17        Zn     tau(  17) = (  0.3333333  0.1666667  0.0513044  )
        18        Zn     tau(  18) = (  0.8333333  0.1666667  0.0513044  )
        19        Zn     tau(  19) = (  0.3332019  0.1667466  0.2515457  )
        20        Zn     tau(  20) = (  0.8336859  0.1666796  0.2516055  )
        21        Zn     tau(  21) = (  0.3333333  0.4166667  0.0513044  )
        22        Zn     tau(  22) = (  0.8333333  0.4166667  0.0513044  )
        23        Zn     tau(  23) = (  0.3334248  0.4168404  0.2516979  )
        24        Zn     tau(  24) = (  0.8340085  0.4170375  0.2511841  )
        25        Zn     tau(  25) = (  0.3333333  0.6666667  0.0513044  )
        26        Zn     tau(  26) = (  0.8333333  0.6666667  0.0513044  )
        27        Zn     tau(  27) = (  0.3335009  0.6668124  0.2517771  )
        28        Zn     tau(  28) = (  0.8336117  0.6671256  0.2515559  )
        29        Zn     tau(  29) = (  0.3333333  0.9166667  0.0513044  )
        30        Zn     tau(  30) = (  0.8333333  0.9166667  0.0513044  )
        31        Zn     tau(  31) = (  0.3333960  0.9166463  0.2517998  )
        32        Zn     tau(  32) = (  0.8335157  0.9168469  0.2518481  )
        33        Zn     tau(  33) = (  0.1666667  0.0833333  0.1539131  )
        34        Zn     tau(  34) = (  0.6666667  0.0833333  0.1539131  )
        35        Zn     tau(  35) = (  0.1671142  0.0838446  0.3588444  )
        36        Zn     tau(  36) = (  0.6670522  0.0836732  0.3591537  )
        37        Zn     tau(  37) = (  0.1666667  0.3333333  0.1539131  )
        38        Zn     tau(  38) = (  0.6666667  0.3333333  0.1539131  )
        39        Zn     tau(  39) = (  0.1671741  0.3338068  0.3591352  )
        40        Zn     tau(  40) = (  0.6670457  0.3338582  0.3539510  )
        41        Zn     tau(  41) = (  0.1666667  0.5833333  0.1539131  )
        42        Zn     tau(  42) = (  0.6666667  0.5833333  0.1539131  )
        43        Zn     tau(  43) = (  0.1672378  0.5838112  0.3590214  )
        44        Zn     tau(  44) = (  0.6670386  0.5838278  0.3593948  )
        45        Zn     tau(  45) = (  0.1666667  0.8333333  0.1539131  )
        46        Zn     tau(  46) = (  0.6666667  0.8333333  0.1539131  )
        47        Zn     tau(  47) = (  0.1670624  0.8337702  0.3592109  )
        48        Zn     tau(  48) = (  0.6670612  0.8337512  0.3591601  )
        49        Zn     tau(  49) = (  0.4166667  0.0833333  0.1539131  )
        50        Zn     tau(  50) = (  0.9166667  0.0833333  0.1539131  )
        51        Zn     tau(  51) = (  0.4169305  0.0836227  0.3579712  )
        52        Zn     tau(  52) = (  0.9170769  0.0838140  0.3590474  )
        53        Zn     tau(  53) = (  0.4166667  0.3333333  0.1539131  )
        54        Zn     tau(  54) = (  0.9166667  0.3333333  0.1539131  )
        55        Zn     tau(  55) = (  0.4170893  0.3338787  0.3595050  )
        56        Zn     tau(  56) = (  0.9172412  0.3338146  0.3591623  )
        57        Zn     tau(  57) = (  0.4166667  0.5833333  0.1539131  )
        58        Zn     tau(  58) = (  0.9166667  0.5833333  0.1539131  )
        59        Zn     tau(  59) = (  0.4171484  0.5837697  0.3588048  )
        60        Zn     tau(  60) = (  0.9172478  0.5838889  0.3582254  )
        61        Zn     tau(  61) = (  0.4166667  0.8333333  0.1539131  )
        62        Zn     tau(  62) = (  0.9166667  0.8333333  0.1539131  )
        63        Zn     tau(  63) = (  0.4170473  0.8336640  0.3589934  )
        64        Zn     tau(  64) = (  0.9171232  0.8338442  0.3588119  )
        65        C      tau(  65) = (  0.7224722  0.2636517  0.7362554  )
        66        C      tau(  66) = (  0.7085508  0.2777655  0.6773000  )
        67        C      tau(  67) = (  0.5853483  0.1685637  0.6475207  )
        68        C      tau(  68) = (  0.8174666  0.4010534  0.6474619  )
        69        C      tau(  69) = (  0.8032935  0.4151264  0.5901419  )
        70        C      tau(  70) = (  0.5711070  0.1826635  0.5902169  )
        71        C      tau(  71) = (  0.6794252  0.3065388  0.5602785  )
        72        N      tau(  72) = (  0.7336328  0.2516302  0.7849131  )
        73        N      tau(  73) = (  0.6612356  0.3243464  0.5040240  )
        74        H      tau(  74) = (  0.7505138  0.3985539  0.4813271  )
        75        H      tau(  75) = (  0.5869666  0.2348690  0.4814327  )
        76        H      tau(  76) = (  0.5005804  0.0724117  0.6702369  )
        77        H      tau(  77) = (  0.9135519  0.4860588  0.6701232  )
        78        H      tau(  78) = (  0.8884003  0.5116220  0.5675650  )
        79        H      tau(  79) = (  0.4746996  0.0972990  0.5676985  )

     number of k points=     5  Marzari-Vanderbilt smearing, width (Ry)=  0.0200
                       cart. coord. in units 2pi/alat
        k(    1) = (   0.0000000   0.0000000   0.0000000), wk =   0.2222222
        k(    2) = (   0.0000000   0.3849002   0.0000000), wk =   0.4444444
        k(    3) = (   0.3333333   0.1924501   0.0000000), wk =   0.4444444
        k(    4) = (   0.3333333   0.5773503   0.0000000), wk =   0.4444444
        k(    5) = (   0.3333333  -0.1924501   0.0000000), wk =   0.4444444

                       cryst. coord.
        k(    1) = (   0.0000000   0.0000000   0.0000000), wk =   0.2222222
        k(    2) = (   0.0000000   0.3333333   0.0000000), wk =   0.4444444
        k(    3) = (   0.3333333   0.0000000   0.0000000), wk =   0.4444444
        k(    4) = (   0.3333333   0.3333333   0.0000000), wk =   0.4444444
        k(    5) = (   0.3333333  -0.3333333   0.0000000), wk =   0.4444444

     Dense  grid:   337189 G-vectors     FFT dimensions: (  72,  72, 160)

     Dynamical RAM for                 wfc:      15.00 MB

     Dynamical RAM for     wfc (w. buffer):      89.99 MB

     Dynamical RAM for           str. fact:       0.61 MB

     Dynamical RAM for           local pot:       0.00 MB

     Dynamical RAM for          nlocal pot:      23.35 MB

     Dynamical RAM for                qrad:       3.52 MB

     Dynamical RAM for          rho,v,vnew:       1.05 MB

     Dynamical RAM for               rhoin:       0.35 MB

     Dynamical RAM for            rho*nmix:       2.42 MB

     Dynamical RAM for           G-vectors:       0.64 MB

     Dynamical RAM for          h,s,v(r/c):       4.60 MB

     Dynamical RAM for          <psi|beta>:      14.97 MB

     Dynamical RAM for                 psi:      30.00 MB

     Dynamical RAM for                hpsi:      30.00 MB

     Dynamical RAM for                spsi:      30.00 MB

     Dynamical RAM for      wfcinit/wfcrot:      50.51 MB

     Dynamical RAM for           addusdens:      37.84 MB

     Dynamical RAM for          addusforce:      57.23 MB

     Dynamical RAM for         addusstress:      30.42 MB

     Estimated static dynamical RAM per process >     121.25 MB

     Estimated max dynamical RAM per process >     233.24 MB

     Estimated total dynamical RAM >       7.74 GB

     Check: negative core charge=   -0.000056

     Initial potential from superposition of free atoms

     starting charge    1323.9906, renormalised to    1324.0000

     negative rho (up, down):  7.227E-03 0.000E+00
     Starting wfcs are  874 randomized atomic wfcs
[psid05:206210] 33 more processes have sent help message help-mpi-btl-openib.txt / ib port not selected
[psid05:206210] Set MCA parameter "orte_base_help_aggregate" to 0 to see all help / error messages
[psid05:206210] 33 more processes have sent help message help-mpi-btl-openib.txt / error in device init
     Checking if some PAW data can be deallocated... 
       PAW data deallocated on   30 nodes for type:  2

     total cpu time spent up to now is       71.5 secs

     Self-consistent Calculation

     iteration #  1     ecut=    30.00 Ry     beta= 0.70
     Davidson diagonalization with overlap

---- Real-time Memory Report at c_bands before calling an iterative solver
           209 MiB given to the printing process from OS
             0 MiB allocation reported by mallinfo(arena+hblkhd)
         77200 MiB available memory on the node where the printing process lives
------------------
     ethr =  1.00E-02,  avg # of iterations =  7.2

     Threshold (ethr) on eigenvalues was too large:
     Diagonalizing with lowered threshold

     Davidson diagonalization with overlap

---- Real-time Memory Report at c_bands before calling an iterative solver
           279 MiB given to the printing process from OS
             0 MiB allocation reported by mallinfo(arena+hblkhd)
         75632 MiB available memory on the node where the printing process lives
------------------
     ethr =  9.39E-04,  avg # of iterations =  1.0

     negative rho (up, down):  3.792E-02 0.000E+00

     total cpu time spent up to now is      561.4 secs

     total energy              =  -29703.19894677 Ry
     estimated scf accuracy    <      12.65186072 Ry

     iteration #  2     ecut=    30.00 Ry     beta= 0.70
     Davidson diagonalization with overlap

---- Real-time Memory Report at c_bands before calling an iterative solver
           279 MiB given to the printing process from OS
             0 MiB allocation reported by mallinfo(arena+hblkhd)
         75631 MiB available memory on the node where the printing process lives
------------------
     ethr =  9.56E-04,  avg # of iterations = 12.8

     negative rho (up, down):  3.539E-02 0.000E+00

     total cpu time spent up to now is      989.4 secs

     total energy              =  -29666.03496149 Ry
     estimated scf accuracy    <     820.14871610 Ry

     iteration #  3     ecut=    30.00 Ry     beta= 0.70
     Davidson diagonalization with overlap

---- Real-time Memory Report at c_bands before calling an iterative solver
           279 MiB given to the printing process from OS
             0 MiB allocation reported by mallinfo(arena+hblkhd)
         75532 MiB available memory on the node where the printing process lives
------------------
     ethr =  9.56E-04,  avg # of iterations = 10.2

     negative rho (up, down):  2.621E-02 0.000E+00

     total cpu time spent up to now is     1600.4 secs

     total energy              =  -29702.91002807 Ry
     estimated scf accuracy    <     101.43713079 Ry

     iteration #  4     ecut=    30.00 Ry     beta= 0.70
     Davidson diagonalization with overlap

---- Real-time Memory Report at c_bands before calling an iterative solver
           279 MiB given to the printing process from OS
             0 MiB allocation reported by mallinfo(arena+hblkhd)
         75519 MiB available memory on the node where the printing process lives
------------------
     ethr =  9.56E-04,  avg # of iterations =  8.0

     negative rho (up, down):  1.690E-02 0.000E+00

     total cpu time spent up to now is     1899.0 secs

     total energy              =  -29705.27964333 Ry
     estimated scf accuracy    <     136.26801419 Ry

     iteration #  5     ecut=    30.00 Ry     beta= 0.70
     Davidson diagonalization with overlap

---- Real-time Memory Report at c_bands before calling an iterative solver
           280 MiB given to the printing process from OS
             0 MiB allocation reported by mallinfo(arena+hblkhd)
         75508 MiB available memory on the node where the printing process lives
------------------
     ethr =  9.56E-04,  avg # of iterations =  7.6

     negative rho (up, down):  1.710E-02 0.000E+00

     total cpu time spent up to now is     2176.3 secs

     total energy              =  -29711.44505206 Ry
     estimated scf accuracy    <       5.49221154 Ry

     iteration #  6     ecut=    30.00 Ry     beta= 0.70
     Davidson diagonalization with overlap

---- Real-time Memory Report at c_bands before calling an iterative solver
           281 MiB given to the printing process from OS
             0 MiB allocation reported by mallinfo(arena+hblkhd)
         75497 MiB available memory on the node where the printing process lives
------------------
     ethr =  4.15E-04,  avg # of iterations =  3.0

     negative rho (up, down):  2.367E-02 0.000E+00

     total cpu time spent up to now is     2415.9 secs

     total energy              =  -29711.95501247 Ry
     estimated scf accuracy    <       0.23306511 Ry

     iteration #  7     ecut=    30.00 Ry     beta= 0.70
     Davidson diagonalization with overlap

---- Real-time Memory Report at c_bands before calling an iterative solver
           281 MiB given to the printing process from OS
             0 MiB allocation reported by mallinfo(arena+hblkhd)
         75479 MiB available memory on the node where the printing process lives
------------------
     c_bands:  1 eigenvalues not converged
     c_bands:  2 eigenvalues not converged
     ethr =  1.76E-05,  avg # of iterations = 17.8

     negative rho (up, down):  3.079E-02 0.000E+00

     total cpu time spent up to now is     2735.1 secs

     total energy              =  -29711.96487861 Ry
     estimated scf accuracy    <       0.06602548 Ry

     iteration #  8     ecut=    30.00 Ry     beta= 0.70
     Davidson diagonalization with overlap

---- Real-time Memory Report at c_bands before calling an iterative solver
           282 MiB given to the printing process from OS
             0 MiB allocation reported by mallinfo(arena+hblkhd)
         75460 MiB available memory on the node where the printing process lives
------------------
     c_bands:  1 eigenvalues not converged
     c_bands:  1 eigenvalues not converged
     c_bands:  1 eigenvalues not converged
     ethr =  4.99E-06,  avg # of iterations = 18.4

     negative rho (up, down):  3.489E-02 0.000E+00

     total cpu time spent up to now is     3079.4 secs

     total energy              =  -29711.96473991 Ry
     estimated scf accuracy    <       0.05889568 Ry

     iteration #  9     ecut=    30.00 Ry     beta= 0.70
     Davidson diagonalization with overlap

---- Real-time Memory Report at c_bands before calling an iterative solver
           282 MiB given to the printing process from OS
             0 MiB allocation reported by mallinfo(arena+hblkhd)
         75442 MiB available memory on the node where the printing process lives
------------------
     ethr =  4.45E-06,  avg # of iterations =  4.4

     negative rho (up, down):  3.593E-02 0.000E+00

     total cpu time spent up to now is     3334.7 secs

     total energy              =  -29711.96882333 Ry
     estimated scf accuracy    <       0.04807511 Ry

     iteration # 10     ecut=    30.00 Ry     beta= 0.70
     Davidson diagonalization with overlap

---- Real-time Memory Report at c_bands before calling an iterative solver
           283 MiB given to the printing process from OS
             0 MiB allocation reported by mallinfo(arena+hblkhd)
         75426 MiB available memory on the node where the printing process lives
------------------
     ethr =  3.63E-06,  avg # of iterations =  3.0

     negative rho (up, down):  3.628E-02 0.000E+00

     total cpu time spent up to now is     3575.8 secs

     total energy              =  -29711.97240112 Ry
     estimated scf accuracy    <       0.01498006 Ry

     iteration # 11     ecut=    30.00 Ry     beta= 0.70
     Davidson diagonalization with overlap

---- Real-time Memory Report at c_bands before calling an iterative solver
           283 MiB given to the printing process from OS
             0 MiB allocation reported by mallinfo(arena+hblkhd)
         75405 MiB available memory on the node where the printing process lives
------------------
     ethr =  1.13E-06,  avg # of iterations =  9.8

     negative rho (up, down):  4.059E-02 0.000E+00

     total cpu time spent up to now is     3828.9 secs

     total energy              =  -29711.96508825 Ry
     estimated scf accuracy    <       0.01232090 Ry

     iteration # 12     ecut=    30.00 Ry     beta= 0.70
     Davidson diagonalization with overlap

---- Real-time Memory Report at c_bands before calling an iterative solver
           283 MiB given to the printing process from OS
             0 MiB allocation reported by mallinfo(arena+hblkhd)
         75405 MiB available memory on the node where the printing process lives
------------------
     ethr =  9.31E-07,  avg # of iterations = 15.0

     negative rho (up, down):  3.844E-02 0.000E+00

     total cpu time spent up to now is     4145.9 secs

     total energy              =  -29711.96538781 Ry
     estimated scf accuracy    <       0.01044614 Ry

     iteration # 13     ecut=    30.00 Ry     beta= 0.70
     Davidson diagonalization with overlap

---- Real-time Memory Report at c_bands before calling an iterative solver
           283 MiB given to the printing process from OS
             0 MiB allocation reported by mallinfo(arena+hblkhd)
         75403 MiB available memory on the node where the printing process lives
------------------
     ethr =  7.89E-07,  avg # of iterations =  3.0

     negative rho (up, down):  3.801E-02 0.000E+00

     total cpu time spent up to now is     4387.7 secs

     total energy              =  -29711.96328821 Ry
     estimated scf accuracy    <       0.00726074 Ry

     iteration # 14     ecut=    30.00 Ry     beta= 0.70
     Davidson diagonalization with overlap

---- Real-time Memory Report at c_bands before calling an iterative solver
           283 MiB given to the printing process from OS
             0 MiB allocation reported by mallinfo(arena+hblkhd)
         75402 MiB available memory on the node where the printing process lives
------------------
     ethr =  5.48E-07,  avg # of iterations = 10.4

     negative rho (up, down):  3.729E-02 0.000E+00

     total cpu time spent up to now is     4676.5 secs

     total energy              =  -29711.95750945 Ry
     estimated scf accuracy    <       0.17987621 Ry

     iteration # 15     ecut=    30.00 Ry     beta= 0.70
     Davidson diagonalization with overlap

---- Real-time Memory Report at c_bands before calling an iterative solver
           283 MiB given to the printing process from OS
             0 MiB allocation reported by mallinfo(arena+hblkhd)
         75401 MiB available memory on the node where the printing process lives
------------------
     ethr =  5.48E-07,  avg # of iterations =  7.2

     negative rho (up, down):  3.704E-02 0.000E+00

     total cpu time spent up to now is     4943.1 secs

     total energy              =  -29711.96632938 Ry
     estimated scf accuracy    <       0.00037731 Ry

     iteration # 16     ecut=    30.00 Ry     beta= 0.70
     Davidson diagonalization with overlap

---- Real-time Memory Report at c_bands before calling an iterative solver
           283 MiB given to the printing process from OS
             0 MiB allocation reported by mallinfo(arena+hblkhd)
         75400 MiB available memory on the node where the printing process lives
------------------
     ethr =  2.85E-08,  avg # of iterations =  3.0

     negative rho (up, down):  3.692E-02 0.000E+00

     total cpu time spent up to now is     5214.7 secs

     total energy              =  -29711.96636550 Ry
     estimated scf accuracy    <       0.00029531 Ry

     iteration # 17     ecut=    30.00 Ry     beta= 0.70
     Davidson diagonalization with overlap

---- Real-time Memory Report at c_bands before calling an iterative solver
           283 MiB given to the printing process from OS
             0 MiB allocation reported by mallinfo(arena+hblkhd)
         75399 MiB available memory on the node where the printing process lives
------------------
     ethr =  2.23E-08,  avg # of iterations =  2.0

     negative rho (up, down):  3.669E-02 0.000E+00

     total cpu time spent up to now is     5445.3 secs

     total energy              =  -29711.96640592 Ry
     estimated scf accuracy    <       0.00009396 Ry

     iteration # 18     ecut=    30.00 Ry     beta= 0.70
     Davidson diagonalization with overlap

---- Real-time Memory Report at c_bands before calling an iterative solver
           283 MiB given to the printing process from OS
             0 MiB allocation reported by mallinfo(arena+hblkhd)
         75399 MiB available memory on the node where the printing process lives
------------------
     ethr =  7.10E-09,  avg # of iterations =  2.0

     negative rho (up, down):  3.660E-02 0.000E+00

     total cpu time spent up to now is     5676.7 secs

     total energy              =  -29711.96641488 Ry
     estimated scf accuracy    <       0.00001379 Ry

     iteration # 19     ecut=    30.00 Ry     beta= 0.70
     Davidson diagonalization with overlap

---- Real-time Memory Report at c_bands before calling an iterative solver
           283 MiB given to the printing process from OS
             0 MiB allocation reported by mallinfo(arena+hblkhd)
         75397 MiB available memory on the node where the printing process lives
------------------
     ethr =  1.04E-09,  avg # of iterations =  3.0

     negative rho (up, down):  3.657E-02 0.000E+00

     total cpu time spent up to now is     5912.3 secs

     total energy              =  -29711.96641672 Ry
     estimated scf accuracy    <       0.00000181 Ry

     iteration # 20     ecut=    30.00 Ry     beta= 0.70
     Davidson diagonalization with overlap

---- Real-time Memory Report at c_bands before calling an iterative solver
           283 MiB given to the printing process from OS
             0 MiB allocation reported by mallinfo(arena+hblkhd)
         75397 MiB available memory on the node where the printing process lives
------------------
     ethr =  1.37E-10,  avg # of iterations =  2.0

     negative rho (up, down):  3.656E-02 0.000E+00

     total cpu time spent up to now is     6152.1 secs

     total energy              =  -29711.96641681 Ry
     estimated scf accuracy    <       0.00000243 Ry

     iteration # 21     ecut=    30.00 Ry     beta= 0.70
     Davidson diagonalization with overlap

---- Real-time Memory Report at c_bands before calling an iterative solver
           283 MiB given to the printing process from OS
             0 MiB allocation reported by mallinfo(arena+hblkhd)
         75395 MiB available memory on the node where the printing process lives
------------------
     ethr =  1.37E-10,  avg # of iterations =  2.0

     negative rho (up, down):  3.653E-02 0.000E+00

     total cpu time spent up to now is     6384.5 secs

     total energy              =  -29711.96641719 Ry
     estimated scf accuracy    <       0.00000031 Ry

     iteration # 22     ecut=    30.00 Ry     beta= 0.70
     Davidson diagonalization with overlap

---- Real-time Memory Report at c_bands before calling an iterative solver
           283 MiB given to the printing process from OS
             0 MiB allocation reported by mallinfo(arena+hblkhd)
         75393 MiB available memory on the node where the printing process lives
------------------
     ethr =  2.34E-11,  avg # of iterations =  2.0

     negative rho (up, down):  3.653E-02 0.000E+00

     total cpu time spent up to now is     6619.4 secs

     total energy              =  -29711.96641723 Ry
     estimated scf accuracy    <       0.00000005 Ry

     iteration # 23     ecut=    30.00 Ry     beta= 0.70
     Davidson diagonalization with overlap

---- Real-time Memory Report at c_bands before calling an iterative solver
           283 MiB given to the printing process from OS
             0 MiB allocation reported by mallinfo(arena+hblkhd)
         75394 MiB available memory on the node where the printing process lives
------------------
     ethr =  3.90E-12,  avg # of iterations =  2.0

     negative rho (up, down):  3.653E-02 0.000E+00

     total cpu time spent up to now is     6855.2 secs

     total energy              =  -29711.96641724 Ry
     estimated scf accuracy    <       0.00000001 Ry

     iteration # 24     ecut=    30.00 Ry     beta= 0.70
     Davidson diagonalization with overlap

---- Real-time Memory Report at c_bands before calling an iterative solver
           283 MiB given to the printing process from OS
             0 MiB allocation reported by mallinfo(arena+hblkhd)
         75394 MiB available memory on the node where the printing process lives
------------------
     ethr =  9.50E-13,  avg # of iterations =  2.0

     negative rho (up, down):  3.653E-02 0.000E+00

     total cpu time spent up to now is     7090.2 secs

     total energy              =  -29711.96641724 Ry
     estimated scf accuracy    <       0.00000003 Ry

     iteration # 25     ecut=    30.00 Ry     beta= 0.70
     Davidson diagonalization with overlap

---- Real-time Memory Report at c_bands before calling an iterative solver
           283 MiB given to the printing process from OS
             0 MiB allocation reported by mallinfo(arena+hblkhd)
         75392 MiB available memory on the node where the printing process lives
------------------
     ethr =  9.50E-13,  avg # of iterations =  2.0

     negative rho (up, down):  3.653E-02 0.000E+00

     total cpu time spent up to now is     7320.7 secs

     total energy              =  -29711.96641724 Ry
     estimated scf accuracy    <       0.00000005 Ry

     iteration # 26     ecut=    30.00 Ry     beta= 0.70
     Davidson diagonalization with overlap

---- Real-time Memory Report at c_bands before calling an iterative solver
           283 MiB given to the printing process from OS
             0 MiB allocation reported by mallinfo(arena+hblkhd)
         75393 MiB available memory on the node where the printing process lives
------------------
     ethr =  9.50E-13,  avg # of iterations =  2.0

     negative rho (up, down):  3.653E-02 0.000E+00

     total cpu time spent up to now is     7551.1 secs

     End of self-consistent calculation

          k = 0.0000 0.0000 0.0000 ( 42115 PWs)   bands (ev):

  -123.1531-123.1503-123.1489-123.1483-123.1478-123.1476-123.1472-123.1462
  -123.1449-123.1447-123.1445-123.1440-123.1440-123.1435-123.1434-123.1425
  -123.1238-123.1227-123.1170-123.1090-123.1076-123.1075-123.1068-123.1054
  -123.1047-123.1037-123.1034-123.1032-123.1029-123.1023-123.1018-123.1015
  -122.8549-122.8321-122.8298-122.8290-122.8289-122.8287-122.8281-122.8277
  -122.8277-122.8275-122.8274-122.8273-122.8270-122.8254-122.8252-122.8248
  -122.8241-122.8237-122.8220-122.8106-122.8089-122.8088-122.8082-122.8079
  -122.8074-122.8070-122.8053-122.8044-122.8041-122.8037-122.8000-122.7990
   -77.2602 -77.2599 -77.2593 -77.2507 -77.2505 -77.2502 -77.2499 -77.2492
   -77.2490 -77.2376 -77.2352 -77.2335 -77.2330 -77.2325 -77.2323 -77.2322
   -77.2304 -77.2298 -77.2292 -77.2290 -77.2290 -77.2290 -77.2288 -77.2286
   -77.2285 -77.2282 -77.2281 -77.2275 -77.2272 -77.2271 -77.2266 -77.2258
   -77.2255 -77.2253 -77.2246 -77.2244 -77.2240 -77.2240 -77.2238 -77.2230
   -77.2228 -77.2226 -77.2209 -77.2200 -77.2198 -77.2198 -77.2192 -77.2188
   -77.2183 -77.2181 -77.2176 -77.2137 -77.2129 -77.2119 -77.2113 -77.2104
   -77.2101 -77.2070 -77.2063 -77.2006 -77.1972 -77.1955 -77.1930 -77.1918
   -77.1912 -77.1911 -77.1908 -77.1903 -77.1890 -77.1888 -77.1878 -77.1874
   -77.1870 -77.1869 -77.1866 -77.1862 -77.1860 -77.1858 -77.1856 -77.1851
   -77.1850 -77.1848 -77.1838 -77.1834 -77.1826 -77.1822 -77.1809 -77.1800
   -77.1787 -77.1783 -77.1779 -77.1774 -77.1770 -77.1765 -77.1762 -77.1753
   -76.9470 -76.9432 -76.9411 -76.9387 -76.9386 -76.9383 -76.9298 -76.9296
   -76.9288 -76.9287 -76.9286 -76.9283 -76.9229 -76.9225 -76.9215 -76.9209
   -76.9207 -76.9201 -76.9199 -76.9196 -76.9195 -76.9193 -76.9192 -76.9190
   -76.9184 -76.9179 -76.9173 -76.9166 -76.9163 -76.9158 -76.9154 -76.9152
   -76.9144 -76.9138 -76.9111 -76.9088 -76.9070 -76.9066 -76.9065 -76.9062
   -76.9062 -76.9056 -76.9052 -76.9038 -76.9037 -76.9035 -76.9034 -76.9029
   -76.9028 -76.9024 -76.9022 -76.9018 -76.9018 -76.9017 -76.9014 -76.9013
   -76.9011 -76.9004 -76.9000 -76.8992 -76.8991 -76.8986 -76.8980 -76.8979
   -76.8978 -76.8975 -76.8975 -76.8971 -76.8970 -76.8969 -76.8964 -76.8962
   -76.8962 -76.8941 -76.8936 -76.8930 -76.8927 -76.8877 -76.8854 -76.8851
   -76.8837 -76.8833 -76.8823 -76.8821 -76.8811 -76.8802 -76.8793 -76.8792
   -76.8784 -76.8769 -76.8768 -76.8762 -76.8752 -76.8744 -76.8736 -76.8716
   -15.5512 -14.1550 -13.3260 -10.9606 -10.8544  -7.9287  -7.6465  -6.8048
    -5.7514  -5.6964  -5.2172  -5.2084  -5.2055  -5.2015  -5.1999  -5.1993
    -5.1554  -5.1462  -5.0516  -5.0071  -4.9113  -4.9109  -4.9107  -4.8638
    -4.8632  -4.8629  -4.7089  -4.7084  -4.7083  -4.7003  -4.6972  -4.6968
    -4.6959  -4.6957  -4.6950  -4.5549  -4.5545  -4.5520  -4.5518  -4.5510
    -4.5493  -4.5140  -4.5096  -4.5090  -4.5077  -4.5076  -4.5069  -4.5020
    -4.5008  -4.4999  -4.4701  -4.4696  -4.4690  -4.4678  -4.4675  -4.4675
    -4.4507  -4.4500  -4.4488  -4.4295  -4.4285  -4.4284  -4.4281  -4.4279
    -4.4276  -4.4203  -4.4189  -4.4181  -4.3889  -4.3833  -4.3829  -4.3812
    -4.3808  -4.3787  -4.2942  -4.2921  -4.2919  -4.2913  -4.2910  -4.2903
    -4.2799  -4.2679  -4.2620  -4.2602  -4.2600  -4.2591  -4.2584  -4.2090
    -4.2087  -4.2072  -4.2069  -4.2064  -4.2051  -4.1921  -4.1913  -4.1896
    -4.1873  -4.1866  -4.1860  -4.1317  -4.1302  -4.1275  -4.1248  -4.1241
    -4.1225  -4.1210  -4.1206  -4.1204  -4.1184  -4.1184  -4.0917  -4.0912
    -4.0910  -4.0909  -4.0908  -4.0905  -4.0738  -4.0736  -4.0475  -4.0445
    -4.0438  -4.0388  -4.0386  -4.0363  -4.0176  -4.0156  -4.0137  -4.0133
    -4.0119  -4.0104  -3.9922  -3.9917  -3.9903  -3.9863  -3.9862  -3.9847
    -3.9845  -3.9839  -3.9834  -3.9721  -3.9599  -3.9592  -3.9572  -3.9549
    -3.9545  -3.9539  -3.9123  -3.9112  -3.9102  -3.9101  -3.9098  -3.9095
    -3.9026  -3.9016  -3.9015  -3.9010  -3.9007  -3.9005  -3.8965  -3.8963
    -3.8960  -3.8368  -3.8362  -3.8348  -3.8334  -3.8330  -3.8330  -3.8105
    -3.8104  -3.8096  -3.8083  -3.8078  -3.8069  -3.7888  -3.7887  -3.7617
    -3.7611  -3.7330  -3.7319  -3.7316  -3.7295  -3.7279  -3.7264  -3.7240
    -3.7229  -3.7226  -3.7225  -3.7222  -3.7219  -3.7215  -3.7212  -3.7201
    -3.7138  -3.7120  -3.7101  -3.7099  -3.7089  -3.7083  -3.6724  -3.6658
    -3.6651  -3.6628  -3.6623  -3.6589  -3.6528  -3.6527  -3.6524  -3.6523
    -3.6522  -3.6521  -3.6483  -3.6471  -3.6462  -3.6434  -3.6433  -3.6420
    -3.6413  -3.6410  -3.6407  -3.6380  -3.6375  -3.6372  -3.6365  -3.6353
    -3.6340  -3.6336  -3.6322  -3.6312  -3.6310  -3.6253  -3.6012  -3.6010
    -3.6002  -3.5938  -3.5902  -3.5894  -3.5886  -3.5853  -3.5841  -3.5263
    -3.5252  -3.5228  -3.5217  -3.5214  -3.5208  -3.5157  -3.5150  -3.5111
    -3.5094  -3.5090  -3.5063  -3.5005  -3.4997  -3.4994  -3.4992  -3.4985
    -3.4982  -3.4849  -3.4836  -3.4824  -3.4823  -3.4815  -3.4805  -3.4766
    -3.4759  -3.4448  -3.4444  -3.4441  -3.3727  -3.3722  -3.3708  -3.3685
    -3.3680  -3.3677  -3.3675  -3.3671  -3.3667  -3.3665  -3.3656  -3.3636
    -3.3563  -3.3548  -3.3525  -3.3517  -3.3505  -3.3504  -3.3503  -3.3493
    -3.3488  -3.3475  -3.3469  -3.3460  -3.3382  -3.3380  -3.3374  -3.3008
    -3.3006  -3.2994  -3.2981  -3.2978  -3.2973  -3.2878  -3.2876  -3.2866
    -3.2842  -3.2840  -3.2833  -3.2777  -3.2764  -3.2752  -3.2743  -3.2743
    -3.2742  -3.2478  -3.2478  -3.2368  -3.2354  -3.2347  -3.2339  -3.2335
    -3.2250  -3.2241  -3.2238  -3.2231  -3.2220  -3.2216  -3.1987  -3.1984
    -3.1983  -3.1978  -3.1967  -3.1966  -3.1302  -3.1004  -3.0164  -2.9525
    -2.9524  -2.9523  -2.9375  -2.9356  -2.9324  -2.8810  -2.8752  -2.8738
    -2.8726  -2.8706  -2.8699  -2.6166  -2.1151  -1.8194  -1.5968  -1.5958
    -1.5937  -1.5923  -1.5904  -1.5792  -0.9131  -0.9053  -0.7309  -0.2629
    -0.2616  -0.2598  -0.2565  -0.2561  -0.2550  -0.1102   0.3091   0.5094
     0.5638   0.5652   0.5657   0.5685   0.5753   0.5908   0.8466   0.8496
     0.8559   0.8592   0.8605   0.8621   1.0128   1.0149   1.0161   1.1748
     1.2456   1.6219   1.6258   1.6291   2.1359   2.1368   2.1391   2.1395
     2.1400   2.1437   2.1835   2.1853   2.1889   2.4256   2.4269   2.4323
     2.6145   3.4708   3.4757   3.4857   3.4891   3.4903   3.4998   4.0584
     4.0611   4.0625   4.0640   4.0720   4.0740   4.4015   4.4763   4.4812
     4.4848   4.7490   4.7518   4.7544   5.7897   5.7936   5.7954   6.0746
     6.1423   6.1775   6.2005   6.2196   6.2286   6.2817   6.3032   6.4067
     6.6526   6.6548   6.6574   6.9155   7.1258   7.2764   7.2806   7.2848
     7.2893   7.2899   7.2908   7.3472   7.3496   7.3561   7.3616   7.3699
     7.3741   7.4401   7.4407   7.4437   7.4450   7.4457   7.4477   7.6357
     7.8543   7.9442   8.0307   8.0433   8.1622   8.2208   8.4709   8.4740
     8.4752   8.4837   8.4841   8.4851   8.4965   8.5088   8.5168   8.5377
     8.5638   8.5645   8.5706   8.5713   8.5718   8.5740   8.6674   8.6980
     8.7027   8.7385   8.7617   8.7953   8.8185   8.8508   8.8957   8.9606
     8.9791   9.2261   9.3620   9.4333   9.5431   9.6009   9.6108   9.6210
     9.6530   9.6940   9.8321   9.8635   9.8687   9.8723   9.8733   9.8868
     9.9346   9.9405   9.9527   9.9545   9.9635   9.9789  10.1255  10.1326
    10.1431  10.2390  10.2690  10.3435  10.4196  10.4408  10.5110  10.5285
    10.5409  10.6685  10.7036  10.7483  10.7662  10.8001  11.0204  11.1151
    11.1192  11.1214  11.1317  11.1352  11.1354  11.2970  11.3247  11.4122
    11.4354  11.4708

     occupation numbers 
     1.0000   1.0000   1.0000   1.0000   1.0000   1.0000   1.0000   1.0000
     1.0000   1.0000   1.0000   1.0000   1.0000   1.0000   1.0000   1.0000
     1.0000   1.0000   1.0000   1.0000   1.0000   1.0000   1.0000   1.0000
     1.0000   1.0000   1.0000   1.0000   1.0000   1.0000   1.0000   1.0000
     1.0000   1.0000   1.0000   1.0000   1.0000   1.0000   1.0000   1.0000
     1.0000   1.0000   1.0000   1.0000   1.0000   1.0000   1.0000   1.0000
     1.0000   1.0000   1.0000   1.0000   1.0000   1.0000   1.0000   1.0000
     1.0000   1.0000   1.0000   1.0000   1.0000   1.0000   1.0000   1.0000
     1.0000   1.0000   1.0000   1.0000   1.0000   1.0000   1.0000   1.0000
     1.0000   1.0000   1.0000   1.0000   1.0000   1.0000   1.0000   1.0000
     1.0000   1.0000   1.0000   1.0000   1.0000   1.0000   1.0000   1.0000
     1.0000   1.0000   1.0000   1.0000   1.0000   1.0000   1.0000   1.0000
     1.0000   1.0000   1.0000   1.0000   1.0000   1.0000   1.0000   1.0000
     1.0000   1.0000   1.0000   1.0000   1.0000   1.0000   1.0000   1.0000
     1.0000   1.0000   1.0000   1.0000   1.0000   1.0000   1.0000   1.0000
     1.0000   1.0000   1.0000   1.0000   1.0000   1.0000   1.0000   1.0000
     1.0000   1.0000   1.0000   1.0000   1.0000   1.0000   1.0000   1.0000
     1.0000   1.0000   1.0000   1.0000   1.0000   1.0000   1.0000   1.0000
     1.0000   1.0000   1.0000   1.0000   1.0000   1.0000   1.0000   1.0000
     1.0000   1.0000   1.0000   1.0000   1.0000   1.0000   1.0000   1.0000
     1.0000   1.0000   1.0000   1.0000   1.0000   1.0000   1.0000   1.0000
     1.0000   1.0000   1.0000   1.0000   1.0000   1.0000   1.0000   1.0000
     1.0000   1.0000   1.0000   1.0000   1.0000   1.0000   1.0000   1.0000
     1.0000   1.0000   1.0000   1.0000   1.0000   1.0000   1.0000   1.0000
     1.0000   1.0000   1.0000   1.0000   1.0000   1.0000   1.0000   1.0000
     1.0000   1.0000   1.0000   1.0000   1.0000   1.0000   1.0000   1.0000
     1.0000   1.0000   1.0000   1.0000   1.0000   1.0000   1.0000   1.0000
     1.0000   1.0000   1.0000   1.0000   1.0000   1.0000   1.0000   1.0000
     1.0000   1.0000   1.0000   1.0000   1.0000   1.0000   1.0000   1.0000
     1.0000   1.0000   1.0000   1.0000   1.0000   1.0000   1.0000   1.0000
     1.0000   1.0000   1.0000   1.0000   1.0000   1.0000   1.0000   1.0000
     1.0000   1.0000   1.0000   1.0000   1.0000   1.0000   1.0000   1.0000
     1.0000   1.0000   1.0000   1.0000   1.0000   1.0000   1.0000   1.0000
     1.0000   1.0000   1.0000   1.0000   1.0000   1.0000   1.0000   1.0000
     1.0000   1.0000   1.0000   1.0000   1.0000   1.0000   1.0000   1.0000
     1.0000   1.0000   1.0000   1.0000   1.0000   1.0000   1.0000   1.0000
     1.0000   1.0000   1.0000   1.0000   1.0000   1.0000   1.0000   1.0000
     1.0000   1.0000   1.0000   1.0000   1.0000   1.0000   1.0000   1.0000
     1.0000   1.0000   1.0000   1.0000   1.0000   1.0000   1.0000   1.0000
     1.0000   1.0000   1.0000   1.0000   1.0000   1.0000   1.0000   1.0000
     1.0000   1.0000   1.0000   1.0000   1.0000   1.0000   1.0000   1.0000
     1.0000   1.0000   1.0000   1.0000   1.0000   1.0000   1.0000   1.0000
     1.0000   1.0000   1.0000   1.0000   1.0000   1.0000   1.0000   1.0000
     1.0000   1.0000   1.0000   1.0000   1.0000   1.0000   1.0000   1.0000
     1.0000   1.0000   1.0000   1.0000   1.0000   1.0000   1.0000   1.0000
     1.0000   1.0000   1.0000   1.0000   1.0000   1.0000   1.0000   1.0000
     1.0000   1.0000   1.0000   1.0000   1.0000   1.0000   1.0000   1.0000
     1.0000   1.0000   1.0000   1.0000   1.0000   1.0000   1.0000   1.0000
     1.0000   1.0000   1.0000   1.0000   1.0000   1.0000   1.0000   1.0000
     1.0000   1.0000   1.0000   1.0000   1.0000   1.0000   1.0000   1.0000
     1.0000   1.0000   1.0000   1.0000   1.0000   1.0000   1.0000   1.0000
     1.0000   1.0000   1.0000   1.0000   1.0000   1.0000   1.0000   1.0000
     1.0000   1.0000   1.0000   1.0000   1.0000   1.0000   1.0000   1.0000
     1.0000   1.0000   1.0000   1.0000   1.0000   1.0000   1.0000   1.0000
     1.0000   1.0000   1.0000   1.0000   1.0000   1.0000   1.0000   1.0000
     1.0000   1.0000   1.0000   1.0000   1.0000   1.0000   1.0000   1.0000
     1.0000   1.0000   1.0000   1.0000   1.0000   1.0000   1.0000   1.0000
     1.0000   1.0000   1.0000   1.0000   1.0000   1.0000   1.0000   1.0000
     1.0000   1.0000   1.0000   1.0000   1.0000   1.0000   1.0000   1.0000
     1.0000   1.0000   1.0000   1.0000   1.0000   1.0000   1.0000   1.0000
     1.0000   1.0000   1.0000   1.0000   1.0000   1.0000   1.0000   1.0000
     1.0000   1.0000   1.0000   1.0000   1.0000   1.0000   1.0000   1.0000
     1.0000   1.0000   1.0000   1.0000   1.0000   1.0000   1.0000   1.0000
     1.0000   1.0000   1.0000   1.0000   1.0000   1.0000   1.0000   1.0000
     1.0000   1.0000   1.0000   1.0000   1.0000   1.0000   1.0000   1.0000
     1.0000   1.0000   1.0000   1.0000   1.0000   1.0000   1.0000   1.0000
     1.0000   1.0000   1.0000   1.0000   1.0000   1.0000   1.0000   1.0000
     1.0000   1.0000   1.0000   1.0000   1.0000   1.0000   1.0000   1.0000
     1.0000   1.0000   1.0000   1.0000   1.0000   1.0000   1.0000   1.0000
     1.0000   1.0000   1.0000   1.0000   1.0000   1.0000   1.0000   1.0000
     1.0000   1.0000   1.0000   1.0000   1.0000   1.0000   1.0000   1.0000
     1.0000   1.0000   1.0000   1.0000   1.0000   1.0000   1.0000   1.0000
     1.0000   1.0000   1.0000   1.0000   1.0000   1.0000   1.0000   1.0000
     1.0000   1.0000   1.0000   1.0000   1.0000   1.0000   1.0000   1.0000
     1.0000   1.0000   1.0000   1.0000   1.0000   1.0000   1.0000   1.0000
     1.0000   1.0000   1.0000   1.0000   1.0000   1.0000   1.0000   1.0000
     1.0000   1.0000   1.0000   1.0000   1.0000   1.0000   1.0000   1.0000
     1.0000   1.0000   1.0000   1.0000   1.0000   1.0000   1.0000   1.0000
     1.0000   1.0000   1.0000   1.0000   1.0000   1.0000   1.0000   1.0000
     1.0000   1.0000   1.0000   1.0000   1.0000   1.0000   1.0000   1.0000
     1.0000   1.0000   1.0000   1.0000   1.0000   1.0000   1.0000   1.0000
     1.0000   1.0000   1.0000   1.0000   1.0000   1.0000   1.0000   1.0000
     1.0000   1.0412   1.0428   1.0461   1.0473   1.0477   1.0509   0.2986
     0.2927   0.2897   0.2865   0.2697   0.2656   0.0056   0.0016   0.0015
     0.0014   0.0000   0.0000   0.0000   0.0000   0.0000   0.0000   0.0000
     0.0000   0.0000   0.0000   0.0000   0.0000   0.0000   0.0000   0.0000
     0.0000   0.0000   0.0000   0.0000   0.0000   0.0000   0.0000   0.0000
     0.0000   0.0000   0.0000   0.0000   0.0000   0.0000   0.0000   0.0000
     0.0000   0.0000   0.0000   0.0000   0.0000   0.0000   0.0000   0.0000
     0.0000   0.0000   0.0000   0.0000   0.0000   0.0000   0.0000   0.0000
     0.0000   0.0000   0.0000   0.0000   0.0000   0.0000   0.0000   0.0000
     0.0000   0.0000   0.0000   0.0000   0.0000   0.0000   0.0000   0.0000
     0.0000   0.0000   0.0000   0.0000   0.0000   0.0000   0.0000   0.0000
     0.0000   0.0000   0.0000   0.0000   0.0000   0.0000   0.0000   0.0000
     0.0000   0.0000   0.0000   0.0000   0.0000   0.0000   0.0000   0.0000
     0.0000   0.0000   0.0000   0.0000   0.0000   0.0000   0.0000   0.0000
     0.0000   0.0000   0.0000   0.0000   0.0000   0.0000   0.0000   0.0000
     0.0000   0.0000   0.0000   0.0000   0.0000   0.0000   0.0000   0.0000
     0.0000   0.0000   0.0000   0.0000   0.0000   0.0000   0.0000   0.0000
     0.0000   0.0000

          k = 0.0000 0.3849 0.0000 ( 42150 PWs)   bands (ev):

  -123.1528-123.1498-123.1491-123.1484-123.1479-123.1478-123.1476-123.1460
  -123.1452-123.1448-123.1445-123.1444-123.1442-123.1440-123.1438-123.1428
  -123.1238-123.1230-123.1172-123.1086-123.1079-123.1076-123.1071-123.1056
  -123.1045-123.1041-123.1037-123.1034-123.1030-123.1027-123.1021-123.1018
  -122.8550-122.8310-122.8299-122.8294-122.8291-122.8287-122.8283-122.8279
  -122.8279-122.8277-122.8276-122.8275-122.8275-122.8256-122.8254-122.8249
  -122.8244-122.8240-122.8221-122.8100-122.8093-122.8089-122.8084-122.8082
  -122.8077-122.8073-122.8053-122.8048-122.8044-122.8040-122.8002-122.7993
   -77.2590 -77.2586 -77.2553 -77.2521 -77.2520 -77.2511 -77.2505 -77.2445
   -77.2443 -77.2396 -77.2379 -77.2364 -77.2361 -77.2350 -77.2346 -77.2340
   -77.2338 -77.2337 -77.2328 -77.2321 -77.2320 -77.2313 -77.2306 -77.2306
   -77.2302 -77.2295 -77.2293 -77.2289 -77.2282 -77.2278 -77.2272 -77.2268
   -77.2267 -77.2262 -77.2253 -77.2250 -77.2237 -77.2235 -77.2228 -77.2225
   -77.2207 -77.2205 -77.2200 -77.2188 -77.2180 -77.2178 -77.2170 -77.2166
   -77.2159 -77.2152 -77.2150 -77.2146 -77.2139 -77.2127 -77.2108 -77.2071
   -77.2066 -77.2064 -77.2055 -77.2026 -77.2008 -77.2003 -77.1975 -77.1966
   -77.1948 -77.1941 -77.1923 -77.1920 -77.1919 -77.1911 -77.1902 -77.1891
   -77.1890 -77.1879 -77.1877 -77.1875 -77.1872 -77.1868 -77.1862 -77.1857
   -77.1853 -77.1849 -77.1846 -77.1845 -77.1833 -77.1831 -77.1811 -77.1796
   -77.1780 -77.1770 -77.1767 -77.1762 -77.1760 -77.1740 -77.1738 -77.1728
   -76.9471 -76.9431 -76.9412 -76.9375 -76.9374 -76.9340 -76.9309 -76.9308
   -76.9300 -76.9297 -76.9235 -76.9234 -76.9234 -76.9230 -76.9224 -76.9219
   -76.9210 -76.9207 -76.9204 -76.9200 -76.9197 -76.9194 -76.9190 -76.9188
   -76.9186 -76.9184 -76.9178 -76.9176 -76.9173 -76.9165 -76.9156 -76.9153
   -76.9151 -76.9150 -76.9149 -76.9145 -76.9129 -76.9127 -76.9126 -76.9092
   -76.9090 -76.9087 -76.9077 -76.9053 -76.9050 -76.9042 -76.9039 -76.9035
   -76.9033 -76.9031 -76.9027 -76.9019 -76.9017 -76.9015 -76.9011 -76.9009
   -76.9007 -76.9005 -76.9002 -76.8987 -76.8984 -76.8983 -76.8980 -76.8979
   -76.8975 -76.8972 -76.8969 -76.8969 -76.8966 -76.8963 -76.8954 -76.8953
   -76.8947 -76.8944 -76.8935 -76.8934 -76.8931 -76.8926 -76.8916 -76.8895
   -76.8880 -76.8867 -76.8850 -76.8831 -76.8818 -76.8807 -76.8794 -76.8781
   -76.8769 -76.8762 -76.8750 -76.8745 -76.8737 -76.8728 -76.8714 -76.8697
   -15.5513 -14.1550 -13.3261 -10.9607 -10.8544  -7.9287  -7.6467  -6.5943
    -5.9925  -5.7516  -5.5054  -5.4557  -5.4516  -5.1563  -5.1455  -5.0099
    -4.9253  -4.8895  -4.8866  -4.8793  -4.8565  -4.8559  -4.8462  -4.8459
    -4.8279  -4.7926  -4.7923  -4.7473  -4.6894  -4.6856  -4.6747  -4.6726
    -4.6724  -4.6676  -4.6601  -4.6595  -4.6297  -4.6289  -4.6114  -4.6104
    -4.6066  -4.6060  -4.5819  -4.5663  -4.5662  -4.5648  -4.5300  -4.5290
    -4.5267  -4.5258  -4.5085  -4.5064  -4.5049  -4.5042  -4.5029  -4.5023
    -4.4713  -4.4520  -4.4505  -4.4323  -4.4320  -4.4300  -4.4287  -4.4265
    -4.4113  -4.4045  -4.4038  -4.3866  -4.3719  -4.3709  -4.3671  -4.3648
    -4.3622  -4.3340  -4.3335  -4.3316  -4.3305  -4.3066  -4.3039  -4.2984
    -4.2955  -4.2947  -4.2641  -4.2637  -4.2588  -4.2485  -4.2472  -4.2463
    -4.2457  -4.2320  -4.2285  -4.2279  -4.2109  -4.2104  -4.2041  -4.2021
    -4.2014  -4.2006  -4.2002  -4.1857  -4.1853  -4.1566  -4.1541  -4.1410
    -4.1402  -4.1399  -4.1319  -4.1306  -4.1296  -4.1238  -4.1232  -4.1133
    -4.1041  -4.1006  -4.0979  -4.0962  -4.0954  -4.0915  -4.0905  -4.0848
    -4.0842  -4.0739  -4.0650  -4.0521  -4.0491  -4.0470  -4.0245  -4.0218
    -4.0216  -4.0203  -4.0193  -3.9979  -3.9964  -3.9926  -3.9814  -3.9783
    -3.9736  -3.9724  -3.9636  -3.9585  -3.9569  -3.9547  -3.9522  -3.9512
    -3.9499  -3.9211  -3.9208  -3.9189  -3.9164  -3.9161  -3.9137  -3.9129
    -3.8859  -3.8848  -3.8835  -3.8828  -3.8798  -3.8776  -3.8762  -3.8744
    -3.8718  -3.8707  -3.8653  -3.8643  -3.8476  -3.8433  -3.8410  -3.8397
    -3.8392  -3.8289  -3.8278  -3.8231  -3.8096  -3.8092  -3.8060  -3.7983
    -3.7943  -3.7937  -3.7924  -3.7888  -3.7873  -3.7817  -3.7660  -3.7654
    -3.7556  -3.7529  -3.7524  -3.7439  -3.7408  -3.7369  -3.7163  -3.7162
    -3.7097  -3.7079  -3.6914  -3.6878  -3.6738  -3.6730  -3.6722  -3.6657
    -3.6624  -3.6568  -3.6543  -3.6500  -3.6497  -3.6450  -3.6419  -3.6410
    -3.6385  -3.6356  -3.6342  -3.6325  -3.6272  -3.6257  -3.6131  -3.6119
    -3.6049  -3.6043  -3.6006  -3.6001  -3.5987  -3.5949  -3.5945  -3.5911
    -3.5886  -3.5863  -3.5850  -3.5801  -3.5768  -3.5760  -3.5733  -3.5727
    -3.5515  -3.5475  -3.5365  -3.5362  -3.5178  -3.5170  -3.5117  -3.5086
    -3.5068  -3.5066  -3.4884  -3.4878  -3.4875  -3.4834  -3.4831  -3.4815
    -3.4786  -3.4770  -3.4768  -3.4751  -3.4718  -3.4705  -3.4510  -3.4441
    -3.4434  -3.4407  -3.4394  -3.4389  -3.4378  -3.4372  -3.4367  -3.4314
    -3.4301  -3.4260  -3.4248  -3.4211  -3.4174  -3.4118  -3.4108  -3.4084
    -3.3911  -3.3905  -3.3841  -3.3835  -3.3761  -3.3757  -3.3716  -3.3668
    -3.3661  -3.3582  -3.3565  -3.3483  -3.3474  -3.3417  -3.3409  -3.3338
    -3.3301  -3.3287  -3.3276  -3.3245  -3.3236  -3.3226  -3.3192  -3.3133
    -3.3119  -3.3038  -3.3031  -3.3013  -3.2994  -3.2987  -3.2972  -3.2968
    -3.2939  -3.2932  -3.2919  -3.2894  -3.2867  -3.2845  -3.2815  -3.2802
    -3.2730  -3.2726  -3.2725  -3.2677  -3.2669  -3.2599  -3.2529  -3.2405
    -3.2247  -3.2242  -3.1973  -3.1964  -3.1925  -3.1921  -3.1735  -3.1726
    -3.1613  -3.1441  -3.1001  -3.0614  -3.0572  -3.0487  -3.0487  -3.0322
    -3.0306  -3.0152  -3.0091  -2.9914  -2.9839  -2.9829  -2.8852  -2.6887
    -2.6171  -2.4095  -2.1418  -2.1353  -2.1130  -1.9263  -1.9229  -1.8923
    -1.8891  -1.8046  -1.6198  -0.9140  -0.8988  -0.8646  -0.8562  -0.8253
    -0.8219  -0.7515  -0.7268  -0.2701  -0.2669  -0.1114  -0.1109  -0.1100
     0.2116   0.2301   0.2337   0.3086   0.3754   0.3759   0.4310   0.4357
     0.5327   1.0012   1.0014   1.2446   1.2926   1.2958   1.4353   1.4383
     1.4620   1.4861   1.8154   1.8176   1.8202   2.2580   2.2646   2.2689
     2.4596   2.4660   2.5285   2.5359   2.6195   2.8660   2.8686   2.9331
     2.9427   3.0088   3.0192   3.1482   3.9605   3.9647   4.1177   4.1199
     4.2866   4.2923   4.3989   4.4037   4.6052   4.7716   4.7729   4.9752
     5.0485   5.2107   5.2691   5.2709   5.4435   5.4437   5.7092   5.7139
     5.7707   5.7782   5.7788   5.7806   5.7958   5.8030   5.8256   6.1777
     6.3017   6.3037   6.3581   6.3589   6.3812   6.4430   6.6070   6.9230
     6.9253   6.9641   6.9695   6.9755   6.9898   7.0426   7.1592   7.2726
     7.2773   7.3211   7.3443   7.4110   7.5885   7.6323   7.6472   7.6671
     7.7927   7.8167   7.9097   7.9158   7.9437   7.9993   8.0271   8.0473
     8.1316   8.1366   8.1405   8.1439   8.2550   8.3201   8.3266   8.3609
     8.4491   8.5091   8.5823   8.6136   8.8153   8.8362   8.8679   8.8851
     8.9129   9.0348   9.1631   9.2122   9.2228   9.2281   9.2419   9.2501
     9.3625   9.3942   9.4215   9.4757   9.4949   9.5301   9.5563   9.5788
     9.5922   9.6340   9.6838   9.7874   9.8374   9.8635   9.8859   9.8901
     9.9598  10.0129  10.0660  10.1648  10.2328  10.2703  10.3208  10.3704
    10.4032  10.4273  10.4764  10.5026  10.5725  10.5818  10.5919  10.6304
    10.6407  10.7013  10.7731  10.8296  10.9248  10.9948  11.0499  11.1122
    11.1419  11.1468  11.1726  11.1813  11.1957  11.2559  11.3108  11.3675
    11.4191  11.5195

     occupation numbers 
     1.0000   1.0000   1.0000   1.0000   1.0000   1.0000   1.0000   1.0000
     1.0000   1.0000   1.0000   1.0000   1.0000   1.0000   1.0000   1.0000
     1.0000   1.0000   1.0000   1.0000   1.0000   1.0000   1.0000   1.0000
     1.0000   1.0000   1.0000   1.0000   1.0000   1.0000   1.0000   1.0000
     1.0000   1.0000   1.0000   1.0000   1.0000   1.0000   1.0000   1.0000
     1.0000   1.0000   1.0000   1.0000   1.0000   1.0000   1.0000   1.0000
     1.0000   1.0000   1.0000   1.0000   1.0000   1.0000   1.0000   1.0000
     1.0000   1.0000   1.0000   1.0000   1.0000   1.0000   1.0000   1.0000
     1.0000   1.0000   1.0000   1.0000   1.0000   1.0000   1.0000   1.0000
     1.0000   1.0000   1.0000   1.0000   1.0000   1.0000   1.0000   1.0000
     1.0000   1.0000   1.0000   1.0000   1.0000   1.0000   1.0000   1.0000
     1.0000   1.0000   1.0000   1.0000   1.0000   1.0000   1.0000   1.0000
     1.0000   1.0000   1.0000   1.0000   1.0000   1.0000   1.0000   1.0000
     1.0000   1.0000   1.0000   1.0000   1.0000   1.0000   1.0000   1.0000
     1.0000   1.0000   1.0000   1.0000   1.0000   1.0000   1.0000   1.0000
     1.0000   1.0000   1.0000   1.0000   1.0000   1.0000   1.0000   1.0000
     1.0000   1.0000   1.0000   1.0000   1.0000   1.0000   1.0000   1.0000
     1.0000   1.0000   1.0000   1.0000   1.0000   1.0000   1.0000   1.0000
     1.0000   1.0000   1.0000   1.0000   1.0000   1.0000   1.0000   1.0000
     1.0000   1.0000   1.0000   1.0000   1.0000   1.0000   1.0000   1.0000
     1.0000   1.0000   1.0000   1.0000   1.0000   1.0000   1.0000   1.0000
     1.0000   1.0000   1.0000   1.0000   1.0000   1.0000   1.0000   1.0000
     1.0000   1.0000   1.0000   1.0000   1.0000   1.0000   1.0000   1.0000
     1.0000   1.0000   1.0000   1.0000   1.0000   1.0000   1.0000   1.0000
     1.0000   1.0000   1.0000   1.0000   1.0000   1.0000   1.0000   1.0000
     1.0000   1.0000   1.0000   1.0000   1.0000   1.0000   1.0000   1.0000
     1.0000   1.0000   1.0000   1.0000   1.0000   1.0000   1.0000   1.0000
     1.0000   1.0000   1.0000   1.0000   1.0000   1.0000   1.0000   1.0000
     1.0000   1.0000   1.0000   1.0000   1.0000   1.0000   1.0000   1.0000
     1.0000   1.0000   1.0000   1.0000   1.0000   1.0000   1.0000   1.0000
     1.0000   1.0000   1.0000   1.0000   1.0000   1.0000   1.0000   1.0000
     1.0000   1.0000   1.0000   1.0000   1.0000   1.0000   1.0000   1.0000
     1.0000   1.0000   1.0000   1.0000   1.0000   1.0000   1.0000   1.0000
     1.0000   1.0000   1.0000   1.0000   1.0000   1.0000   1.0000   1.0000
     1.0000   1.0000   1.0000   1.0000   1.0000   1.0000   1.0000   1.0000
     1.0000   1.0000   1.0000   1.0000   1.0000   1.0000   1.0000   1.0000
     1.0000   1.0000   1.0000   1.0000   1.0000   1.0000   1.0000   1.0000
     1.0000   1.0000   1.0000   1.0000   1.0000   1.0000   1.0000   1.0000
     1.0000   1.0000   1.0000   1.0000   1.0000   1.0000   1.0000   1.0000
     1.0000   1.0000   1.0000   1.0000   1.0000   1.0000   1.0000   1.0000
     1.0000   1.0000   1.0000   1.0000   1.0000   1.0000   1.0000   1.0000
     1.0000   1.0000   1.0000   1.0000   1.0000   1.0000   1.0000   1.0000
     1.0000   1.0000   1.0000   1.0000   1.0000   1.0000   1.0000   1.0000
     1.0000   1.0000   1.0000   1.0000   1.0000   1.0000   1.0000   1.0000
     1.0000   1.0000   1.0000   1.0000   1.0000   1.0000   1.0000   1.0000
     1.0000   1.0000   1.0000   1.0000   1.0000   1.0000   1.0000   1.0000
     1.0000   1.0000   1.0000   1.0000   1.0000   1.0000   1.0000   1.0000
     1.0000   1.0000   1.0000   1.0000   1.0000   1.0000   1.0000   1.0000
     1.0000   1.0000   1.0000   1.0000   1.0000   1.0000   1.0000   1.0000
     1.0000   1.0000   1.0000   1.0000   1.0000   1.0000   1.0000   1.0000
     1.0000   1.0000   1.0000   1.0000   1.0000   1.0000   1.0000   1.0000
     1.0000   1.0000   1.0000   1.0000   1.0000   1.0000   1.0000   1.0000
     1.0000   1.0000   1.0000   1.0000   1.0000   1.0000   1.0000   1.0000
     1.0000   1.0000   1.0000   1.0000   1.0000   1.0000   1.0000   1.0000
     1.0000   1.0000   1.0000   1.0000   1.0000   1.0000   1.0000   1.0000
     1.0000   1.0000   1.0000   1.0000   1.0000   1.0000   1.0000   1.0000
     1.0000   1.0000   1.0000   1.0000   1.0000   1.0000   1.0000   1.0000
     1.0000   1.0000   1.0000   1.0000   1.0000   1.0000   1.0000   1.0000
     1.0000   1.0000   1.0000   1.0000   1.0000   1.0000   1.0000   1.0000
     1.0000   1.0000   1.0000   1.0000   1.0000   1.0000   1.0000   1.0000
     1.0000   1.0000   1.0000   1.0000   1.0000   1.0000   1.0000   1.0000
     1.0000   1.0000   1.0000   1.0000   1.0000   1.0000   1.0000   1.0000
     1.0000   1.0000   1.0000   1.0000   1.0000   1.0000   1.0000   1.0000
     1.0000   1.0000   1.0000   1.0000   1.0000   1.0000   1.0000   1.0000
     1.0000   1.0000   1.0000   1.0000   1.0000   1.0000   1.0000   1.0000
     1.0000   1.0000   1.0000   1.0000   1.0000   1.0000   1.0000   1.0000
     1.0000   1.0000   1.0000   1.0000   1.0000   1.0000   1.0000   1.0000
     1.0000   1.0000   1.0000   1.0000   1.0000   1.0000   1.0000   1.0000
     1.0000   1.0000   1.0000   1.0000   1.0000   1.0000   1.0000   1.0000
     1.0000   1.0000   1.0000   1.0000   1.0000   1.0000   1.0000   1.0000
     1.0000   1.0000   1.0000   1.0000   1.0000   1.0000   1.0000   1.0000
     1.0000   1.0000   1.0000   1.0000   1.0000   1.0000   1.0000   1.0000
     1.0000   1.0000   1.0000   1.0000   1.0000   1.0000   1.0000   1.0000
     1.0000   1.0000   1.0000   1.0000   1.0000   1.0000   1.0000   1.0000
     1.0000   1.0000   1.0000   1.0000   1.0000   1.0000   1.0000   1.0000
     1.0000   1.0000   1.0000   1.0000   1.0000   1.0000   1.0000   1.0000
     1.0000   1.0000   1.0000   1.0000   1.0000   1.0000   1.0000   1.0000
     1.0000   1.0000   1.0000   1.0000   1.0000   1.0000   1.0000   1.0000
     1.0000   1.0000   1.0000   1.0000   1.0000   1.0000   1.0000   1.0000
     1.0000   1.0000   1.0000   1.0000   1.0000   1.0000   1.0000   1.0000
     1.0000   1.0000   1.0000   1.0000   1.0000   1.0000   1.0000   1.0000
     1.0000   1.0000   1.0000   1.0000   1.0000   1.0000   1.0000   1.0000
     1.0000   1.0000   1.0001   1.0006   0.5455   0.5339   0.1857   0.1821
     0.0297   0.0276   0.0059   0.0054   0.0001   0.0000   0.0000   0.0000
     0.0000   0.0000   0.0000   0.0000   0.0000   0.0000   0.0000   0.0000
     0.0000   0.0000   0.0000   0.0000   0.0000   0.0000   0.0000   0.0000
     0.0000   0.0000   0.0000   0.0000   0.0000   0.0000   0.0000   0.0000
     0.0000   0.0000   0.0000   0.0000   0.0000   0.0000   0.0000   0.0000
     0.0000   0.0000   0.0000   0.0000   0.0000   0.0000   0.0000   0.0000
     0.0000   0.0000   0.0000   0.0000   0.0000   0.0000   0.0000   0.0000
     0.0000   0.0000   0.0000   0.0000   0.0000   0.0000   0.0000   0.0000
     0.0000   0.0000   0.0000   0.0000   0.0000   0.0000   0.0000   0.0000
     0.0000   0.0000   0.0000   0.0000   0.0000   0.0000   0.0000   0.0000
     0.0000   0.0000   0.0000   0.0000   0.0000   0.0000   0.0000   0.0000
     0.0000   0.0000   0.0000   0.0000   0.0000   0.0000   0.0000   0.0000
     0.0000   0.0000   0.0000   0.0000   0.0000   0.0000   0.0000   0.0000
     0.0000   0.0000   0.0000   0.0000   0.0000   0.0000   0.0000   0.0000
     0.0000   0.0000   0.0000   0.0000   0.0000   0.0000   0.0000   0.0000
     0.0000   0.0000   0.0000   0.0000   0.0000   0.0000   0.0000   0.0000
     0.0000   0.0000

          k = 0.3333 0.1925 0.0000 ( 42150 PWs)   bands (ev):

  -123.1528-123.1498-123.1491-123.1484-123.1479-123.1478-123.1476-123.1460
  -123.1452-123.1448-123.1445-123.1444-123.1442-123.1440-123.1438-123.1428
  -123.1238-123.1230-123.1172-123.1086-123.1079-123.1076-123.1071-123.1056
  -123.1045-123.1041-123.1037-123.1035-123.1030-123.1027-123.1021-123.1018
  -122.8550-122.8310-122.8299-122.8294-122.8291-122.8287-122.8283-122.8279
  -122.8279-122.8278-122.8277-122.8276-122.8274-122.8256-122.8254-122.8249
  -122.8244-122.8240-122.8221-122.8100-122.8093-122.8089-122.8084-122.8082
  -122.8077-122.8073-122.8053-122.8048-122.8044-122.8040-122.8002-122.7993
   -77.2590 -77.2586 -77.2554 -77.2520 -77.2520 -77.2511 -77.2506 -77.2445
   -77.2443 -77.2396 -77.2379 -77.2364 -77.2361 -77.2350 -77.2347 -77.2340
   -77.2338 -77.2337 -77.2328 -77.2321 -77.2319 -77.2313 -77.2307 -77.2306
   -77.2302 -77.2295 -77.2293 -77.2289 -77.2282 -77.2278 -77.2272 -77.2268
   -77.2267 -77.2262 -77.2253 -77.2250 -77.2237 -77.2236 -77.2227 -77.2225
   -77.2207 -77.2205 -77.2200 -77.2188 -77.2180 -77.2178 -77.2170 -77.2166
   -77.2159 -77.2152 -77.2151 -77.2147 -77.2139 -77.2127 -77.2108 -77.2070
   -77.2066 -77.2064 -77.2054 -77.2026 -77.2008 -77.2003 -77.1974 -77.1966
   -77.1948 -77.1941 -77.1924 -77.1922 -77.1916 -77.1909 -77.1904 -77.1892
   -77.1890 -77.1880 -77.1877 -77.1875 -77.1872 -77.1868 -77.1861 -77.1856
   -77.1854 -77.1849 -77.1846 -77.1845 -77.1834 -77.1831 -77.1811 -77.1796
   -77.1780 -77.1769 -77.1767 -77.1762 -77.1760 -77.1741 -77.1738 -77.1728
   -76.9471 -76.9431 -76.9412 -76.9375 -76.9374 -76.9339 -76.9308 -76.9308
   -76.9300 -76.9297 -76.9235 -76.9234 -76.9234 -76.9230 -76.9224 -76.9218
   -76.9211 -76.9207 -76.9204 -76.9200 -76.9197 -76.9194 -76.9190 -76.9189
   -76.9186 -76.9185 -76.9179 -76.9176 -76.9167 -76.9164 -76.9158 -76.9156
   -76.9152 -76.9150 -76.9148 -76.9144 -76.9129 -76.9128 -76.9126 -76.9092
   -76.9091 -76.9086 -76.9077 -76.9053 -76.9050 -76.9041 -76.9039 -76.9035
   -76.9033 -76.9031 -76.9026 -76.9020 -76.9018 -76.9015 -76.9011 -76.9010
   -76.9005 -76.9004 -76.9002 -76.8987 -76.8985 -76.8983 -76.8981 -76.8979
   -76.8975 -76.8972 -76.8970 -76.8969 -76.8966 -76.8963 -76.8954 -76.8953
   -76.8947 -76.8944 -76.8936 -76.8934 -76.8930 -76.8927 -76.8916 -76.8893
   -76.8881 -76.8867 -76.8850 -76.8830 -76.8818 -76.8807 -76.8794 -76.8781
   -76.8769 -76.8762 -76.8751 -76.8745 -76.8737 -76.8728 -76.8714 -76.8697
   -15.5513 -14.1550 -13.3261 -10.9607 -10.8544  -7.9287  -7.6467  -6.5943
    -5.9925  -5.7516  -5.5055  -5.4556  -5.4516  -5.1563  -5.1455  -5.0100
    -4.9253  -4.8895  -4.8865  -4.8794  -4.8565  -4.8558  -4.8462  -4.8459
    -4.8280  -4.7925  -4.7923  -4.7474  -4.6891  -4.6854  -4.6749  -4.6725
    -4.6724  -4.6676  -4.6600  -4.6595  -4.6296  -4.6289  -4.6114  -4.6104
    -4.6066  -4.6060  -4.5818  -4.5664  -4.5662  -4.5648  -4.5300  -4.5290
    -4.5267  -4.5258  -4.5085  -4.5065  -4.5050  -4.5041  -4.5028  -4.5023
    -4.4714  -4.4519  -4.4504  -4.4323  -4.4320  -4.4300  -4.4286  -4.4263
    -4.4113  -4.4047  -4.4040  -4.3862  -4.3719  -4.3711  -4.3669  -4.3647
    -4.3621  -4.3340  -4.3335  -4.3320  -4.3309  -4.3063  -4.3037  -4.2984
    -4.2955  -4.2949  -4.2641  -4.2637  -4.2587  -4.2485  -4.2472  -4.2463
    -4.2457  -4.2317  -4.2287  -4.2282  -4.2110  -4.2107  -4.2042  -4.2023
    -4.2012  -4.2006  -4.2002  -4.1857  -4.1853  -4.1564  -4.1540  -4.1411
    -4.1403  -4.1399  -4.1316  -4.1305  -4.1296  -4.1238  -4.1231  -4.1133
    -4.1042  -4.1009  -4.0980  -4.0963  -4.0954  -4.0918  -4.0907  -4.0850
    -4.0844  -4.0740  -4.0651  -4.0521  -4.0494  -4.0473  -4.0244  -4.0221
    -4.0215  -4.0201  -4.0191  -3.9977  -3.9960  -3.9923  -3.9814  -3.9781
    -3.9732  -3.9721  -3.9640  -3.9582  -3.9569  -3.9546  -3.9522  -3.9511
    -3.9500  -3.9214  -3.9208  -3.9194  -3.9164  -3.9163  -3.9137  -3.9131
    -3.8859  -3.8849  -3.8835  -3.8828  -3.8798  -3.8775  -3.8760  -3.8743
    -3.8719  -3.8709  -3.8653  -3.8643  -3.8478  -3.8433  -3.8409  -3.8396
    -3.8390  -3.8287  -3.8276  -3.8230  -3.8099  -3.8092  -3.8065  -3.7983
    -3.7941  -3.7936  -3.7922  -3.7887  -3.7872  -3.7816  -3.7660  -3.7654
    -3.7555  -3.7530  -3.7525  -3.7440  -3.7405  -3.7368  -3.7165  -3.7160
    -3.7101  -3.7081  -3.6913  -3.6877  -3.6740  -3.6728  -3.6722  -3.6656
    -3.6623  -3.6570  -3.6545  -3.6498  -3.6495  -3.6450  -3.6420  -3.6414
    -3.6386  -3.6357  -3.6343  -3.6325  -3.6271  -3.6256  -3.6133  -3.6122
    -3.6052  -3.6043  -3.6007  -3.6003  -3.5987  -3.5948  -3.5944  -3.5909
    -3.5884  -3.5861  -3.5848  -3.5801  -3.5768  -3.5760  -3.5734  -3.5729
    -3.5517  -3.5475  -3.5366  -3.5363  -3.5179  -3.5170  -3.5119  -3.5088
    -3.5070  -3.5069  -3.4885  -3.4876  -3.4873  -3.4833  -3.4829  -3.4813
    -3.4781  -3.4769  -3.4764  -3.4751  -3.4716  -3.4705  -3.4510  -3.4442
    -3.4436  -3.4406  -3.4394  -3.4390  -3.4378  -3.4372  -3.4367  -3.4315
    -3.4302  -3.4260  -3.4246  -3.4212  -3.4176  -3.4118  -3.4106  -3.4083
    -3.3911  -3.3905  -3.3841  -3.3835  -3.3759  -3.3756  -3.3716  -3.3668
    -3.3661  -3.3581  -3.3566  -3.3482  -3.3473  -3.3418  -3.3409  -3.3338
    -3.3301  -3.3288  -3.3277  -3.3246  -3.3236  -3.3226  -3.3194  -3.3133
    -3.3119  -3.3036  -3.3030  -3.3013  -3.2993  -3.2986  -3.2972  -3.2968
    -3.2939  -3.2933  -3.2919  -3.2894  -3.2867  -3.2844  -3.2812  -3.2800
    -3.2731  -3.2726  -3.2725  -3.2677  -3.2669  -3.2599  -3.2529  -3.2405
    -3.2247  -3.2242  -3.1973  -3.1965  -3.1926  -3.1922  -3.1735  -3.1725
    -3.1613  -3.1441  -3.1000  -3.0615  -3.0574  -3.0488  -3.0487  -3.0322
    -3.0306  -3.0152  -3.0091  -2.9915  -2.9839  -2.9829  -2.8853  -2.6887
    -2.6171  -2.4097  -2.1417  -2.1354  -2.1130  -1.9263  -1.9227  -1.8923
    -1.8891  -1.8046  -1.6196  -0.9140  -0.8988  -0.8645  -0.8563  -0.8252
    -0.8220  -0.7516  -0.7268  -0.2702  -0.2669  -0.1113  -0.1109  -0.1100
     0.2118   0.2301   0.2337   0.3086   0.3754   0.3760   0.4310   0.4356
     0.5327   1.0011   1.0013   1.2446   1.2927   1.2957   1.4352   1.4377
     1.4619   1.4857   1.8154   1.8177   1.8201   2.2581   2.2648   2.2690
     2.4597   2.4660   2.5286   2.5363   2.6195   2.8663   2.8688   2.9335
     2.9427   3.0088   3.0192   3.1483   3.9603   3.9647   4.1176   4.1200
     4.2860   4.2917   4.3989   4.4037   4.6052   4.7699   4.7720   4.9758
     5.0486   5.2108   5.2702   5.2720   5.4433   5.4435   5.7093   5.7139
     5.7721   5.7785   5.7787   5.7816   5.7962   5.8025   5.8252   6.1776
     6.3008   6.3027   6.3580   6.3590   6.3814   6.4431   6.6064   6.9227
     6.9251   6.9640   6.9694   6.9754   6.9898   7.0423   7.1593   7.2729
     7.2779   7.3210   7.3461   7.4120   7.5892   7.6321   7.6472   7.6661
     7.7916   7.8165   7.9092   7.9142   7.9423   8.0013   8.0269   8.0468
     8.1315   8.1363   8.1397   8.1430   8.2544   8.3214   8.3268   8.3614
     8.4487   8.5083   8.5835   8.6159   8.8177   8.8354   8.8688   8.8864
     8.9127   9.0343   9.1628   9.2136   9.2228   9.2279   9.2388   9.2508
     9.3621   9.3938   9.4221   9.4756   9.4944   9.5305   9.5556   9.5790
     9.5931   9.6349   9.6847   9.7858   9.8357   9.8628   9.8859   9.8900
     9.9572  10.0124  10.0657  10.1662  10.2331  10.2716  10.3218  10.3713
    10.4040  10.4254  10.4764  10.5093  10.5707  10.5822  10.5918  10.6286
    10.6405  10.7017  10.7732  10.8313  10.9261  10.9953  11.0486  11.1132
    11.1415  11.1474  11.1665  11.1807  11.1930  11.2565  11.3134  11.3674
    11.4161  11.5196

     occupation numbers 
     1.0000   1.0000   1.0000   1.0000   1.0000   1.0000   1.0000   1.0000
     1.0000   1.0000   1.0000   1.0000   1.0000   1.0000   1.0000   1.0000
     1.0000   1.0000   1.0000   1.0000   1.0000   1.0000   1.0000   1.0000
     1.0000   1.0000   1.0000   1.0000   1.0000   1.0000   1.0000   1.0000
     1.0000   1.0000   1.0000   1.0000   1.0000   1.0000   1.0000   1.0000
     1.0000   1.0000   1.0000   1.0000   1.0000   1.0000   1.0000   1.0000
     1.0000   1.0000   1.0000   1.0000   1.0000   1.0000   1.0000   1.0000
     1.0000   1.0000   1.0000   1.0000   1.0000   1.0000   1.0000   1.0000
     1.0000   1.0000   1.0000   1.0000   1.0000   1.0000   1.0000   1.0000
     1.0000   1.0000   1.0000   1.0000   1.0000   1.0000   1.0000   1.0000
     1.0000   1.0000   1.0000   1.0000   1.0000   1.0000   1.0000   1.0000
     1.0000   1.0000   1.0000   1.0000   1.0000   1.0000   1.0000   1.0000
     1.0000   1.0000   1.0000   1.0000   1.0000   1.0000   1.0000   1.0000
     1.0000   1.0000   1.0000   1.0000   1.0000   1.0000   1.0000   1.0000
     1.0000   1.0000   1.0000   1.0000   1.0000   1.0000   1.0000   1.0000
     1.0000   1.0000   1.0000   1.0000   1.0000   1.0000   1.0000   1.0000
     1.0000   1.0000   1.0000   1.0000   1.0000   1.0000   1.0000   1.0000
     1.0000   1.0000   1.0000   1.0000   1.0000   1.0000   1.0000   1.0000
     1.0000   1.0000   1.0000   1.0000   1.0000   1.0000   1.0000   1.0000
     1.0000   1.0000   1.0000   1.0000   1.0000   1.0000   1.0000   1.0000
     1.0000   1.0000   1.0000   1.0000   1.0000   1.0000   1.0000   1.0000
     1.0000   1.0000   1.0000   1.0000   1.0000   1.0000   1.0000   1.0000
     1.0000   1.0000   1.0000   1.0000   1.0000   1.0000   1.0000   1.0000
     1.0000   1.0000   1.0000   1.0000   1.0000   1.0000   1.0000   1.0000
     1.0000   1.0000   1.0000   1.0000   1.0000   1.0000   1.0000   1.0000
     1.0000   1.0000   1.0000   1.0000   1.0000   1.0000   1.0000   1.0000
     1.0000   1.0000   1.0000   1.0000   1.0000   1.0000   1.0000   1.0000
     1.0000   1.0000   1.0000   1.0000   1.0000   1.0000   1.0000   1.0000
     1.0000   1.0000   1.0000   1.0000   1.0000   1.0000   1.0000   1.0000
     1.0000   1.0000   1.0000   1.0000   1.0000   1.0000   1.0000   1.0000
     1.0000   1.0000   1.0000   1.0000   1.0000   1.0000   1.0000   1.0000
     1.0000   1.0000   1.0000   1.0000   1.0000   1.0000   1.0000   1.0000
     1.0000   1.0000   1.0000   1.0000   1.0000   1.0000   1.0000   1.0000
     1.0000   1.0000   1.0000   1.0000   1.0000   1.0000   1.0000   1.0000
[...]
     atom   78 type  4   force =     0.00000000    0.00000000    0.00000000
     atom   79 type  4   force =     0.00000000    0.00000000    0.00000000
     The Hubbard contrib.    to forces
     atom    1 type  1   force =     0.00000000    0.00000000    0.00000000
     atom    2 type  1   force =     0.00000000    0.00000000    0.00000000
     atom    3 type  1   force =     0.00000000    0.00000000    0.00000000
     atom    4 type  1   force =     0.00000000    0.00000000    0.00000000
     atom    5 type  1   force =     0.00000000    0.00000000    0.00000000
     atom    6 type  1   force =     0.00000000    0.00000000    0.00000000
     atom    7 type  1   force =     0.00000000    0.00000000    0.00000000
     atom    8 type  1   force =     0.00000000    0.00000000    0.00000000
     atom    9 type  1   force =     0.00000000    0.00000000    0.00000000
     atom   10 type  1   force =     0.00000000    0.00000000    0.00000000
     atom   11 type  1   force =     0.00000000    0.00000000    0.00000000
     atom   12 type  1   force =     0.00000000    0.00000000    0.00000000
     atom   13 type  1   force =     0.00000000    0.00000000    0.00000000
     atom   14 type  1   force =     0.00000000    0.00000000    0.00000000
     atom   15 type  1   force =     0.00000000    0.00000000    0.00000000
     atom   16 type  1   force =     0.00000000    0.00000000    0.00000000
     atom   17 type  1   force =     0.00000000    0.00000000    0.00000000
     atom   18 type  1   force =     0.00000000    0.00000000    0.00000000
     atom   19 type  1   force =     0.00000000    0.00000000    0.00000000
     atom   20 type  1   force =     0.00000000    0.00000000    0.00000000
     atom   21 type  1   force =     0.00000000    0.00000000    0.00000000
     atom   22 type  1   force =     0.00000000    0.00000000    0.00000000
     atom   23 type  1   force =     0.00000000    0.00000000    0.00000000
     atom   24 type  1   force =     0.00000000    0.00000000    0.00000000
     atom   25 type  1   force =     0.00000000    0.00000000    0.00000000
     atom   26 type  1   force =     0.00000000    0.00000000    0.00000000
     atom   27 type  1   force =     0.00000000    0.00000000    0.00000000
     atom   28 type  1   force =     0.00000000    0.00000000    0.00000000
     atom   29 type  1   force =     0.00000000    0.00000000    0.00000000
     atom   30 type  1   force =     0.00000000    0.00000000    0.00000000
     atom   31 type  1   force =     0.00000000    0.00000000    0.00000000
     atom   32 type  1   force =     0.00000000    0.00000000    0.00000000
     atom   33 type  1   force =     0.00000000    0.00000000    0.00000000
     atom   34 type  1   force =     0.00000000    0.00000000    0.00000000
     atom   35 type  1   force =     0.00000000    0.00000000    0.00000000
     atom   36 type  1   force =     0.00000000    0.00000000    0.00000000
     atom   37 type  1   force =     0.00000000    0.00000000    0.00000000
     atom   38 type  1   force =     0.00000000    0.00000000    0.00000000
     atom   39 type  1   force =     0.00000000    0.00000000    0.00000000
     atom   40 type  1   force =     0.00000000    0.00000000    0.00000000
     atom   41 type  1   force =     0.00000000    0.00000000    0.00000000
     atom   42 type  1   force =     0.00000000    0.00000000    0.00000000
     atom   43 type  1   force =     0.00000000    0.00000000    0.00000000
     atom   44 type  1   force =     0.00000000    0.00000000    0.00000000
     atom   45 type  1   force =     0.00000000    0.00000000    0.00000000
     atom   46 type  1   force =     0.00000000    0.00000000    0.00000000
     atom   47 type  1   force =     0.00000000    0.00000000    0.00000000
     atom   48 type  1   force =     0.00000000    0.00000000    0.00000000
     atom   49 type  1   force =     0.00000000    0.00000000    0.00000000
     atom   50 type  1   force =     0.00000000    0.00000000    0.00000000
     atom   51 type  1   force =     0.00000000    0.00000000    0.00000000
     atom   52 type  1   force =     0.00000000    0.00000000    0.00000000
     atom   53 type  1   force =     0.00000000    0.00000000    0.00000000
     atom   54 type  1   force =     0.00000000    0.00000000    0.00000000
     atom   55 type  1   force =     0.00000000    0.00000000    0.00000000
     atom   56 type  1   force =     0.00000000    0.00000000    0.00000000
     atom   57 type  1   force =     0.00000000    0.00000000    0.00000000
     atom   58 type  1   force =     0.00000000    0.00000000    0.00000000
     atom   59 type  1   force =     0.00000000    0.00000000    0.00000000
     atom   60 type  1   force =     0.00000000    0.00000000    0.00000000
     atom   61 type  1   force =     0.00000000    0.00000000    0.00000000
     atom   62 type  1   force =     0.00000000    0.00000000    0.00000000
     atom   63 type  1   force =     0.00000000    0.00000000    0.00000000
     atom   64 type  1   force =     0.00000000    0.00000000    0.00000000
     atom   65 type  2   force =     0.00000000    0.00000000    0.00000000
     atom   66 type  2   force =     0.00000000    0.00000000    0.00000000
     atom   67 type  2   force =     0.00000000    0.00000000    0.00000000
     atom   68 type  2   force =     0.00000000    0.00000000    0.00000000
     atom   69 type  2   force =     0.00000000    0.00000000    0.00000000
     atom   70 type  2   force =     0.00000000    0.00000000    0.00000000
     atom   71 type  2   force =     0.00000000    0.00000000    0.00000000
     atom   72 type  3   force =     0.00000000    0.00000000    0.00000000
     atom   73 type  3   force =     0.00000000    0.00000000    0.00000000
     atom   74 type  4   force =     0.00000000    0.00000000    0.00000000
     atom   75 type  4   force =     0.00000000    0.00000000    0.00000000
     atom   76 type  4   force =     0.00000000    0.00000000    0.00000000
     atom   77 type  4   force =     0.00000000    0.00000000    0.00000000
     atom   78 type  4   force =     0.00000000    0.00000000    0.00000000
     atom   79 type  4   force =     0.00000000    0.00000000    0.00000000
     The SCF correction term to forces
     atom    1 type  1   force =     0.00000000   -0.00000000    0.00000000
     atom    2 type  1   force =    -0.00000000    0.00000000    0.00000000
     atom    3 type  1   force =     0.00001145    0.00001237    0.00001462
     atom    4 type  1   force =    -0.00001425    0.00002513   -0.00001367
     atom    5 type  1   force =    -0.00000000    0.00000000    0.00000000
     atom    6 type  1   force =     0.00000000   -0.00000000    0.00000000
     atom    7 type  1   force =     0.00001542   -0.00001118    0.00001279
     atom    8 type  1   force =    -0.00001222    0.00000531   -0.00002228
     atom    9 type  1   force =    -0.00000000    0.00000000    0.00000000
     atom   10 type  1   force =     0.00000000   -0.00000000    0.00000000
     atom   11 type  1   force =    -0.00001418   -0.00000925   -0.00001079
     atom   12 type  1   force =     0.00001370   -0.00002336    0.00000553
     atom   13 type  1   force =     0.00000000   -0.00000000    0.00000000
     atom   14 type  1   force =    -0.00000000    0.00000000    0.00000000
     atom   15 type  1   force =    -0.00001246    0.00000884   -0.00000977
     atom   16 type  1   force =     0.00001532   -0.00000708    0.00001390
     atom   17 type  1   force =     0.00000000   -0.00000000    0.00000000
     atom   18 type  1   force =    -0.00000000    0.00000000    0.00000000
     atom   19 type  1   force =     0.00000101    0.00003266   -0.00001389
     atom   20 type  1   force =     0.00000141    0.00000102    0.00001647
     atom   21 type  1   force =     0.00000000   -0.00000000    0.00000000
     atom   22 type  1   force =    -0.00000000    0.00000000    0.00000000
     atom   23 type  1   force =     0.00002559   -0.00000276    0.00000448
     atom   24 type  1   force =    -0.00002749   -0.00000144   -0.00001428
     atom   25 type  1   force =    -0.00000000    0.00000000    0.00000000
     atom   26 type  1   force =     0.00000000   -0.00000000    0.00000000
     atom   27 type  1   force =     0.00002783   -0.00001771    0.00000673
     atom   28 type  1   force =    -0.00002665   -0.00001789   -0.00001347
     atom   29 type  1   force =    -0.00000000    0.00000000    0.00000000
     atom   30 type  1   force =     0.00000000   -0.00000000    0.00000000
     atom   31 type  1   force =    -0.00000011    0.00001780   -0.00000991
     atom   32 type  1   force =    -0.00000351   -0.00001353    0.00001535
     atom   33 type  1   force =     0.00000000    0.00000000   -0.00000000
     atom   34 type  1   force =    -0.00000000    0.00000000   -0.00000000
     atom   35 type  1   force =    -0.00001404    0.00001584   -0.00000813
     atom   36 type  1   force =     0.00001375   -0.00000368   -0.00000060
     atom   37 type  1   force =     0.00000000    0.00000000    0.00000000
     atom   38 type  1   force =    -0.00000000    0.00000000   -0.00000000
     atom   39 type  1   force =     0.00000676   -0.00000174   -0.00001156
     atom   40 type  1   force =    -0.00000725    0.00000329   -0.00001069
     atom   41 type  1   force =    -0.00000000    0.00000000   -0.00000000
     atom   42 type  1   force =     0.00000000   -0.00000000    0.00000000
     atom   43 type  1   force =     0.00001617   -0.00001542    0.00000029
     atom   44 type  1   force =    -0.00001667    0.00000371   -0.00002111
     atom   45 type  1   force =    -0.00000000    0.00000000   -0.00000000
     atom   46 type  1   force =     0.00000000   -0.00000000    0.00000000
     atom   47 type  1   force =    -0.00000535    0.00000334    0.00000488
     atom   48 type  1   force =     0.00000491   -0.00000530   -0.00001014
     atom   49 type  1   force =    -0.00000000    0.00000000   -0.00000000
     atom   50 type  1   force =     0.00000000   -0.00000000   -0.00000000
     atom   51 type  1   force =    -0.00000197    0.00001171   -0.00000371
     atom   52 type  1   force =     0.00000165    0.00000043   -0.00000599
     atom   53 type  1   force =     0.00000000    0.00000000    0.00000000
     atom   54 type  1   force =    -0.00000000    0.00000000   -0.00000000
     atom   55 type  1   force =    -0.00001200    0.00001165   -0.00002207
     atom   56 type  1   force =     0.00001165   -0.00001020   -0.00000123
     atom   57 type  1   force =     0.00000000   -0.00000000    0.00000000
     atom   58 type  1   force =    -0.00000000    0.00000000   -0.00000000
     atom   59 type  1   force =     0.00001021   -0.00000698   -0.00001519
     atom   60 type  1   force =    -0.00000994   -0.00000407   -0.00000362
     atom   61 type  1   force =    -0.00000000   -0.00000000   -0.00000000
     atom   62 type  1   force =     0.00000000   -0.00000000   -0.00000000
     atom   63 type  1   force =     0.00002026   -0.00000634    0.00000055
     atom   64 type  1   force =    -0.00001979    0.00000491   -0.00000715
     atom   65 type  2   force =     0.00000164   -0.00000102    0.00001148
     atom   66 type  2   force =     0.00000019   -0.00000013    0.00000186
     atom   67 type  2   force =    -0.00000280   -0.00000428   -0.00000120
     atom   68 type  2   force =     0.00000230    0.00000457   -0.00000123
     atom   69 type  2   force =     0.00000304    0.00000623   -0.00000302
     atom   70 type  2   force =    -0.00000387   -0.00000575   -0.00000301
     atom   71 type  2   force =    -0.00000016    0.00000009   -0.00000216
     atom   72 type  3   force =     0.00000165   -0.00000107    0.00001228
     atom   73 type  3   force =    -0.00000069    0.00000038   -0.00000559
     atom   74 type  4   force =     0.00000021    0.00000031   -0.00000050
     atom   75 type  4   force =    -0.00000016   -0.00000033   -0.00000050
     atom   76 type  4   force =    -0.00000070   -0.00000133    0.00000034
     atom   77 type  4   force =     0.00000078    0.00000128    0.00000030
     atom   78 type  4   force =     0.00000018    0.00000027   -0.00000002
     atom   79 type  4   force =    -0.00000015   -0.00000029   -0.00000002

     Total force =     0.055695     Total SCF correction =     0.000129


     Computing stress (Cartesian axis) and pressure


     negative rho (up, down):  3.653E-02 0.000E+00
          total   stress  (Ry/bohr**3)                   (kbar)     P=     -301.32
  -0.00205329  -0.00000137  -0.00000004         -302.05       -0.20       -0.01
  -0.00000137  -0.00205490  -0.00000032           -0.20     -302.29       -0.05
  -0.00000004  -0.00000032  -0.00203686           -0.01       -0.05     -299.63

     kinetic stress (kbar)  17267.06    -27.53    -11.24
                              -27.53  17235.07      6.55
                              -11.24      6.55  17286.60

     local   stress (kbar)**********   -741.95   -515.02
                             -741.95**********    304.45
                             -515.02    304.451517886.81

     nonloc. stress (kbar)  -1883.22      1.72      1.40
                                1.72  -1881.23     -0.83
                                1.40     -0.83  -1931.96

     hartree stress (kbar) 787379.32    278.87    203.98
                              278.87 787702.91   -120.55
                              203.98   -120.55-711998.90

     exc-cor stress (kbar)  -8418.48      1.30      0.67
                                1.30  -8416.97     -0.39
                                0.67     -0.39  -8424.96

     corecor stress (kbar)    -80.35     -0.64     -0.34
                               -0.64    -81.10      0.20
                               -0.34      0.20    -81.77

     ewald   stress (kbar) 707055.24    488.03    320.55
                              488.03 707621.88   -189.48
                              320.55   -189.48-813035.45

     hubbard stress (kbar)      0.00      0.00      0.00
                                0.00      0.00      0.00
                                0.00      0.00      0.00

     DFT-D   stress (kbar)      0.00      0.00      0.00
                                0.00      0.00      0.00
                                0.00      0.00      0.00

     XDM     stress (kbar)      0.00      0.00      0.00
                                0.00      0.00      0.00
                                0.00      0.00      0.00

     dft-nl  stress (kbar)      0.00      0.00      0.00
                                0.00      0.00      0.00
                                0.00      0.00      0.00

     TS-vdW  stress (kbar)      0.00      0.00      0.00
                                0.00      0.00      0.00
                                0.00      0.00      0.00

     MDB     stress (kbar)      0.00      0.00      0.00
                                0.00      0.00      0.00
                                0.00      0.00      0.00

     3D-RISM stress (kbar)      0.00      0.00      0.00
                                0.00      0.00      0.00
                                0.00      0.00      0.00


     Writing all to output data dir ./tmp/Zn002_4x4x2_primitive_14Avacumn_topsite_upright_ABN.save/ :
     XML data file, charge density, pseudopotentials, collected wavefunctions

     init_run     :     70.78s CPU     71.30s WALL (       1 calls)
     electrons    :   7404.71s CPU   7479.70s WALL (       1 calls)
     forces       :     61.84s CPU     62.20s WALL (       1 calls)
     stress       :    161.56s CPU    162.16s WALL (       1 calls)

     Called by init_run:
     wfcinit      :     70.27s CPU     70.76s WALL (       1 calls)
     wfcinit:atom :      0.04s CPU      0.05s WALL (       5 calls)
     wfcinit:wfcr :     69.75s CPU     70.22s WALL (       5 calls)
     potinit      :      0.09s CPU      0.09s WALL (       1 calls)
     hinit0       :      0.04s CPU      0.05s WALL (       1 calls)

     Called by electrons:
     c_bands      :   6947.22s CPU   7019.52s WALL (      27 calls)
     sum_band     :    446.75s CPU    449.34s WALL (      27 calls)
     v_of_rho     :      0.45s CPU      0.48s WALL (      27 calls)
     v_h          :      0.02s CPU      0.03s WALL (      27 calls)
     v_xc         :      0.46s CPU      0.49s WALL (      29 calls)
     newd         :      8.74s CPU      8.78s WALL (      27 calls)
     PAW_pot      :      1.75s CPU      1.77s WALL (      27 calls)
     mix_rho      :      0.15s CPU      0.16s WALL (      27 calls)

     Called by c_bands:
     init_us_2    :      4.79s CPU      4.81s WALL (     285 calls)
     cegterg      :   6936.87s CPU   7009.06s WALL (     135 calls)

     Called by sum_band:
     sum_band:wei :      0.12s CPU      0.12s WALL (      27 calls)
     sum_band:loo :    438.84s CPU    441.39s WALL (      27 calls)
     sum_band:buf :      0.98s CPU      0.99s WALL (     135 calls)
     sum_band:ini :      2.28s CPU      2.29s WALL (     135 calls)
     sum_band:cal :    398.51s CPU    400.75s WALL (     135 calls)
     sum_band:bec :      5.21s CPU      5.22s WALL (     135 calls)
     addusdens    :      7.23s CPU      7.25s WALL (      27 calls)
                                        0.00s GPU  (      27 calls)
     addusd:skk   :      0.10s CPU      0.10s WALL (     108 calls)
                                        0.00s GPU  (     108 calls)

     Called by *egterg:
     cdiaghg      :    956.51s CPU    995.42s WALL (     944 calls)
     cegterg:over :   1052.41s CPU   1056.87s WALL (     814 calls)
     cegterg:upda :    440.70s CPU    443.45s WALL (     814 calls)
     cegterg:last :   1535.60s CPU   1547.29s WALL (     279 calls)
     cdiaghg:chol :     64.67s CPU     64.83s WALL (     944 calls)
     cdiaghg:inve :     10.11s CPU     10.14s WALL (     944 calls)
     cdiaghg:para :    298.79s CPU    303.19s WALL (    1888 calls)
     h_psi        :   1895.94s CPU   1906.22s WALL (     954 calls)
     s_psi        :    808.42s CPU    810.35s WALL (     954 calls)
     g_psi        :      0.59s CPU      0.60s WALL (     814 calls)

     Called by h_psi:
     h_psi:calbec :    933.43s CPU    938.67s WALL (     954 calls)
     vloc_psi     :    147.98s CPU    149.37s WALL (     954 calls)
     add_vuspsi   :    812.73s CPU    815.26s WALL (     954 calls)

     General routines
     calbec       :   1408.36s CPU   1416.25s WALL (    1114 calls)
     fft          :      0.60s CPU      0.65s WALL (     323 calls)
     ffts         :      0.02s CPU      0.02s WALL (      27 calls)
     fftw         :    167.11s CPU    168.68s WALL (  608490 calls)

     Parallel routines

     PAW routines
     PAW_pot      :      1.75s CPU      1.77s WALL (      27 calls)

     PWSCF        :      2h 8m CPU      2h 9m WALL


   This run was terminated on:   6:13:18  25Mar2025            

=------------------------------------------------------------------------------=
   JOB DONE.
=------------------------------------------------------------------------------=
Note: The following floating-point exceptions are signalling: IEEE_DENORMAL
Note: The following floating-point exceptions are signalling: IEEE_DENORMAL
Note: The following floating-point exceptions are signalling: IEEE_DENORMAL
Note: The following floating-point exceptions are signalling: IEEE_DENORMAL
Note: The following floating-point exceptions are signalling: IEEE_DENORMAL
Note: The following floating-point exceptions are signalling: IEEE_DENORMAL
Note: The following floating-point exceptions are signalling: IEEE_DENORMAL
Note: The following floating-point exceptions are signalling: IEEE_DENORMAL
Note: The following floating-point exceptions are signalling: IEEE_DENORMAL
Note: The following floating-point exceptions are signalling: IEEE_DENORMAL
Note: The following floating-point exceptions are signalling: IEEE_DENORMAL
Note: The following floating-point exceptions are signalling: IEEE_DENORMAL
