--------------------------------------------------------------------------
By default, for Open MPI 4.0 and later, infiniband ports on a device
are not used by default.  The intent is to use UCX for these devices.
You can override this policy by setting the btl_openib_allow_ib MCA parameter
to true.

  Local host:              psid00
  Local adapter:           mlx5_0
  Local port:              1

--------------------------------------------------------------------------
--------------------------------------------------------------------------
WARNING: There was an error initializing an OpenFabrics device.

  Local host:   psid00
  Local device: mlx5_0
--------------------------------------------------------------------------

     Program PWSCF v.7.3.1 starts on 26Mar2025 at 15:23:37 

     This program is part of the open-source Quantum ESPRESSO suite
     for quantum simulation of materials; please cite
         "P. Giannozzi et al., J. Phys.:Condens. Matter 21 395502 (2009);
         "P. Giannozzi et al., J. Phys.:Condens. Matter 29 465901 (2017);
         "P. Giannozzi et al., J. Chem. Phys. 152 154105 (2020);
          URL http://www.quantum-espresso.org", 
     in publications or presentations arising from this work. More details at
     http://www.quantum-espresso.org/quote

     Parallel version (MPI), running on    35 processors

     MPI processes distributed on     1 nodes
     2535 MiB available memory on the printing compute node when the environment starts

     Waiting for input...
     Reading input from standard input

     Current dimensions of program PWSCF are:
     Max number of different atomic species (ntypx) = 10
     Max number of k-points (npk) =  40000
     Max angular momentum in pseudopotentials (lmaxx) =  4
     Found identity + ( -0.5000  0.0000  0.0000) symmetry
     This is a supercell, fractional translations are disabled

     R & G space division:  proc/nbgrp/npool/nimage =      35
     Subspace diagonalization in iterative solution of the eigenvalue problem:
     one sub-group per band group will be used
     custom distributed-memory algorithm (size of sub-group:  5*  5 procs)


     Parallelization info
     --------------------
     sticks:   dense  smooth     PW     G-vecs:    dense   smooth      PW
     Min         215     122     33                34314    14813    2139
     Max         216     124     34                34322    14824    2150
     Sum        7555    4303   1189              1201061   518755   75035

     Using Slab Decomposition



     bravais-lattice index     =            0
     lattice parameter (alat)  =      19.7617  a.u.
     unit-cell volume          =   15176.5939 (a.u.)^3
     number of atoms/cell      =           48
     number of atomic types    =            1
     number of electrons       =       960.00
     number of Kohn-Sham states=          576
     kinetic-energy cutoff     =      40.0000  Ry
     charge density cutoff     =     280.0000  Ry
     scf convergence threshold =      1.0E-06
     mixing beta               =       0.4000
     number of iterations used =            8  plain     mixing
     Exchange-correlation= SLA  PW   PBE  PBE
                           (   1   4   3   4   0   0   0)

     celldm(1)=  19.761696  celldm(2)=   0.000000  celldm(3)=   0.000000
     celldm(4)=   0.000000  celldm(5)=   0.000000  celldm(6)=   0.000000

     crystal axes: (cart. coord. in units of alat)
               a(1) = (   1.000000   0.000000   0.000000 )  
               a(2) = (  -0.500000   0.866025   0.000000 )  
               a(3) = (   0.000000   0.000000   2.270759 )  

     reciprocal axes: (cart. coord. in units 2 pi/alat)
               b(1) = (  1.000000  0.577350 -0.000000 )  
               b(2) = (  0.000000  1.154701  0.000000 )  
               b(3) = (  0.000000 -0.000000  0.440381 )  


     PseudoPot. # 1 for Zn read from file:
     /home/ys/qepseudo/SSSP_1.3.0_PBE_efficiency/Zn_pbe_v1.uspp.F.UPF
     MD5 check sum: df62231357ef9e81f77b2b3087fa5675
     Pseudo is Ultrasoft, Zval = 20.0
     Generated by new atomic code, or converted to UPF format
     Using radial grid of  943 points,  6 beta functions with: 
                l(1) =   0
                l(2) =   0
                l(3) =   1
                l(4) =   1
                l(5) =   2
                l(6) =   2
     Q(r) pseudized with  8 coefficients,  rinner =    1.100   1.100   1.100
                                                       1.100   1.100

     atomic species   valence    mass     pseudopotential
     Zn               20.00    65.38000     Zn( 1.00)

     No symmetry found


                                    s                        frac. trans.

      isym =  1     identity                                     

 cryst.   s( 1) = (     1          0          0      )
                  (     0          1          0      )
                  (     0          0          1      )

 cart.    s( 1) = (  1.0000000  0.0000000  0.0000000 )
                  (  0.0000000  1.0000000  0.0000000 )
                  (  0.0000000  0.0000000  1.0000000 )


   Cartesian axes

     site n.     atom                  positions (alat units)
         1        Zn     tau(   1) = (   0.0000000   0.1443375   0.1164998  )
         2        Zn     tau(   2) = (   0.5000000   0.1443375   0.1164998  )
         3        Zn     tau(   3) = (   0.0000000   0.1443375   0.5824993  )
         4        Zn     tau(   4) = (   0.5000000   0.1443375   0.5824993  )
         5        Zn     tau(   5) = (  -0.1250000   0.3608439   0.1164998  )
         6        Zn     tau(   6) = (   0.3750000   0.3608439   0.1164998  )
         7        Zn     tau(   7) = (  -0.1250000   0.3608439   0.5824993  )
         8        Zn     tau(   8) = (   0.3750000   0.3608439   0.5824993  )
         9        Zn     tau(   9) = (  -0.2500000   0.5773502   0.1164998  )
        10        Zn     tau(  10) = (   0.2500000   0.5773502   0.1164998  )
        11        Zn     tau(  11) = (  -0.2500000   0.5773502   0.5824993  )
        12        Zn     tau(  12) = (   0.2500000   0.5773502   0.5824993  )
        13        Zn     tau(  13) = (  -0.3750000   0.7938567   0.1164998  )
        14        Zn     tau(  14) = (   0.1250000   0.7938567   0.1164998  )
        15        Zn     tau(  15) = (  -0.3750000   0.7938567   0.5824993  )
        16        Zn     tau(  16) = (   0.1250000   0.7938567   0.5824993  )
        17        Zn     tau(  17) = (   0.2500000   0.1443375   0.1164998  )
        18        Zn     tau(  18) = (   0.7500000   0.1443375   0.1164998  )
        19        Zn     tau(  19) = (   0.2500000   0.1443375   0.5824993  )
        20        Zn     tau(  20) = (   0.7500000   0.1443375   0.5824993  )
        21        Zn     tau(  21) = (   0.1250000   0.3608439   0.1164998  )
        22        Zn     tau(  22) = (   0.6250000   0.3608439   0.1164998  )
        23        Zn     tau(  23) = (   0.1250000   0.3608439   0.5824993  )
        24        Zn     tau(  24) = (   0.6250000   0.3608439   0.5824993  )
        25        Zn     tau(  25) = (   0.0000000   0.5773502   0.1164998  )
        26        Zn     tau(  26) = (   0.5000000   0.5773502   0.1164998  )
        27        Zn     tau(  27) = (   0.0000000   0.5773502   0.5824993  )
        28        Zn     tau(  28) = (   0.5000000   0.5773502   0.5824993  )
        29        Zn     tau(  29) = (  -0.1250000   0.7938567   0.1164998  )
        30        Zn     tau(  30) = (   0.3750000   0.7938567   0.1164998  )
        31        Zn     tau(  31) = (  -0.1250000   0.7938567   0.5824993  )
        32        Zn     tau(  32) = (   0.3750000   0.7938567   0.5824993  )
        33        Zn     tau(  33) = (   0.1250000   0.0721688   0.3494996  )
        34        Zn     tau(  34) = (   0.6250000   0.0721688   0.3494996  )
        35        Zn     tau(  35) = (   0.0000000   0.2886752   0.3494996  )
        36        Zn     tau(  36) = (   0.5000000   0.2886752   0.3494996  )
        37        Zn     tau(  37) = (  -0.1250000   0.5051815   0.3494996  )
        38        Zn     tau(  38) = (   0.3750000   0.5051815   0.3494996  )
        39        Zn     tau(  39) = (  -0.2500000   0.7216879   0.3494996  )
        40        Zn     tau(  40) = (   0.2500000   0.7216879   0.3494996  )
        41        Zn     tau(  41) = (   0.3750000   0.0721688   0.3494996  )
        42        Zn     tau(  42) = (   0.8750000   0.0721688   0.3494996  )
        43        Zn     tau(  43) = (   0.2500000   0.2886752   0.3494996  )
        44        Zn     tau(  44) = (   0.7500000   0.2886752   0.3494996  )
        45        Zn     tau(  45) = (   0.1250000   0.5051815   0.3494996  )
        46        Zn     tau(  46) = (   0.6250000   0.5051815   0.3494996  )
        47        Zn     tau(  47) = (   0.0000000   0.7216879   0.3494996  )
        48        Zn     tau(  48) = (   0.5000000   0.7216879   0.3494996  )

   Crystallographic axes

     site n.     atom                  positions (cryst. coord.)
         1        Zn     tau(   1) = (  0.0833333  0.1666666  0.0513044  )
         2        Zn     tau(   2) = (  0.5833333  0.1666666  0.0513044  )
         3        Zn     tau(   3) = (  0.0833333  0.1666666  0.2565219  )
         4        Zn     tau(   4) = (  0.5833333  0.1666666  0.2565219  )
         5        Zn     tau(   5) = (  0.0833333  0.4166666  0.0513044  )
         6        Zn     tau(   6) = (  0.5833333  0.4166666  0.0513044  )
         7        Zn     tau(   7) = (  0.0833333  0.4166666  0.2565219  )
         8        Zn     tau(   8) = (  0.5833333  0.4166666  0.2565219  )
         9        Zn     tau(   9) = (  0.0833333  0.6666666  0.0513044  )
        10        Zn     tau(  10) = (  0.5833333  0.6666666  0.0513044  )
        11        Zn     tau(  11) = (  0.0833333  0.6666666  0.2565219  )
        12        Zn     tau(  12) = (  0.5833333  0.6666666  0.2565219  )
        13        Zn     tau(  13) = (  0.0833333  0.9166667  0.0513044  )
        14        Zn     tau(  14) = (  0.5833334  0.9166667  0.0513044  )
        15        Zn     tau(  15) = (  0.0833333  0.9166667  0.2565219  )
        16        Zn     tau(  16) = (  0.5833334  0.9166667  0.2565219  )
        17        Zn     tau(  17) = (  0.3333333  0.1666666  0.0513044  )
        18        Zn     tau(  18) = (  0.8333334  0.1666666  0.0513044  )
        19        Zn     tau(  19) = (  0.3333333  0.1666666  0.2565219  )
        20        Zn     tau(  20) = (  0.8333334  0.1666666  0.2565219  )
        21        Zn     tau(  21) = (  0.3333333  0.4166666  0.0513044  )
        22        Zn     tau(  22) = (  0.8333333  0.4166666  0.0513044  )
        23        Zn     tau(  23) = (  0.3333333  0.4166666  0.2565219  )
        24        Zn     tau(  24) = (  0.8333333  0.4166666  0.2565219  )
        25        Zn     tau(  25) = (  0.3333333  0.6666666  0.0513044  )
        26        Zn     tau(  26) = (  0.8333333  0.6666666  0.0513044  )
        27        Zn     tau(  27) = (  0.3333333  0.6666666  0.2565219  )
        28        Zn     tau(  28) = (  0.8333333  0.6666666  0.2565219  )
        29        Zn     tau(  29) = (  0.3333334  0.9166667  0.0513044  )
        30        Zn     tau(  30) = (  0.8333334  0.9166667  0.0513044  )
        31        Zn     tau(  31) = (  0.3333334  0.9166667  0.2565219  )
        32        Zn     tau(  32) = (  0.8333334  0.9166667  0.2565219  )
        33        Zn     tau(  33) = (  0.1666667  0.0833334  0.1539131  )
        34        Zn     tau(  34) = (  0.6666667  0.0833334  0.1539131  )
        35        Zn     tau(  35) = (  0.1666667  0.3333334  0.1539131  )
        36        Zn     tau(  36) = (  0.6666667  0.3333334  0.1539131  )
        37        Zn     tau(  37) = (  0.1666667  0.5833334  0.1539131  )
        38        Zn     tau(  38) = (  0.6666667  0.5833334  0.1539131  )
        39        Zn     tau(  39) = (  0.1666667  0.8333334  0.1539131  )
        40        Zn     tau(  40) = (  0.6666667  0.8333334  0.1539131  )
        41        Zn     tau(  41) = (  0.4166667  0.0833334  0.1539131  )
        42        Zn     tau(  42) = (  0.9166667  0.0833334  0.1539131  )
        43        Zn     tau(  43) = (  0.4166667  0.3333334  0.1539131  )
        44        Zn     tau(  44) = (  0.9166667  0.3333334  0.1539131  )
        45        Zn     tau(  45) = (  0.4166667  0.5833334  0.1539131  )
        46        Zn     tau(  46) = (  0.9166667  0.5833334  0.1539131  )
        47        Zn     tau(  47) = (  0.4166667  0.8333334  0.1539131  )
        48        Zn     tau(  48) = (  0.9166667  0.8333334  0.1539131  )

     number of k points=    10  Marzari-Vanderbilt smearing, width (Ry)=  0.1000
                       cart. coord. in units 2pi/alat
        k(    1) = (   0.0000000   0.0000000   0.0000000), wk =   0.1250000
        k(    2) = (   0.0000000   0.2886751   0.0000000), wk =   0.2500000
        k(    3) = (   0.0000000  -0.5773503   0.0000000), wk =   0.1250000
        k(    4) = (   0.2500000   0.1443376   0.0000000), wk =   0.2500000
        k(    5) = (   0.2500000   0.4330127   0.0000000), wk =   0.2500000
        k(    6) = (   0.2500000  -0.4330127   0.0000000), wk =   0.2500000
        k(    7) = (   0.2500000  -0.1443376   0.0000000), wk =   0.2500000
        k(    8) = (  -0.5000000  -0.2886751   0.0000000), wk =   0.1250000
        k(    9) = (  -0.5000000   0.0000000   0.0000000), wk =   0.2500000
        k(   10) = (  -0.5000000  -0.8660254   0.0000000), wk =   0.1250000

                       cryst. coord.
        k(    1) = (   0.0000000   0.0000000   0.0000000), wk =   0.1250000
        k(    2) = (   0.0000000   0.2500000   0.0000000), wk =   0.2500000
        k(    3) = (   0.0000000  -0.5000000   0.0000000), wk =   0.1250000
        k(    4) = (   0.2500000   0.0000000   0.0000000), wk =   0.2500000
        k(    5) = (   0.2500000   0.2500000   0.0000000), wk =   0.2500000
        k(    6) = (   0.2500000  -0.5000000   0.0000000), wk =   0.2500000
        k(    7) = (   0.2500000  -0.2500000   0.0000000), wk =   0.2500000
        k(    8) = (  -0.5000000   0.0000000   0.0000000), wk =   0.1250000
        k(    9) = (  -0.5000000   0.2500000   0.0000000), wk =   0.2500000
        k(   10) = (  -0.5000000  -0.5000000   0.0000000), wk =   0.1250000

     Dense  grid:  1201061 G-vectors     FFT dimensions: ( 108, 108, 240)

     Smooth grid:   518755 G-vectors     FFT dimensions: (  80,  80, 192)

     Dynamical RAM for                 wfc:      16.28 MB

     Dynamical RAM for     wfc (w. buffer):     179.05 MB

     Dynamical RAM for           str. fact:       0.52 MB

     Dynamical RAM for           local pot:       0.00 MB

     Dynamical RAM for          nlocal pot:      24.42 MB

     Dynamical RAM for                qrad:       1.34 MB

     Dynamical RAM for          rho,v,vnew:       3.44 MB

     Dynamical RAM for               rhoin:       1.15 MB

     Dynamical RAM for            rho*nmix:       8.38 MB

     Dynamical RAM for           G-vectors:       2.08 MB

     Dynamical RAM for          h,s,v(r/c):       2.42 MB

     Dynamical RAM for          <psi|beta>:       7.59 MB

     Dynamical RAM for                 psi:      32.55 MB

     Dynamical RAM for                hpsi:      32.55 MB

     Dynamical RAM for                spsi:      32.55 MB

     Dynamical RAM for      wfcinit/wfcrot:      44.18 MB

     Dynamical RAM for           addusdens:     122.53 MB

     Estimated static dynamical RAM per process >     216.16 MB

     Estimated max dynamical RAM per process >     347.06 MB

     Estimated total dynamical RAM >      11.86 GB

     Initial potential from superposition of free atoms

     starting charge     959.9932, renormalised to     960.0000

     negative rho (up, down):  4.194E-03 0.000E+00
     Starting wfcs are  624 randomized atomic wfcs
[psid00:128117] 34 more processes have sent help message help-mpi-btl-openib.txt / ib port not selected
[psid00:128117] Set MCA parameter "orte_base_help_aggregate" to 0 to see all help / error messages
[psid00:128117] 34 more processes have sent help message help-mpi-btl-openib.txt / error in device init

     total cpu time spent up to now is      115.9 secs

     Self-consistent Calculation

     iteration #  1     ecut=    40.00 Ry     beta= 0.40
     Davidson diagonalization with overlap

---- Real-time Memory Report at c_bands before calling an iterative solver
           279 MiB given to the printing process from OS
             0 MiB allocation reported by mallinfo(arena+hblkhd)
          2664 MiB available memory on the node where the printing process lives
------------------
     ethr =  1.00E-02,  avg # of iterations = 10.6

     Threshold (ethr) on eigenvalues was too large:
     Diagonalizing with lowered threshold

     Davidson diagonalization with overlap

---- Real-time Memory Report at c_bands before calling an iterative solver
           367 MiB given to the printing process from OS
             0 MiB allocation reported by mallinfo(arena+hblkhd)
          3673 MiB available memory on the node where the printing process lives
------------------
     ethr =  1.58E-04,  avg # of iterations = 10.1

     negative rho (up, down):  4.948E-03 0.000E+00

     total cpu time spent up to now is     1096.4 secs

     total energy              =  -22153.82136730 Ry
     estimated scf accuracy    <       1.54874719 Ry

     iteration #  2     ecut=    40.00 Ry     beta= 0.40
     Davidson diagonalization with overlap

---- Real-time Memory Report at c_bands before calling an iterative solver
           376 MiB given to the printing process from OS
             0 MiB allocation reported by mallinfo(arena+hblkhd)
          4173 MiB available memory on the node where the printing process lives
------------------
     ethr =  1.61E-04,  avg # of iterations =  2.0

     negative rho (up, down):  5.477E-03 0.000E+00

     total cpu time spent up to now is     1563.2 secs

     total energy              =  -22154.19467920 Ry
     estimated scf accuracy    <       0.27409023 Ry

     iteration #  3     ecut=    40.00 Ry     beta= 0.40
     Davidson diagonalization with overlap

---- Real-time Memory Report at c_bands before calling an iterative solver
           379 MiB given to the printing process from OS
             0 MiB allocation reported by mallinfo(arena+hblkhd)
          4156 MiB available memory on the node where the printing process lives
------------------
     ethr =  2.86E-05,  avg # of iterations =  7.3

     negative rho (up, down):  5.739E-03 0.000E+00

     total cpu time spent up to now is     1997.3 secs

     total energy              =  -22154.21061758 Ry
     estimated scf accuracy    <       0.04880032 Ry

     iteration #  4     ecut=    40.00 Ry     beta= 0.40
     Davidson diagonalization with overlap

---- Real-time Memory Report at c_bands before calling an iterative solver
           380 MiB given to the printing process from OS
             0 MiB allocation reported by mallinfo(arena+hblkhd)
          4139 MiB available memory on the node where the printing process lives
------------------
     c_bands:  1 eigenvalues not converged
     ethr =  5.08E-06,  avg # of iterations = 11.0

     negative rho (up, down):  5.894E-03 0.000E+00

     total cpu time spent up to now is     2478.3 secs

     total energy              =  -22154.20933639 Ry
     estimated scf accuracy    <       0.04671015 Ry

     iteration #  5     ecut=    40.00 Ry     beta= 0.40
     Davidson diagonalization with overlap

---- Real-time Memory Report at c_bands before calling an iterative solver
           380 MiB given to the printing process from OS
             0 MiB allocation reported by mallinfo(arena+hblkhd)
          4123 MiB available memory on the node where the printing process lives
------------------
     ethr =  4.87E-06,  avg # of iterations =  3.5

     negative rho (up, down):  5.935E-03 0.000E+00

     total cpu time spent up to now is     2919.0 secs

     total energy              =  -22154.21428389 Ry
     estimated scf accuracy    <       0.00233991 Ry

     iteration #  6     ecut=    40.00 Ry     beta= 0.40
     Davidson diagonalization with overlap

---- Real-time Memory Report at c_bands before calling an iterative solver
           381 MiB given to the printing process from OS
             0 MiB allocation reported by mallinfo(arena+hblkhd)
          4127 MiB available memory on the node where the printing process lives
------------------
     ethr =  2.44E-07,  avg # of iterations =  3.1

     negative rho (up, down):  5.965E-03 0.000E+00

     total cpu time spent up to now is     3392.4 secs

     total energy              =  -22154.21454855 Ry
     estimated scf accuracy    <       0.00098348 Ry

     iteration #  7     ecut=    40.00 Ry     beta= 0.40
     Davidson diagonalization with overlap

---- Real-time Memory Report at c_bands before calling an iterative solver
           381 MiB given to the printing process from OS
             0 MiB allocation reported by mallinfo(arena+hblkhd)
          4100 MiB available memory on the node where the printing process lives
------------------
     ethr =  1.02E-07,  avg # of iterations =  3.7

     negative rho (up, down):  5.986E-03 0.000E+00

     total cpu time spent up to now is     3804.7 secs

     total energy              =  -22154.21466964 Ry
     estimated scf accuracy    <       0.00073296 Ry

     iteration #  8     ecut=    40.00 Ry     beta= 0.40
     Davidson diagonalization with overlap

---- Real-time Memory Report at c_bands before calling an iterative solver
           382 MiB given to the printing process from OS
             0 MiB allocation reported by mallinfo(arena+hblkhd)
          4088 MiB available memory on the node where the printing process lives
------------------
     ethr =  7.64E-08,  avg # of iterations =  1.0

     negative rho (up, down):  6.002E-03 0.000E+00

     total cpu time spent up to now is     4112.6 secs

     total energy              =  -22154.21468923 Ry
     estimated scf accuracy    <       0.00005303 Ry

     iteration #  9     ecut=    40.00 Ry     beta= 0.40
     Davidson diagonalization with overlap

---- Real-time Memory Report at c_bands before calling an iterative solver
           382 MiB given to the printing process from OS
             0 MiB allocation reported by mallinfo(arena+hblkhd)
          4073 MiB available memory on the node where the printing process lives
------------------
     ethr =  5.52E-09,  avg # of iterations =  2.5

     negative rho (up, down):  6.012E-03 0.000E+00

     total cpu time spent up to now is     4629.0 secs

     total energy              =  -22154.21470378 Ry
     estimated scf accuracy    <       0.00001621 Ry

     iteration # 10     ecut=    40.00 Ry     beta= 0.40
     Davidson diagonalization with overlap

---- Real-time Memory Report at c_bands before calling an iterative solver
           383 MiB given to the printing process from OS
             0 MiB allocation reported by mallinfo(arena+hblkhd)
          4051 MiB available memory on the node where the printing process lives
------------------
     ethr =  1.69E-09,  avg # of iterations =  2.0

     negative rho (up, down):  6.019E-03 0.000E+00

     total cpu time spent up to now is     5128.9 secs

     total energy              =  -22154.21470883 Ry
     estimated scf accuracy    <       0.00000161 Ry

     iteration # 11     ecut=    40.00 Ry     beta= 0.40
     Davidson diagonalization with overlap

---- Real-time Memory Report at c_bands before calling an iterative solver
           383 MiB given to the printing process from OS
             0 MiB allocation reported by mallinfo(arena+hblkhd)
          3626 MiB available memory on the node where the printing process lives
------------------
     ethr =  1.68E-10,  avg # of iterations =  1.0

     negative rho (up, down):  6.023E-03 0.000E+00

     total cpu time spent up to now is     5447.6 secs

     total energy              =  -22154.21470824 Ry
     estimated scf accuracy    <       0.00000140 Ry

     iteration # 12     ecut=    40.00 Ry     beta= 0.40
     Davidson diagonalization with overlap

---- Real-time Memory Report at c_bands before calling an iterative solver
           383 MiB given to the printing process from OS
             0 MiB allocation reported by mallinfo(arena+hblkhd)
          3982 MiB available memory on the node where the printing process lives
------------------
     ethr =  1.46E-10,  avg # of iterations =  2.0

     negative rho (up, down):  6.030E-03 0.000E+00

     total cpu time spent up to now is     5890.6 secs

     End of self-consistent calculation

          k = 0.0000 0.0000 0.0000 ( 64855 PWs)   bands (ev):

  -125.0885-125.0867-125.0867-125.0867-125.0867-125.0867-125.0867-125.0850
  -125.0850-125.0850-125.0850-125.0850-125.0850-125.0850-125.0850-125.0850
  -124.8809-124.8809-124.8792-124.8792-124.8792-124.8792-124.8792-124.8792
  -124.8792-124.8792-124.8792-124.8792-124.8792-124.8792-124.8775-124.8775
  -124.8775-124.8775-124.8775-124.8775-124.8775-124.8774-124.8774-124.8774
  -124.8774-124.8774-124.8774-124.8774-124.8774-124.8774-124.8774-124.8774
   -79.2546 -79.2546 -79.2546 -79.2480 -79.2480 -79.2480 -79.2480 -79.2479
   -79.2479 -79.2376 -79.2366 -79.2366 -79.2366 -79.2366 -79.2366 -79.2366
   -79.2356 -79.2356 -79.2356 -79.2356 -79.2356 -79.2355 -79.2346 -79.2346
   -79.2346 -79.2346 -79.2346 -79.2346 -79.2336 -79.2336 -79.2336 -79.2336
   -79.2336 -79.2336 -79.2336 -79.2336 -79.2336 -79.2280 -79.2280 -79.2280
   -79.2232 -79.2232 -79.2232 -79.2232 -79.2232 -79.2232 -79.2185 -79.2185
   -79.0450 -79.0450 -79.0450 -79.0450 -79.0450 -79.0450 -79.0384 -79.0384
   -79.0384 -79.0384 -79.0384 -79.0384 -79.0383 -79.0383 -79.0383 -79.0383
   -79.0383 -79.0383 -79.0362 -79.0360 -79.0343 -79.0343 -79.0343 -79.0343
   -79.0343 -79.0343 -79.0342 -79.0342 -79.0342 -79.0342 -79.0342 -79.0342
   -79.0324 -79.0324 -79.0324 -79.0324 -79.0324 -79.0324 -79.0324 -79.0323
   -79.0323 -79.0323 -79.0323 -79.0323 -79.0323 -79.0323 -79.0323 -79.0323
   -79.0323 -79.0323 -79.0270 -79.0270 -79.0270 -79.0270 -79.0270 -79.0270
   -79.0270 -79.0270 -79.0270 -79.0270 -79.0270 -79.0270 -79.0250 -79.0250
   -79.0250 -79.0250 -79.0250 -79.0250 -79.0250 -79.0250 -79.0250 -79.0250
   -79.0250 -79.0250 -79.0184 -79.0184 -79.0184 -79.0184 -79.0184 -79.0184
   -79.0137 -79.0137 -79.0137 -79.0137 -79.0137 -79.0137 -79.0137 -79.0137
   -79.0137 -79.0137 -79.0137 -79.0137 -79.0090 -79.0090 -79.0090 -79.0090
    -8.6521  -7.4250  -7.1138  -7.0960  -7.0960  -7.0960  -7.0960  -7.0960
    -7.0960  -6.9362  -6.9362  -6.9362  -6.7478  -6.7478  -6.7478  -6.6992
    -6.6992  -6.6992  -6.6110  -6.6110  -6.6110  -6.6110  -6.6110  -6.6110
    -6.5629  -6.5629  -6.5629  -6.5629  -6.5629  -6.5629  -6.5577  -6.5577
    -6.5577  -6.5019  -6.5019  -6.5019  -6.5019  -6.5019  -6.5019  -6.4535
    -6.4535  -6.4535  -6.4535  -6.4535  -6.4535  -6.3571  -6.3571  -6.3571
    -6.3571  -6.3571  -6.3571  -6.3539  -6.3539  -6.3539  -6.2948  -6.2948
    -6.2948  -6.2948  -6.2948  -6.2948  -6.2912  -6.2325  -6.2325  -6.2325
    -6.2324  -6.2324  -6.2324  -6.1925  -6.1925  -6.1925  -6.1925  -6.1925
    -6.1925  -6.1669  -6.1669  -6.1669  -6.1669  -6.1669  -6.1669  -6.1432
    -6.1432  -6.1428  -6.1428  -6.1428  -6.1428  -6.1428  -6.1428  -6.1175
    -6.1175  -6.1175  -6.1175  -6.1175  -6.1175  -6.1164  -6.1164  -6.1164
    -6.0149  -6.0149  -6.0149  -6.0149  -6.0149  -6.0149  -5.9368  -5.9368
    -5.9179  -5.9179  -5.8847  -5.8847  -5.8847  -5.8847  -5.8847  -5.8847
    -5.8826  -5.8826  -5.8826  -5.8826  -5.8826  -5.8826  -5.8537  -5.8537
    -5.8537  -5.8022  -5.8022  -5.8022  -5.8021  -5.8021  -5.8021  -5.7962
    -5.7962  -5.7962  -5.7962  -5.7962  -5.7962  -5.7959  -5.7959  -5.7959
    -5.7959  -5.7959  -5.7959  -5.7733  -5.7733  -5.7733  -5.7733  -5.7733
    -5.7733  -5.7667  -5.7667  -5.7667  -5.7667  -5.7667  -5.7667  -5.7489
    -5.7489  -5.7489  -5.7489  -5.7489  -5.7489  -5.7365  -5.7276  -5.7276
    -5.7276  -5.7276  -5.7276  -5.7276  -5.7168  -5.7168  -5.7168  -5.6322
    -5.6322  -5.5944  -5.5944  -5.5944  -5.5944  -5.5943  -5.5943  -5.5878
    -5.5878  -5.5878  -5.5878  -5.5878  -5.5878  -5.5647  -5.5647  -5.5647
    -5.5647  -5.5647  -5.5647  -5.5475  -5.5475  -5.5475  -5.5225  -5.5225
    -5.5225  -5.5225  -5.5225  -5.5225  -5.5137  -5.5137  -5.5137  -5.5137
    -5.5136  -5.5136  -5.4639  -5.4639  -5.4639  -5.4639  -5.4639  -5.4639
    -5.4528  -5.4528  -5.4528  -5.4521  -5.4521  -5.4521  -5.4148  -5.4148
    -5.4148  -5.4098  -5.4098  -5.4098  -5.4098  -5.4098  -5.4098  -5.4014
    -5.4014  -5.3805  -5.3805  -5.3381  -5.3381  -5.3380  -5.3380  -5.3380
    -5.3380  -5.3097  -5.3097  -5.3097  -5.3097  -5.3097  -5.3097  -5.3018
    -5.3018  -5.3018  -5.0912  -5.0912  -5.0912  -5.0910  -5.0910  -5.0910
    -4.4203  -4.4203  -4.4203  -4.4203  -4.4203  -4.4203  -3.4649  -2.1309
    -2.1309  -2.1309  -2.1309  -2.1309  -2.1309  -2.0375  -2.0375  -2.0375
    -2.0375  -2.0375  -2.0375  -0.8710  -0.8710  -0.8710  -0.7280  -0.6651
    -0.6651  -0.6651  -0.6651  -0.6651  -0.6651  -0.1120  -0.1120  -0.1120
     0.2189   0.2189   0.2189   1.5172   1.5172   1.5172   1.5172   1.5172
     1.5172   1.5639   1.5639   1.5639   1.5639   1.5639   1.5640   2.2842
     2.2842   2.2842   3.0958   3.2799   3.2799   3.2799   4.1253   4.1253
     4.1253   4.8727   4.8727   4.8727   4.8728   4.8728   4.8728   5.0788
     5.2757   5.4060   5.4060   5.4060   5.4060   5.4060   5.4060   5.4092
     5.4092   5.4092   5.4092   5.4092   5.4092   5.5765   5.5765   5.5765
     5.5765   5.5765   5.5765   6.2049   6.4050   6.5467   6.5467   6.5467
     6.8766   6.8766   6.8766   6.8766   6.8766   6.8766   6.9842   6.9842
     6.9842   6.9842   6.9842   6.9842   7.1117   7.1117   7.1117   7.1117
     7.1117   7.1117   7.1655   7.1655   7.1655   7.1655   7.1656   7.1656
     8.0435   8.0435   8.0435   8.0435   8.0435   8.0435   8.1334   8.1334
     8.1334   8.1334   8.1334   8.1334   8.1920   8.1920   8.1920   8.1920
     8.1920   8.1920   8.2136   8.3566   8.3566   8.3566   8.3663   9.2550

     occupation numbers 
     1.0000   1.0000   1.0000   1.0000   1.0000   1.0000   1.0000   1.0000
     1.0000   1.0000   1.0000   1.0000   1.0000   1.0000   1.0000   1.0000
     1.0000   1.0000   1.0000   1.0000   1.0000   1.0000   1.0000   1.0000
     1.0000   1.0000   1.0000   1.0000   1.0000   1.0000   1.0000   1.0000
     1.0000   1.0000   1.0000   1.0000   1.0000   1.0000   1.0000   1.0000
     1.0000   1.0000   1.0000   1.0000   1.0000   1.0000   1.0000   1.0000
     1.0000   1.0000   1.0000   1.0000   1.0000   1.0000   1.0000   1.0000
     1.0000   1.0000   1.0000   1.0000   1.0000   1.0000   1.0000   1.0000
     1.0000   1.0000   1.0000   1.0000   1.0000   1.0000   1.0000   1.0000
     1.0000   1.0000   1.0000   1.0000   1.0000   1.0000   1.0000   1.0000
     1.0000   1.0000   1.0000   1.0000   1.0000   1.0000   1.0000   1.0000
     1.0000   1.0000   1.0000   1.0000   1.0000   1.0000   1.0000   1.0000
     1.0000   1.0000   1.0000   1.0000   1.0000   1.0000   1.0000   1.0000
     1.0000   1.0000   1.0000   1.0000   1.0000   1.0000   1.0000   1.0000
     1.0000   1.0000   1.0000   1.0000   1.0000   1.0000   1.0000   1.0000
     1.0000   1.0000   1.0000   1.0000   1.0000   1.0000   1.0000   1.0000
     1.0000   1.0000   1.0000   1.0000   1.0000   1.0000   1.0000   1.0000
     1.0000   1.0000   1.0000   1.0000   1.0000   1.0000   1.0000   1.0000
     1.0000   1.0000   1.0000   1.0000   1.0000   1.0000   1.0000   1.0000
     1.0000   1.0000   1.0000   1.0000   1.0000   1.0000   1.0000   1.0000
     1.0000   1.0000   1.0000   1.0000   1.0000   1.0000   1.0000   1.0000
     1.0000   1.0000   1.0000   1.0000   1.0000   1.0000   1.0000   1.0000
     1.0000   1.0000   1.0000   1.0000   1.0000   1.0000   1.0000   1.0000
     1.0000   1.0000   1.0000   1.0000   1.0000   1.0000   1.0000   1.0000
     1.0000   1.0000   1.0000   1.0000   1.0000   1.0000   1.0000   1.0000
     1.0000   1.0000   1.0000   1.0000   1.0000   1.0000   1.0000   1.0000
     1.0000   1.0000   1.0000   1.0000   1.0000   1.0000   1.0000   1.0000
     1.0000   1.0000   1.0000   1.0000   1.0000   1.0000   1.0000   1.0000
     1.0000   1.0000   1.0000   1.0000   1.0000   1.0000   1.0000   1.0000
     1.0000   1.0000   1.0000   1.0000   1.0000   1.0000   1.0000   1.0000
     1.0000   1.0000   1.0000   1.0000   1.0000   1.0000   1.0000   1.0000
     1.0000   1.0000   1.0000   1.0000   1.0000   1.0000   1.0000   1.0000
     1.0000   1.0000   1.0000   1.0000   1.0000   1.0000   1.0000   1.0000
     1.0000   1.0000   1.0000   1.0000   1.0000   1.0000   1.0000   1.0000
     1.0000   1.0000   1.0000   1.0000   1.0000   1.0000   1.0000   1.0000
     1.0000   1.0000   1.0000   1.0000   1.0000   1.0000   1.0000   1.0000
     1.0000   1.0000   1.0000   1.0000   1.0000   1.0000   1.0000   1.0000
     1.0000   1.0000   1.0000   1.0000   1.0000   1.0000   1.0000   1.0000
     1.0000   1.0000   1.0000   1.0000   1.0000   1.0000   1.0000   1.0000
     1.0000   1.0000   1.0000   1.0000   1.0000   1.0000   1.0000   1.0000
     1.0000   1.0000   1.0000   1.0000   1.0000   1.0000   1.0000   1.0000
     1.0000   1.0000   1.0000   1.0000   1.0000   1.0000   1.0000   1.0000
     1.0000   1.0000   1.0000   1.0000   1.0000   1.0000   1.0000   1.0000
     1.0000   1.0000   1.0000   1.0000   1.0000   1.0000   1.0000   1.0000
     1.0000   1.0000   1.0000   1.0000   1.0000   1.0000   1.0000   1.0000
     1.0000   1.0000   1.0000   1.0000   1.0000   1.0000   1.0000   1.0000
     1.0000   1.0000   1.0000   1.0000   1.0000   1.0000   1.0000   1.0000
     1.0000   1.0000   1.0000   1.0000   1.0000   1.0000   1.0000   1.0000
     1.0000   1.0000   1.0000   1.0000   1.0000   1.0000   1.0000   1.0000
     1.0000   1.0000   1.0000   1.0000   1.0000   1.0000   1.0000   1.0000
     1.0000   1.0000   1.0000   1.0000   1.0000   1.0000   1.0000   1.0000
     1.0000   1.0000   1.0000   1.0000   1.0000   1.0000   1.0000   1.0000
     1.0000   1.0000   1.0000   1.0000   1.0000   1.0000   1.0000   1.0000
     1.0000   1.0000   1.0000   1.0000   1.0000   1.0000   1.0000   1.0000
     1.0000   1.0000   1.0000   1.0000   1.0000   1.0000   1.0000   1.0000
     1.0000   1.0000   1.0000   1.0000   1.0000   1.0000   1.0000   1.0053
     1.0053   1.0053   1.0053   1.0053   1.0053   1.0068   1.0068   1.0068
     1.0068   1.0068   1.0068   1.0631   1.0631   1.0631   1.0721   1.0755
     1.0755   1.0755   1.0755   1.0755   1.0755   1.0708   1.0708   1.0708
     1.0149   1.0149   1.0149   0.4066   0.4066   0.4066   0.4066   0.4066
     0.4066   0.3832   0.3832   0.3832   0.3832   0.3832   0.3832   0.1182
     0.1182   0.1182   0.0169   0.0099   0.0099   0.0099   0.0005   0.0005
     0.0005   0.0000   0.0000   0.0000   0.0000   0.0000   0.0000   0.0000
     0.0000   0.0000   0.0000   0.0000   0.0000   0.0000   0.0000   0.0000
     0.0000   0.0000   0.0000   0.0000   0.0000   0.0000   0.0000   0.0000
     0.0000   0.0000   0.0000   0.0000   0.0000   0.0000   0.0000   0.0000
     0.0000   0.0000   0.0000   0.0000   0.0000   0.0000   0.0000   0.0000
     0.0000   0.0000   0.0000   0.0000   0.0000   0.0000   0.0000   0.0000
     0.0000   0.0000   0.0000   0.0000   0.0000   0.0000   0.0000   0.0000
     0.0000   0.0000   0.0000   0.0000   0.0000   0.0000   0.0000   0.0000
     0.0000   0.0000   0.0000   0.0000   0.0000   0.0000   0.0000   0.0000
     0.0000   0.0000   0.0000   0.0000   0.0000   0.0000   0.0000   0.0000

          k = 0.0000 0.2887 0.0000 ( 64808 PWs)   bands (ev):

  -125.0883-125.0874-125.0870-125.0870-125.0863-125.0863-125.0861-125.0854
  -125.0854-125.0851-125.0850-125.0850-125.0850-125.0850-125.0847-125.0847
  -124.8808-124.8808-124.8799-124.8798-124.8795-124.8795-124.8795-124.8794
  -124.8788-124.8788-124.8788-124.8788-124.8785-124.8785-124.8778-124.8778
  -124.8778-124.8778-124.8776-124.8776-124.8775-124.8775-124.8774-124.8774
  -124.8774-124.8774-124.8774-124.8774-124.8772-124.8772-124.8772-124.8772
   -79.2539 -79.2539 -79.2532 -79.2493 -79.2493 -79.2484 -79.2484 -79.2465
   -79.2465 -79.2435 -79.2403 -79.2403 -79.2376 -79.2376 -79.2374 -79.2363
   -79.2359 -79.2359 -79.2351 -79.2351 -79.2348 -79.2340 -79.2340 -79.2337
   -79.2336 -79.2336 -79.2336 -79.2336 -79.2336 -79.2335 -79.2333 -79.2333
   -79.2333 -79.2333 -79.2309 -79.2309 -79.2297 -79.2287 -79.2287 -79.2276
   -79.2250 -79.2248 -79.2248 -79.2228 -79.2228 -79.2214 -79.2199 -79.2189
   -79.0443 -79.0443 -79.0442 -79.0442 -79.0436 -79.0436 -79.0397 -79.0397
   -79.0397 -79.0397 -79.0388 -79.0388 -79.0387 -79.0387 -79.0369 -79.0369
   -79.0368 -79.0368 -79.0361 -79.0359 -79.0350 -79.0349 -79.0346 -79.0346
   -79.0345 -79.0345 -79.0339 -79.0339 -79.0338 -79.0338 -79.0338 -79.0338
   -79.0335 -79.0335 -79.0328 -79.0328 -79.0328 -79.0328 -79.0325 -79.0325
   -79.0324 -79.0324 -79.0324 -79.0323 -79.0323 -79.0323 -79.0323 -79.0323
   -79.0321 -79.0321 -79.0320 -79.0320 -79.0307 -79.0307 -79.0307 -79.0307
   -79.0281 -79.0281 -79.0280 -79.0280 -79.0240 -79.0240 -79.0240 -79.0240
   -79.0237 -79.0237 -79.0237 -79.0237 -79.0213 -79.0213 -79.0213 -79.0213
   -79.0201 -79.0201 -79.0192 -79.0192 -79.0192 -79.0192 -79.0181 -79.0180
   -79.0155 -79.0155 -79.0152 -79.0152 -79.0152 -79.0152 -79.0133 -79.0133
   -79.0132 -79.0132 -79.0119 -79.0119 -79.0104 -79.0103 -79.0094 -79.0093
    -8.5333  -7.6497  -7.3250  -7.2772  -7.2772  -7.0512  -6.9201  -6.8938
    -6.8938  -6.8728  -6.8712  -6.8712  -6.7290  -6.7142  -6.7142  -6.7142
    -6.6970  -6.6840  -6.6596  -6.6596  -6.6121  -6.6032  -6.5991  -6.5991
    -6.5893  -6.5893  -6.5706  -6.5706  -6.5517  -6.5517  -6.5415  -6.5415
    -6.5382  -6.5353  -6.5353  -6.5304  -6.5304  -6.5239  -6.5239  -6.5096
    -6.5096  -6.4835  -6.4835  -6.4446  -6.4446  -6.4172  -6.4172  -6.4030
    -6.4030  -6.3971  -6.3427  -6.3378  -6.3378  -6.3377  -6.3377  -6.3362
    -6.3362  -6.2894  -6.2894  -6.2802  -6.2731  -6.2509  -6.2509  -6.2445
    -6.2445  -6.2430  -6.2430  -6.2427  -6.2290  -6.2290  -6.2258  -6.2258
    -6.2162  -6.2162  -6.2056  -6.2056  -6.2006  -6.1986  -6.1986  -6.1760
    -6.1590  -6.1443  -6.1443  -6.1348  -6.1348  -6.1210  -6.1210  -6.1140
    -6.1096  -6.1096  -6.0971  -6.0838  -6.0838  -6.0704  -6.0704  -6.0694
    -6.0694  -5.9792  -5.9792  -5.9792  -5.9792  -5.9641  -5.9615  -5.9570
    -5.9559  -5.9545  -5.9545  -5.9447  -5.9447  -5.9331  -5.9304  -5.9304
    -5.9120  -5.9120  -5.9096  -5.9054  -5.9023  -5.8939  -5.8939  -5.8888
    -5.8675  -5.8675  -5.8583  -5.8583  -5.8466  -5.8326  -5.8154  -5.8154
    -5.8147  -5.8147  -5.8069  -5.8069  -5.7975  -5.7970  -5.7970  -5.7918
    -5.7918  -5.7762  -5.7762  -5.7669  -5.7669  -5.7614  -5.7503  -5.7503
    -5.7338  -5.7325  -5.7325  -5.7246  -5.7246  -5.7167  -5.7167  -5.7152
    -5.7152  -5.7112  -5.7112  -5.6979  -5.6866  -5.6866  -5.6771  -5.6629
    -5.6589  -5.6589  -5.6526  -5.6526  -5.6386  -5.6376  -5.6376  -5.6346
    -5.6346  -5.6328  -5.6296  -5.6247  -5.6247  -5.6000  -5.5816  -5.5792
    -5.5792  -5.5753  -5.5753  -5.5667  -5.5667  -5.5635  -5.5635  -5.5626
    -5.5626  -5.5615  -5.5463  -5.5463  -5.5439  -5.5401  -5.5401  -5.5320
    -5.5320  -5.5110  -5.5110  -5.4815  -5.4789  -5.4771  -5.4771  -5.4728
    -5.4728  -5.4704  -5.4704  -5.4579  -5.4579  -5.4493  -5.4444  -5.4444
    -5.4415  -5.4371  -5.4326  -5.4322  -5.4199  -5.4199  -5.4181  -5.4181
    -5.4064  -5.4064  -5.4064  -5.3990  -5.3863  -5.3863  -5.3826  -5.3778
    -5.3649  -5.3649  -5.3611  -5.3522  -5.3403  -5.3403  -5.3344  -5.3298
    -5.3298  -5.3202  -5.3202  -5.3127  -5.3127  -5.3021  -5.3021  -5.1658
    -5.1658  -5.1492  -5.1492  -5.1437  -5.1437  -5.1253  -5.1246  -4.9682
    -4.9588  -4.6604  -4.6604  -3.9047  -3.9047  -3.5042  -3.4201  -3.4201
    -3.3802  -2.6900  -2.3188  -2.3188  -2.2498  -2.0486  -2.0486  -1.9960
    -1.9960  -1.5327  -1.5327  -1.3202  -1.3202  -1.1351  -0.8205  -0.6009
    -0.6009  -0.5860  -0.5860  -0.5679  -0.0020  -0.0020   0.2503   0.2503
     0.5328   0.5329   0.6170   0.8529   0.8730   0.8730   1.1669   1.1669
     1.5368   1.5368   2.2095   2.2095   2.6235   2.6730   2.6730   2.7040
     2.7575   2.7575   2.9295   2.9295   3.2078   3.5210   3.6666   3.6666
     3.8809   3.8809   4.1010   4.1678   4.1678   4.5454   4.5454   4.7845
     4.7845   4.8178   4.8178   5.1231   5.1231   5.1362   5.1362   5.1917
     5.3907   5.4155   5.4155   5.5524   5.6255   5.7756   5.7756   5.7953
     6.0659   6.0659   6.0932   6.2971   6.2971   6.3097   6.3209   6.5175
     6.5428   6.5428   6.5700   6.5700   6.6825   6.7685   6.7685   6.9925
     6.9925   7.0694   7.0694   7.1603   7.1603   7.2456   7.2880   7.2880
     7.4155   7.4231   7.4231   7.4265   7.4265   7.6321   7.6321   7.6770
     7.6770   7.7051   7.7051   7.7370   7.8626   7.8626   7.9178   7.9178
     7.9963   7.9963   8.1439   8.2962   8.3291   8.4781   8.6408   8.6408
     8.6835   8.7123   8.7123   8.7902   8.7902   8.8128   8.8128   8.8175

     occupation numbers 
     1.0000   1.0000   1.0000   1.0000   1.0000   1.0000   1.0000   1.0000
     1.0000   1.0000   1.0000   1.0000   1.0000   1.0000   1.0000   1.0000
     1.0000   1.0000   1.0000   1.0000   1.0000   1.0000   1.0000   1.0000
     1.0000   1.0000   1.0000   1.0000   1.0000   1.0000   1.0000   1.0000
     1.0000   1.0000   1.0000   1.0000   1.0000   1.0000   1.0000   1.0000
     1.0000   1.0000   1.0000   1.0000   1.0000   1.0000   1.0000   1.0000
     1.0000   1.0000   1.0000   1.0000   1.0000   1.0000   1.0000   1.0000
     1.0000   1.0000   1.0000   1.0000   1.0000   1.0000   1.0000   1.0000
     1.0000   1.0000   1.0000   1.0000   1.0000   1.0000   1.0000   1.0000
     1.0000   1.0000   1.0000   1.0000   1.0000   1.0000   1.0000   1.0000
     1.0000   1.0000   1.0000   1.0000   1.0000   1.0000   1.0000   1.0000
     1.0000   1.0000   1.0000   1.0000   1.0000   1.0000   1.0000   1.0000
     1.0000   1.0000   1.0000   1.0000   1.0000   1.0000   1.0000   1.0000
     1.0000   1.0000   1.0000   1.0000   1.0000   1.0000   1.0000   1.0000
     1.0000   1.0000   1.0000   1.0000   1.0000   1.0000   1.0000   1.0000
     1.0000   1.0000   1.0000   1.0000   1.0000   1.0000   1.0000   1.0000
     1.0000   1.0000   1.0000   1.0000   1.0000   1.0000   1.0000   1.0000
     1.0000   1.0000   1.0000   1.0000   1.0000   1.0000   1.0000   1.0000
     1.0000   1.0000   1.0000   1.0000   1.0000   1.0000   1.0000   1.0000
     1.0000   1.0000   1.0000   1.0000   1.0000   1.0000   1.0000   1.0000
     1.0000   1.0000   1.0000   1.0000   1.0000   1.0000   1.0000   1.0000
     1.0000   1.0000   1.0000   1.0000   1.0000   1.0000   1.0000   1.0000
     1.0000   1.0000   1.0000   1.0000   1.0000   1.0000   1.0000   1.0000
     1.0000   1.0000   1.0000   1.0000   1.0000   1.0000   1.0000   1.0000
     1.0000   1.0000   1.0000   1.0000   1.0000   1.0000   1.0000   1.0000
     1.0000   1.0000   1.0000   1.0000   1.0000   1.0000   1.0000   1.0000
     1.0000   1.0000   1.0000   1.0000   1.0000   1.0000   1.0000   1.0000
     1.0000   1.0000   1.0000   1.0000   1.0000   1.0000   1.0000   1.0000
     1.0000   1.0000   1.0000   1.0000   1.0000   1.0000   1.0000   1.0000
     1.0000   1.0000   1.0000   1.0000   1.0000   1.0000   1.0000   1.0000
     1.0000   1.0000   1.0000   1.0000   1.0000   1.0000   1.0000   1.0000
     1.0000   1.0000   1.0000   1.0000   1.0000   1.0000   1.0000   1.0000
     1.0000   1.0000   1.0000   1.0000   1.0000   1.0000   1.0000   1.0000
     1.0000   1.0000   1.0000   1.0000   1.0000   1.0000   1.0000   1.0000
     1.0000   1.0000   1.0000   1.0000   1.0000   1.0000   1.0000   1.0000
     1.0000   1.0000   1.0000   1.0000   1.0000   1.0000   1.0000   1.0000
     1.0000   1.0000   1.0000   1.0000   1.0000   1.0000   1.0000   1.0000
     1.0000   1.0000   1.0000   1.0000   1.0000   1.0000   1.0000   1.0000
     1.0000   1.0000   1.0000   1.0000   1.0000   1.0000   1.0000   1.0000
     1.0000   1.0000   1.0000   1.0000   1.0000   1.0000   1.0000   1.0000
     1.0000   1.0000   1.0000   1.0000   1.0000   1.0000   1.0000   1.0000
     1.0000   1.0000   1.0000   1.0000   1.0000   1.0000   1.0000   1.0000
     1.0000   1.0000   1.0000   1.0000   1.0000   1.0000   1.0000   1.0000
     1.0000   1.0000   1.0000   1.0000   1.0000   1.0000   1.0000   1.0000
     1.0000   1.0000   1.0000   1.0000   1.0000   1.0000   1.0000   1.0000
     1.0000   1.0000   1.0000   1.0000   1.0000   1.0000   1.0000   1.0000
     1.0000   1.0000   1.0000   1.0000   1.0000   1.0000   1.0000   1.0000
     1.0000   1.0000   1.0000   1.0000   1.0000   1.0000   1.0000   1.0000
     1.0000   1.0000   1.0000   1.0000   1.0000   1.0000   1.0000   1.0000
     1.0000   1.0000   1.0000   1.0000   1.0000   1.0000   1.0000   1.0000
     1.0000   1.0000   1.0000   1.0000   1.0000   1.0000   1.0000   1.0000
     1.0000   1.0000   1.0000   1.0000   1.0000   1.0000   1.0000   1.0000
     1.0000   1.0000   1.0000   1.0000   1.0000   1.0000   1.0000   1.0000
     1.0000   1.0000   1.0000   1.0000   1.0000   1.0000   1.0000   1.0000
     1.0000   1.0000   1.0000   1.0000   1.0000   1.0000   1.0000   1.0000
     1.0000   1.0000   1.0000   1.0000   1.0000   1.0000   1.0001   1.0001
     1.0001   1.0009   1.0031   1.0031   1.0038   1.0066   1.0066   1.0076
     1.0076   1.0223   1.0223   1.0334   1.0334   1.0450   1.0664   1.0786
     1.0786   1.0792   1.0792   1.0799   1.0578   1.0578   1.0069   1.0069
     0.9128   0.9128   0.8776   0.7648   0.7544   0.7544   0.5949   0.5949
     0.3967   0.3967   0.1368   0.1368   0.0569   0.0506   0.0506   0.0470
     0.0413   0.0413   0.0266   0.0266   0.0122   0.0046   0.0029   0.0029
     0.0013   0.0013   0.0006   0.0005   0.0005   0.0001   0.0001   0.0000
     0.0000   0.0000   0.0000   0.0000   0.0000   0.0000   0.0000   0.0000
     0.0000   0.0000   0.0000   0.0000   0.0000   0.0000   0.0000   0.0000
     0.0000   0.0000   0.0000   0.0000   0.0000   0.0000   0.0000   0.0000
     0.0000   0.0000   0.0000   0.0000   0.0000   0.0000   0.0000   0.0000
     0.0000   0.0000   0.0000   0.0000   0.0000   0.0000   0.0000   0.0000
     0.0000   0.0000   0.0000   0.0000   0.0000   0.0000   0.0000   0.0000
     0.0000   0.0000   0.0000   0.0000   0.0000   0.0000   0.0000   0.0000
     0.0000   0.0000   0.0000   0.0000   0.0000   0.0000   0.0000   0.0000
     0.0000   0.0000   0.0000   0.0000   0.0000   0.0000   0.0000   0.0000

          k = 0.0000-0.5774 0.0000 ( 64842 PWs)   bands (ev):

  -125.0880-125.0880-125.0871-125.0871-125.0859-125.0859-125.0859-125.0859
  -125.0855-125.0855-125.0850-125.0850-125.0850-125.0850-125.0846-125.0846
  -124.8804-124.8804-124.8804-124.8804-124.8795-124.8795-124.8795-124.8795
  -124.8783-124.8783-124.8783-124.8783-124.8783-124.8783-124.8783-124.8783
  -124.8780-124.8780-124.8780-124.8779-124.8775-124.8775-124.8774-124.8774
  -124.8774-124.8774-124.8774-124.8774-124.8771-124.8771-124.8771-124.8771
   -79.2518 -79.2518 -79.2518 -79.2518 -79.2494 -79.2493 -79.2483 -79.2483
   -79.2438 -79.2438 -79.2438 -79.2438 -79.2389 -79.2389 -79.2370 -79.2370
   -79.2360 -79.2360 -79.2346 -79.2346 -79.2346 -79.2346 -79.2342 -79.2342
   -79.2336 -79.2336 -79.2336 -79.2336 -79.2332 -79.2332 -79.2323 -79.2323
   -79.2307 -79.2307 -79.2307 -79.2307 -79.2274 -79.2274 -79.2274 -79.2274
   -79.2266 -79.2266 -79.2238 -79.2238 -79.2228 -79.2228 -79.2199 -79.2199
   -79.0422 -79.0422 -79.0422 -79.0422 -79.0422 -79.0422 -79.0422 -79.0422
   -79.0398 -79.0398 -79.0397 -79.0397 -79.0387 -79.0387 -79.0387 -79.0387
   -79.0357 -79.0357 -79.0355 -79.0355 -79.0347 -79.0347 -79.0346 -79.0346
   -79.0342 -79.0342 -79.0342 -79.0342 -79.0342 -79.0342 -79.0342 -79.0342
   -79.0333 -79.0333 -79.0333 -79.0333 -79.0333 -79.0333 -79.0333 -79.0333
   -79.0329 -79.0329 -79.0329 -79.0329 -79.0324 -79.0324 -79.0324 -79.0323
   -79.0323 -79.0323 -79.0323 -79.0323 -79.0320 -79.0320 -79.0319 -79.0319
   -79.0293 -79.0293 -79.0293 -79.0293 -79.0227 -79.0227 -79.0227 -79.0227
   -79.0212 -79.0212 -79.0212 -79.0212 -79.0212 -79.0212 -79.0212 -79.0212
   -79.0179 -79.0179 -79.0179 -79.0179 -79.0179 -79.0179 -79.0179 -79.0179
   -79.0170 -79.0170 -79.0170 -79.0170 -79.0143 -79.0143 -79.0143 -79.0142
   -79.0133 -79.0133 -79.0133 -79.0133 -79.0104 -79.0104 -79.0104 -79.0103
    -8.1855  -8.1854  -7.3464  -7.3464  -7.0502  -7.0501  -6.8858  -6.8858
    -6.8818  -6.8818  -6.7713  -6.7713  -6.7713  -6.7713  -6.6761  -6.6761
    -6.6698  -6.6698  -6.6698  -6.6698  -6.6463  -6.6463  -6.6298  -6.6298
    -6.6297  -6.6297  -6.5756  -6.5756  -6.5503  -6.5503  -6.5503  -6.5503
    -6.5299  -6.5299  -6.5109  -6.5109  -6.5109  -6.5109  -6.4860  -6.4860
    -6.4860  -6.4860  -6.4820  -6.4820  -6.4724  -6.4723  -6.4476  -6.4476
    -6.4426  -6.4426  -6.4425  -6.4425  -6.3323  -6.3323  -6.3226  -6.3226
    -6.3135  -6.3135  -6.3135  -6.3135  -6.3126  -6.3126  -6.2913  -6.2913
    -6.2913  -6.2913  -6.2571  -6.2571  -6.2421  -6.2421  -6.2421  -6.2421
    -6.2278  -6.2278  -6.2219  -6.2219  -6.1911  -6.1911  -6.1616  -6.1616
    -6.1322  -6.1322  -6.1240  -6.1240  -6.1022  -6.1022  -6.1022  -6.1022
    -6.0824  -6.0824  -6.0824  -6.0824  -6.0624  -6.0624  -6.0527  -6.0527
    -6.0472  -6.0472  -6.0411  -6.0411  -6.0301  -6.0301  -6.0096  -6.0096
    -6.0096  -6.0096  -5.9668  -5.9668  -5.9659  -5.9659  -5.9361  -5.9361
    -5.9242  -5.9242  -5.8928  -5.8928  -5.8928  -5.8927  -5.8354  -5.8354
    -5.8295  -5.8295  -5.8283  -5.8283  -5.8283  -5.8283  -5.8267  -5.8267
    -5.8061  -5.8061  -5.8050  -5.8050  -5.7957  -5.7957  -5.7957  -5.7957
    -5.7874  -5.7874  -5.7869  -5.7869  -5.7869  -5.7869  -5.7766  -5.7766
    -5.7741  -5.7741  -5.7741  -5.7741  -5.6945  -5.6945  -5.6933  -5.6933
    -5.6869  -5.6869  -5.6646  -5.6646  -5.6646  -5.6646  -5.6523  -5.6523
    -5.6421  -5.6421  -5.6233  -5.6233  -5.6233  -5.6233  -5.6143  -5.6143
    -5.5894  -5.5894  -5.5625  -5.5625  -5.5483  -5.5483  -5.5483  -5.5483
    -5.5448  -5.5448  -5.5448  -5.5448  -5.5430  -5.5430  -5.5394  -5.5393
    -5.5178  -5.5178  -5.5178  -5.5178  -5.5067  -5.5067  -5.5062  -5.5062
    -5.5057  -5.5057  -5.4985  -5.4985  -5.4827  -5.4827  -5.4827  -5.4827
    -5.4694  -5.4694  -5.4694  -5.4694  -5.4581  -5.4581  -5.4415  -5.4415
    -5.4351  -5.4351  -5.4351  -5.4351  -5.4312  -5.4312  -5.4310  -5.4310
    -5.4227  -5.4227  -5.4206  -5.4206  -5.4206  -5.4206  -5.3890  -5.3890
    -5.3826  -5.3826  -5.3826  -5.3826  -5.3433  -5.3433  -5.3433  -5.3433
    -5.2736  -5.2736  -5.2736  -5.2736  -5.2551  -5.2551  -5.2542  -5.2542
    -5.2542  -5.2541  -5.2212  -5.2212  -5.2185  -5.2185  -4.7239  -4.7239
    -4.4430  -4.4430  -4.4430  -4.4430  -3.7551  -3.7551  -3.1261  -3.1261
    -3.0858  -3.0858  -3.0858  -3.0858  -2.4083  -2.4083  -2.2647  -2.2647
    -1.7856  -1.7856  -1.7855  -1.7855  -0.7735  -0.7735  -0.7735  -0.7735
    -0.3508  -0.3508  -0.3508  -0.3508  -0.1063  -0.1063  -0.0060  -0.0060
     0.9927   0.9927   1.0327   1.0327   1.3102   1.3102   1.3464   1.3464
     1.3464   1.3464   2.1977   2.1977   2.8763   2.8763   2.8763   2.8763
     3.0847   3.0847   3.0847   3.0847   3.2975   3.2975   3.5435   3.5435
     3.8412   3.8412   3.8412   3.8412   3.9804   3.9804   4.2301   4.2301
     4.4362   4.4362   4.7254   4.7254   4.8325   4.8325   5.4631   5.4631
     5.5301   5.5301   5.7355   5.7355   5.7773   5.7773   5.9136   5.9136
     5.9136   5.9136   5.9658   5.9658   5.9658   5.9658   6.1427   6.1427
     6.1427   6.1427   6.4312   6.4312   6.5344   6.5344   6.6540   6.6540
     6.6685   6.6685   6.8547   6.8547   6.8551   6.8551   6.9860   6.9860
     6.9860   6.9860   7.5911   7.5911   7.7520   7.7520   8.0486   8.0486
     8.0849   8.0849   8.0849   8.0849   8.2621   8.2621   8.4872   8.4872
     8.4872   8.4872   8.6124   8.6124   8.6124   8.6124   8.6749   8.6749
     8.7186   8.7186   8.8123   8.8123   8.9866   8.9866   8.9866   8.9867

     occupation numbers 
     1.0000   1.0000   1.0000   1.0000   1.0000   1.0000   1.0000   1.0000
     1.0000   1.0000   1.0000   1.0000   1.0000   1.0000   1.0000   1.0000
     1.0000   1.0000   1.0000   1.0000   1.0000   1.0000   1.0000   1.0000
     1.0000   1.0000   1.0000   1.0000   1.0000   1.0000   1.0000   1.0000
     1.0000   1.0000   1.0000   1.0000   1.0000   1.0000   1.0000   1.0000
     1.0000   1.0000   1.0000   1.0000   1.0000   1.0000   1.0000   1.0000
     1.0000   1.0000   1.0000   1.0000   1.0000   1.0000   1.0000   1.0000
     1.0000   1.0000   1.0000   1.0000   1.0000   1.0000   1.0000   1.0000
     1.0000   1.0000   1.0000   1.0000   1.0000   1.0000   1.0000   1.0000
     1.0000   1.0000   1.0000   1.0000   1.0000   1.0000   1.0000   1.0000
     1.0000   1.0000   1.0000   1.0000   1.0000   1.0000   1.0000   1.0000
     1.0000   1.0000   1.0000   1.0000   1.0000   1.0000   1.0000   1.0000
     1.0000   1.0000   1.0000   1.0000   1.0000   1.0000   1.0000   1.0000
     1.0000   1.0000   1.0000   1.0000   1.0000   1.0000   1.0000   1.0000
     1.0000   1.0000   1.0000   1.0000   1.0000   1.0000   1.0000   1.0000
     1.0000   1.0000   1.0000   1.0000   1.0000   1.0000   1.0000   1.0000
     1.0000   1.0000   1.0000   1.0000   1.0000   1.0000   1.0000   1.0000
     1.0000   1.0000   1.0000   1.0000   1.0000   1.0000   1.0000   1.0000
     1.0000   1.0000   1.0000   1.0000   1.0000   1.0000   1.0000   1.0000
     1.0000   1.0000   1.0000   1.0000   1.0000   1.0000   1.0000   1.0000
     1.0000   1.0000   1.0000   1.0000   1.0000   1.0000   1.0000   1.0000
     1.0000   1.0000   1.0000   1.0000   1.0000   1.0000   1.0000   1.0000
     1.0000   1.0000   1.0000   1.0000   1.0000   1.0000   1.0000   1.0000
     1.0000   1.0000   1.0000   1.0000   1.0000   1.0000   1.0000   1.0000
     1.0000   1.0000   1.0000   1.0000   1.0000   1.0000   1.0000   1.0000
     1.0000   1.0000   1.0000   1.0000   1.0000   1.0000   1.0000   1.0000
     1.0000   1.0000   1.0000   1.0000   1.0000   1.0000   1.0000   1.0000
     1.0000   1.0000   1.0000   1.0000   1.0000   1.0000   1.0000   1.0000
     1.0000   1.0000   1.0000   1.0000   1.0000   1.0000   1.0000   1.0000
     1.0000   1.0000   1.0000   1.0000   1.0000   1.0000   1.0000   1.0000
     1.0000   1.0000   1.0000   1.0000   1.0000   1.0000   1.0000   1.0000
     1.0000   1.0000   1.0000   1.0000   1.0000   1.0000   1.0000   1.0000
     1.0000   1.0000   1.0000   1.0000   1.0000   1.0000   1.0000   1.0000
     1.0000   1.0000   1.0000   1.0000   1.0000   1.0000   1.0000   1.0000
     1.0000   1.0000   1.0000   1.0000   1.0000   1.0000   1.0000   1.0000
     1.0000   1.0000   1.0000   1.0000   1.0000   1.0000   1.0000   1.0000
     1.0000   1.0000   1.0000   1.0000   1.0000   1.0000   1.0000   1.0000
     1.0000   1.0000   1.0000   1.0000   1.0000   1.0000   1.0000   1.0000
     1.0000   1.0000   1.0000   1.0000   1.0000   1.0000   1.0000   1.0000
     1.0000   1.0000   1.0000   1.0000   1.0000   1.0000   1.0000   1.0000
     1.0000   1.0000   1.0000   1.0000   1.0000   1.0000   1.0000   1.0000
     1.0000   1.0000   1.0000   1.0000   1.0000   1.0000   1.0000   1.0000
     1.0000   1.0000   1.0000   1.0000   1.0000   1.0000   1.0000   1.0000
     1.0000   1.0000   1.0000   1.0000   1.0000   1.0000   1.0000   1.0000
     1.0000   1.0000   1.0000   1.0000   1.0000   1.0000   1.0000   1.0000
     1.0000   1.0000   1.0000   1.0000   1.0000   1.0000   1.0000   1.0000
     1.0000   1.0000   1.0000   1.0000   1.0000   1.0000   1.0000   1.0000
     1.0000   1.0000   1.0000   1.0000   1.0000   1.0000   1.0000   1.0000
     1.0000   1.0000   1.0000   1.0000   1.0000   1.0000   1.0000   1.0000
     1.0000   1.0000   1.0000   1.0000   1.0000   1.0000   1.0000   1.0000
     1.0000   1.0000   1.0000   1.0000   1.0000   1.0000   1.0000   1.0000
     1.0000   1.0000   1.0000   1.0000   1.0000   1.0000   1.0000   1.0000
     1.0000   1.0000   1.0000   1.0000   1.0000   1.0000   1.0000   1.0000
     1.0000   1.0000   1.0000   1.0000   1.0000   1.0000   1.0000   1.0000
     1.0000   1.0000   1.0000   1.0000   1.0000   1.0000   1.0000   1.0000
     1.0000   1.0000   1.0000   1.0000   1.0000   1.0000   1.0002   1.0002
     1.0002   1.0002   1.0002   1.0002   1.0024   1.0024   1.0036   1.0036
     1.0128   1.0128   1.0128   1.0128   1.0694   1.0694   1.0694   1.0694
     1.0830   1.0830   1.0830   1.0830   1.0703   1.0703   1.0584   1.0584
     0.6908   0.6908   0.6689   0.6689   0.5159   0.5159   0.4962   0.4962
     0.4962   0.4962   0.1399   0.1399   0.0306   0.0306   0.0306   0.0306
     0.0174   0.0174   0.0174   0.0174   0.0094   0.0094   0.0043   0.0043
     0.0016   0.0016   0.0016   0.0016   0.0009   0.0009   0.0004   0.0004
     0.0002   0.0002   0.0000   0.0000   0.0000   0.0000   0.0000   0.0000
     0.0000   0.0000   0.0000   0.0000   0.0000   0.0000   0.0000   0.0000
     0.0000   0.0000   0.0000   0.0000   0.0000   0.0000   0.0000   0.0000
     0.0000   0.0000   0.0000   0.0000   0.0000   0.0000   0.0000   0.0000
     0.0000   0.0000   0.0000   0.0000   0.0000   0.0000   0.0000   0.0000
     0.0000   0.0000   0.0000   0.0000   0.0000   0.0000   0.0000   0.0000
     0.0000   0.0000   0.0000   0.0000   0.0000   0.0000   0.0000   0.0000
     0.0000   0.0000   0.0000   0.0000   0.0000   0.0000   0.0000   0.0000
     0.0000   0.0000   0.0000   0.0000   0.0000   0.0000   0.0000   0.0000

          k = 0.2500 0.1443 0.0000 ( 64808 PWs)   bands (ev):

  -125.0883-125.0874-125.0870-125.0870-125.0863-125.0863-125.0861-125.0854
  -125.0854-125.0851-125.0850-125.0850-125.0850-125.0850-125.0847-125.0847
  -124.8808-124.8808-124.8799-124.8798-124.8795-124.8795-124.8795-124.8794
  -124.8788-124.8788-124.8788-124.8788-124.8785-124.8785-124.8778-124.8778
  -124.8778-124.8778-124.8776-124.8776-124.8775-124.8775-124.8775-124.8774
  -124.8774-124.8774-124.8774-124.8774-124.8772-124.8772-124.8772-124.8772
   -79.2539 -79.2539 -79.2532 -79.2493 -79.2493 -79.2484 -79.2484 -79.2465
   -79.2465 -79.2435 -79.2403 -79.2403 -79.2376 -79.2376 -79.2374 -79.2363
   -79.2359 -79.2359 -79.2351 -79.2351 -79.2348 -79.2340 -79.2340 -79.2337
   -79.2336 -79.2336 -79.2336 -79.2336 -79.2336 -79.2335 -79.2333 -79.2333
   -79.2333 -79.2333 -79.2309 -79.2309 -79.2297 -79.2287 -79.2287 -79.2276
   -79.2250 -79.2248 -79.2248 -79.2228 -79.2228 -79.2214 -79.2199 -79.2189
   -79.0443 -79.0443 -79.0442 -79.0442 -79.0436 -79.0436 -79.0397 -79.0397
   -79.0397 -79.0397 -79.0388 -79.0388 -79.0387 -79.0387 -79.0369 -79.0369
   -79.0368 -79.0368 -79.0361 -79.0359 -79.0350 -79.0349 -79.0346 -79.0346
   -79.0345 -79.0345 -79.0339 -79.0339 -79.0338 -79.0338 -79.0338 -79.0338
   -79.0335 -79.0335 -79.0328 -79.0328 -79.0328 -79.0328 -79.0325 -79.0325
   -79.0324 -79.0324 -79.0324 -79.0323 -79.0323 -79.0323 -79.0323 -79.0323
   -79.0321 -79.0321 -79.0320 -79.0320 -79.0307 -79.0307 -79.0307 -79.0307
   -79.0281 -79.0281 -79.0280 -79.0280 -79.0240 -79.0240 -79.0240 -79.0240
   -79.0237 -79.0237 -79.0237 -79.0237 -79.0213 -79.0213 -79.0213 -79.0213
   -79.0201 -79.0201 -79.0192 -79.0192 -79.0192 -79.0192 -79.0181 -79.0180
   -79.0155 -79.0155 -79.0152 -79.0152 -79.0152 -79.0152 -79.0133 -79.0133
   -79.0132 -79.0132 -79.0119 -79.0119 -79.0104 -79.0103 -79.0094 -79.0093
    -8.5333  -7.6497  -7.3250  -7.2772  -7.2772  -7.0512  -6.9201  -6.8938
    -6.8938  -6.8728  -6.8712  -6.8712  -6.7290  -6.7142  -6.7142  -6.7142
    -6.6970  -6.6840  -6.6596  -6.6596  -6.6121  -6.6032  -6.5991  -6.5991
    -6.5893  -6.5893  -6.5706  -6.5706  -6.5517  -6.5517  -6.5415  -6.5415
    -6.5382  -6.5353  -6.5353  -6.5304  -6.5304  -6.5239  -6.5239  -6.5096
    -6.5096  -6.4835  -6.4835  -6.4446  -6.4446  -6.4172  -6.4172  -6.4030
    -6.4030  -6.3971  -6.3427  -6.3378  -6.3378  -6.3377  -6.3377  -6.3362
    -6.3362  -6.2894  -6.2894  -6.2802  -6.2731  -6.2509  -6.2509  -6.2445
    -6.2445  -6.2430  -6.2430  -6.2427  -6.2290  -6.2290  -6.2258  -6.2258
    -6.2162  -6.2162  -6.2056  -6.2056  -6.2006  -6.1986  -6.1986  -6.1760
    -6.1590  -6.1443  -6.1443  -6.1348  -6.1348  -6.1210  -6.1210  -6.1140
    -6.1096  -6.1096  -6.0971  -6.0838  -6.0838  -6.0704  -6.0704  -6.0694
    -6.0694  -5.9792  -5.9792  -5.9792  -5.9792  -5.9641  -5.9615  -5.9570
    -5.9559  -5.9545  -5.9545  -5.9447  -5.9447  -5.9331  -5.9304  -5.9304
    -5.9120  -5.9120  -5.9096  -5.9054  -5.9023  -5.8939  -5.8939  -5.8888
    -5.8675  -5.8675  -5.8583  -5.8583  -5.8466  -5.8326  -5.8154  -5.8154
    -5.8147  -5.8147  -5.8069  -5.8069  -5.7975  -5.7970  -5.7970  -5.7918
    -5.7918  -5.7762  -5.7762  -5.7669  -5.7669  -5.7614  -5.7503  -5.7503
    -5.7338  -5.7325  -5.7325  -5.7246  -5.7246  -5.7167  -5.7167  -5.7152
    -5.7152  -5.7112  -5.7112  -5.6979  -5.6866  -5.6866  -5.6771  -5.6629
    -5.6589  -5.6589  -5.6526  -5.6526  -5.6386  -5.6376  -5.6376  -5.6346
    -5.6346  -5.6328  -5.6296  -5.6247  -5.6247  -5.6000  -5.5816  -5.5792
    -5.5792  -5.5753  -5.5753  -5.5667  -5.5667  -5.5635  -5.5635  -5.5626
    -5.5626  -5.5615  -5.5463  -5.5463  -5.5439  -5.5401  -5.5401  -5.5320
    -5.5320  -5.5110  -5.5110  -5.4815  -5.4789  -5.4771  -5.4771  -5.4728
    -5.4728  -5.4704  -5.4704  -5.4579  -5.4579  -5.4493  -5.4444  -5.4444
    -5.4415  -5.4371  -5.4326  -5.4322  -5.4199  -5.4199  -5.4181  -5.4181
    -5.4064  -5.4064  -5.4064  -5.3990  -5.3863  -5.3863  -5.3826  -5.3778
    -5.3649  -5.3649  -5.3611  -5.3522  -5.3403  -5.3403  -5.3344  -5.3298
    -5.3298  -5.3202  -5.3202  -5.3127  -5.3127  -5.3021  -5.3021  -5.1658
    -5.1658  -5.1492  -5.1492  -5.1437  -5.1437  -5.1253  -5.1246  -4.9682
    -4.9588  -4.6604  -4.6604  -3.9047  -3.9047  -3.5042  -3.4201  -3.4201
    -3.3802  -2.6900  -2.3188  -2.3188  -2.2498  -2.0486  -2.0486  -1.9960
    -1.9960  -1.5327  -1.5327  -1.3202  -1.3202  -1.1351  -0.8205  -0.6009
    -0.6009  -0.5860  -0.5860  -0.5679  -0.0020  -0.0020   0.2503   0.2503
     0.5329   0.5329   0.6170   0.8529   0.8730   0.8730   1.1669   1.1669
     1.5368   1.5368   2.2095   2.2095   2.6235   2.6730   2.6730   2.7040
     2.7575   2.7575   2.9295   2.9295   3.2078   3.5210   3.6666   3.6666
     3.8809   3.8809   4.1010   4.1678   4.1678   4.5454   4.5454   4.7845
     4.7845   4.8178   4.8178   5.1231   5.1231   5.1362   5.1362   5.1917
     5.3907   5.4155   5.4155   5.5524   5.6255   5.7756   5.7756   5.7953
     6.0659   6.0659   6.0932   6.2971   6.2971   6.3097   6.3209   6.5175
     6.5428   6.5428   6.5700   6.5700   6.6825   6.7685   6.7685   6.9925
     6.9925   7.0694   7.0694   7.1603   7.1603   7.2456   7.2880   7.2880
     7.4155   7.4231   7.4231   7.4265   7.4265   7.6321   7.6321   7.6770
     7.6770   7.7051   7.7051   7.7370   7.8626   7.8626   7.9178   7.9178
     7.9963   7.9963   8.1439   8.2962   8.3291   8.4781   8.6408   8.6408
     8.6835   8.7123   8.7123   8.7902   8.7902   8.8128   8.8175   8.8175

     occupation numbers 
     1.0000   1.0000   1.0000   1.0000   1.0000   1.0000   1.0000   1.0000
     1.0000   1.0000   1.0000   1.0000   1.0000   1.0000   1.0000   1.0000
     1.0000   1.0000   1.0000   1.0000   1.0000   1.0000   1.0000   1.0000
     1.0000   1.0000   1.0000   1.0000   1.0000   1.0000   1.0000   1.0000
     1.0000   1.0000   1.0000   1.0000   1.0000   1.0000   1.0000   1.0000
     1.0000   1.0000   1.0000   1.0000   1.0000   1.0000   1.0000   1.0000
     1.0000   1.0000   1.0000   1.0000   1.0000   1.0000   1.0000   1.0000
     1.0000   1.0000   1.0000   1.0000   1.0000   1.0000   1.0000   1.0000
     1.0000   1.0000   1.0000   1.0000   1.0000   1.0000   1.0000   1.0000
     1.0000   1.0000   1.0000   1.0000   1.0000   1.0000   1.0000   1.0000
     1.0000   1.0000   1.0000   1.0000   1.0000   1.0000   1.0000   1.0000
     1.0000   1.0000   1.0000   1.0000   1.0000   1.0000   1.0000   1.0000
     1.0000   1.0000   1.0000   1.0000   1.0000   1.0000   1.0000   1.0000
     1.0000   1.0000   1.0000   1.0000   1.0000   1.0000   1.0000   1.0000
     1.0000   1.0000   1.0000   1.0000   1.0000   1.0000   1.0000   1.0000
     1.0000   1.0000   1.0000   1.0000   1.0000   1.0000   1.0000   1.0000
     1.0000   1.0000   1.0000   1.0000   1.0000   1.0000   1.0000   1.0000
     1.0000   1.0000   1.0000   1.0000   1.0000   1.0000   1.0000   1.0000
     1.0000   1.0000   1.0000   1.0000   1.0000   1.0000   1.0000   1.0000
     1.0000   1.0000   1.0000   1.0000   1.0000   1.0000   1.0000   1.0000
     1.0000   1.0000   1.0000   1.0000   1.0000   1.0000   1.0000   1.0000
     1.0000   1.0000   1.0000   1.0000   1.0000   1.0000   1.0000   1.0000
     1.0000   1.0000   1.0000   1.0000   1.0000   1.0000   1.0000   1.0000
     1.0000   1.0000   1.0000   1.0000   1.0000   1.0000   1.0000   1.0000
     1.0000   1.0000   1.0000   1.0000   1.0000   1.0000   1.0000   1.0000
     1.0000   1.0000   1.0000   1.0000   1.0000   1.0000   1.0000   1.0000
     1.0000   1.0000   1.0000   1.0000   1.0000   1.0000   1.0000   1.0000
     1.0000   1.0000   1.0000   1.0000   1.0000   1.0000   1.0000   1.0000
     1.0000   1.0000   1.0000   1.0000   1.0000   1.0000   1.0000   1.0000
     1.0000   1.0000   1.0000   1.0000   1.0000   1.0000   1.0000   1.0000
     1.0000   1.0000   1.0000   1.0000   1.0000   1.0000   1.0000   1.0000
     1.0000   1.0000   1.0000   1.0000   1.0000   1.0000   1.0000   1.0000
     1.0000   1.0000   1.0000   1.0000   1.0000   1.0000   1.0000   1.0000
     1.0000   1.0000   1.0000   1.0000   1.0000   1.0000   1.0000   1.0000
     1.0000   1.0000   1.0000   1.0000   1.0000   1.0000   1.0000   1.0000
     1.0000   1.0000   1.0000   1.0000   1.0000   1.0000   1.0000   1.0000
     1.0000   1.0000   1.0000   1.0000   1.0000   1.0000   1.0000   1.0000
     1.0000   1.0000   1.0000   1.0000   1.0000   1.0000   1.0000   1.0000
     1.0000   1.0000   1.0000   1.0000   1.0000   1.0000   1.0000   1.0000
     1.0000   1.0000   1.0000   1.0000   1.0000   1.0000   1.0000   1.0000
     1.0000   1.0000   1.0000   1.0000   1.0000   1.0000   1.0000   1.0000
     1.0000   1.0000   1.0000   1.0000   1.0000   1.0000   1.0000   1.0000
     1.0000   1.0000   1.0000   1.0000   1.0000   1.0000   1.0000   1.0000
     1.0000   1.0000   1.0000   1.0000   1.0000   1.0000   1.0000   1.0000
     1.0000   1.0000   1.0000   1.0000   1.0000   1.0000   1.0000   1.0000
     1.0000   1.0000   1.0000   1.0000   1.0000   1.0000   1.0000   1.0000
     1.0000   1.0000   1.0000   1.0000   1.0000   1.0000   1.0000   1.0000
     1.0000   1.0000   1.0000   1.0000   1.0000   1.0000   1.0000   1.0000
     1.0000   1.0000   1.0000   1.0000   1.0000   1.0000   1.0000   1.0000
     1.0000   1.0000   1.0000   1.0000   1.0000   1.0000   1.0000   1.0000
     1.0000   1.0000   1.0000   1.0000   1.0000   1.0000   1.0000   1.0000
     1.0000   1.0000   1.0000   1.0000   1.0000   1.0000   1.0000   1.0000
     1.0000   1.0000   1.0000   1.0000   1.0000   1.0000   1.0000   1.0000
     1.0000   1.0000   1.0000   1.0000   1.0000   1.0000   1.0000   1.0000
     1.0000   1.0000   1.0000   1.0000   1.0000   1.0000   1.0000   1.0000
     1.0000   1.0000   1.0000   1.0000   1.0000   1.0000   1.0001   1.0001
     1.0001   1.0009   1.0031   1.0031   1.0038   1.0066   1.0066   1.0076
     1.0076   1.0223   1.0223   1.0334   1.0334   1.0450   1.0664   1.0786
     1.0786   1.0792   1.0792   1.0799   1.0578   1.0578   1.0069   1.0069
     0.9128   0.9128   0.8776   0.7648   0.7544   0.7544   0.5949   0.5949
     0.3967   0.3967   0.1368   0.1368   0.0569   0.0506   0.0506   0.0470
     0.0413   0.0413   0.0266   0.0266   0.0122   0.0046   0.0029   0.0029
     0.0013   0.0013   0.0006   0.0005   0.0005   0.0001   0.0001   0.0000
     0.0000   0.0000   0.0000   0.0000   0.0000   0.0000   0.0000   0.0000
     0.0000   0.0000   0.0000   0.0000   0.0000   0.0000   0.0000   0.0000
     0.0000   0.0000   0.0000   0.0000   0.0000   0.0000   0.0000   0.0000
     0.0000   0.0000   0.0000   0.0000   0.0000   0.0000   0.0000   0.0000
     0.0000   0.0000   0.0000   0.0000   0.0000   0.0000   0.0000   0.0000
     0.0000   0.0000   0.0000   0.0000   0.0000   0.0000   0.0000   0.0000
     0.0000   0.0000   0.0000   0.0000   0.0000   0.0000   0.0000   0.0000
     0.0000   0.0000   0.0000   0.0000   0.0000   0.0000   0.0000   0.0000
     0.0000   0.0000   0.0000   0.0000   0.0000   0.0000   0.0000   0.0000

          k = 0.2500 0.4330 0.0000 ( 64876 PWs)   bands (ev):

  -125.0881-125.0876-125.0876-125.0865-125.0865-125.0859-125.0857-125.0857
  -125.0853-125.0853-125.0852-125.0852-125.0849-125.0848-125.0848-125.0846
  -124.8805-124.8805-124.8801-124.8801-124.8801-124.8801-124.8789-124.8789
  -124.8789-124.8789-124.8784-124.8784-124.8782-124.8782-124.8782-124.8782
  -124.8778-124.8778-124.8778-124.8778-124.8777-124.8777-124.8777-124.8777
  -124.8773-124.8773-124.8772-124.8772-124.8772-124.8772-124.8770-124.8770
   -79.2529 -79.2513 -79.2513 -79.2508 -79.2508 -79.2486 -79.2486 -79.2465
   -79.2465 -79.2461 -79.2426 -79.2418 -79.2381 -79.2381 -79.2371 -79.2366
   -79.2366 -79.2353 -79.2353 -79.2346 -79.2346 -79.2346 -79.2344 -79.2344
   -79.2340 -79.2340 -79.2339 -79.2339 -79.2334 -79.2333 -79.2333 -79.2331
   -79.2312 -79.2294 -79.2294 -79.2280 -79.2280 -79.2280 -79.2273 -79.2273
   -79.2266 -79.2266 -79.2251 -79.2251 -79.2225 -79.2210 -79.2210 -79.2196
   -79.0433 -79.0433 -79.0417 -79.0417 -79.0417 -79.0417 -79.0412 -79.0412
   -79.0411 -79.0411 -79.0390 -79.0390 -79.0390 -79.0390 -79.0370 -79.0369
   -79.0369 -79.0369 -79.0365 -79.0365 -79.0358 -79.0356 -79.0353 -79.0353
   -79.0351 -79.0351 -79.0340 -79.0340 -79.0339 -79.0339 -79.0334 -79.0333
   -79.0332 -79.0331 -79.0331 -79.0331 -79.0330 -79.0330 -79.0327 -79.0327
   -79.0327 -79.0327 -79.0326 -79.0326 -79.0326 -79.0326 -79.0322 -79.0322
   -79.0322 -79.0322 -79.0321 -79.0321 -79.0321 -79.0321 -79.0319 -79.0319
   -79.0285 -79.0285 -79.0285 -79.0285 -79.0250 -79.0250 -79.0250 -79.0250
   -79.0217 -79.0216 -79.0199 -79.0198 -79.0198 -79.0198 -79.0184 -79.0184
   -79.0184 -79.0184 -79.0184 -79.0184 -79.0177 -79.0177 -79.0177 -79.0177
   -79.0170 -79.0170 -79.0170 -79.0170 -79.0156 -79.0156 -79.0155 -79.0155
   -79.0130 -79.0129 -79.0115 -79.0115 -79.0114 -79.0114 -79.0101 -79.0101
    -8.2996  -7.8528  -7.8528  -7.1363  -6.9362  -6.8617  -6.8617  -6.8311
    -6.8311  -6.8194  -6.8194  -6.8169  -6.8169  -6.7904  -6.7496  -6.7496
    -6.7202  -6.7202  -6.6777  -6.6777  -6.6459  -6.6307  -6.6307  -6.6260
    -6.6260  -6.6108  -6.6108  -6.5899  -6.5899  -6.5828  -6.5828  -6.5652
    -6.5570  -6.5570  -6.5138  -6.5138  -6.4941  -6.4931  -6.4931  -6.4841
    -6.4841  -6.4637  -6.4607  -6.4391  -6.4364  -6.4364  -6.4337  -6.4337
    -6.4240  -6.4240  -6.4148  -6.3905  -6.3904  -6.3342  -6.3225  -6.3225
    -6.3180  -6.3180  -6.3135  -6.3135  -6.3130  -6.2990  -6.2895  -6.2843
    -6.2842  -6.2770  -6.2698  -6.2698  -6.2648  -6.2648  -6.2629  -6.2425
    -6.2425  -6.2223  -6.2223  -6.1982  -6.1982  -6.1867  -6.1686  -6.1662
    -6.1615  -6.1615  -6.1387  -6.1387  -6.1297  -6.1297  -6.1142  -6.1095
    -6.0752  -6.0752  -6.0662  -6.0661  -6.0621  -6.0540  -6.0401  -6.0401
    -6.0184  -6.0107  -6.0107  -6.0095  -6.0004  -6.0004  -5.9921  -5.9921
    -5.9907  -5.9907  -5.9761  -5.9679  -5.9623  -5.9364  -5.9364  -5.9272
    -5.9272  -5.9259  -5.9198  -5.9107  -5.9107  -5.9069  -5.9046  -5.8977
    -5.8977  -5.8733  -5.8733  -5.8664  -5.8664  -5.8544  -5.8544  -5.8536
    -5.8508  -5.8501  -5.8501  -5.8286  -5.8181  -5.8181  -5.8131  -5.7922
    -5.7839  -5.7839  -5.7762  -5.7719  -5.7719  -5.7696  -5.7336  -5.7336
    -5.7140  -5.7140  -5.7107  -5.7106  -5.6762  -5.6729  -5.6729  -5.6725
    -5.6725  -5.6664  -5.6536  -5.6500  -5.6499  -5.6430  -5.6430  -5.6126
    -5.6126  -5.6111  -5.6109  -5.6108  -5.6019  -5.6019  -5.5996  -5.5996
    -5.5970  -5.5970  -5.5932  -5.5932  -5.5860  -5.5860  -5.5682  -5.5682
    -5.5672  -5.5672  -5.5631  -5.5597  -5.5541  -5.5541  -5.5339  -5.5338
    -5.5324  -5.5292  -5.5292  -5.5262  -5.5218  -5.5025  -5.5025  -5.5007
    -5.4987  -5.4987  -5.4839  -5.4793  -5.4793  -5.4792  -5.4792  -5.4768
    -5.4768  -5.4744  -5.4744  -5.4618  -5.4618  -5.4592  -5.4592  -5.4522
    -5.4522  -5.4502  -5.4360  -5.4360  -5.4290  -5.4290  -5.4274  -5.4167
    -5.4128  -5.4049  -5.4049  -5.3948  -5.3948  -5.3930  -5.3882  -5.3875
    -5.3832  -5.3832  -5.3541  -5.3476  -5.3476  -5.3282  -5.3282  -5.3015
    -5.2955  -5.2955  -5.2926  -5.2926  -5.2909  -5.2909  -5.2768  -5.2486
    -5.2069  -5.2069  -5.2027  -5.2027  -5.1655  -5.1655  -5.0853  -5.0853
    -4.4805  -4.2589  -4.2589  -4.0671  -4.0671  -3.2718  -3.2718  -3.2109
    -3.1690  -2.9047  -2.9047  -2.8658  -2.8658  -2.8051  -2.8051  -1.8208
    -1.8208  -1.7191  -1.7191  -1.4385  -1.4385  -0.8632  -0.4944  -0.4944
    -0.4403  -0.4403  -0.3516  -0.2574   0.2670   0.3337   0.3337   0.4044
     0.4044   0.6796   0.6796   0.7631   0.9446   0.9446   1.0582   1.3881
     1.3881   1.9590   1.9590   2.5052   2.5271   2.7920   2.9686   3.0625
     3.2987   3.2987   3.3389   3.3389   3.4293   3.4293   3.4318   3.5549
     3.5549   3.6464   3.8788   3.8788   4.3568   4.3568   4.3663   4.4083
     4.4191   4.4191   4.5385   4.5385   4.8536   4.9134   5.1215   5.1215
     5.2096   5.2096   5.4173   5.4245   5.4245   5.4264   5.4264   5.6206
     5.8683   5.8683   6.0799   6.0801   6.0801   6.0997   6.0997   6.5304
     6.5304   6.5528   6.6267   6.6297   6.6297   6.7423   6.9363   6.9748
     6.9748   6.9825   7.0153   7.0153   7.0276   7.0276   7.1346   7.1346
     7.1916   7.1916   7.2103   7.2103   7.2148   7.2148   7.4558   7.4558
     8.0942   8.2013   8.2013   8.3459   8.3616   8.3883   8.3883   8.5095
     8.5288   8.5288   8.5598   8.5654   8.5654   8.6262   8.6262   8.6386
     8.6525   8.6525   8.7011   8.7169   8.8150   8.8151   9.0196   9.3079

     occupation numbers 
     1.0000   1.0000   1.0000   1.0000   1.0000   1.0000   1.0000   1.0000
     1.0000   1.0000   1.0000   1.0000   1.0000   1.0000   1.0000   1.0000
     1.0000   1.0000   1.0000   1.0000   1.0000   1.0000   1.0000   1.0000
     1.0000   1.0000   1.0000   1.0000   1.0000   1.0000   1.0000   1.0000
     1.0000   1.0000   1.0000   1.0000   1.0000   1.0000   1.0000   1.0000
     1.0000   1.0000   1.0000   1.0000   1.0000   1.0000   1.0000   1.0000
     1.0000   1.0000   1.0000   1.0000   1.0000   1.0000   1.0000   1.0000
     1.0000   1.0000   1.0000   1.0000   1.0000   1.0000   1.0000   1.0000
     1.0000   1.0000   1.0000   1.0000   1.0000   1.0000   1.0000   1.0000
     1.0000   1.0000   1.0000   1.0000   1.0000   1.0000   1.0000   1.0000
     1.0000   1.0000   1.0000   1.0000   1.0000   1.0000   1.0000   1.0000
     1.0000   1.0000   1.0000   1.0000   1.0000   1.0000   1.0000   1.0000
     1.0000   1.0000   1.0000   1.0000   1.0000   1.0000   1.0000   1.0000
     1.0000   1.0000   1.0000   1.0000   1.0000   1.0000   1.0000   1.0000
     1.0000   1.0000   1.0000   1.0000   1.0000   1.0000   1.0000   1.0000
     1.0000   1.0000   1.0000   1.0000   1.0000   1.0000   1.0000   1.0000
     1.0000   1.0000   1.0000   1.0000   1.0000   1.0000   1.0000   1.0000
     1.0000   1.0000   1.0000   1.0000   1.0000   1.0000   1.0000   1.0000
     1.0000   1.0000   1.0000   1.0000   1.0000   1.0000   1.0000   1.0000
     1.0000   1.0000   1.0000   1.0000   1.0000   1.0000   1.0000   1.0000
     1.0000   1.0000   1.0000   1.0000   1.0000   1.0000   1.0000   1.0000
     1.0000   1.0000   1.0000   1.0000   1.0000   1.0000   1.0000   1.0000
     1.0000   1.0000   1.0000   1.0000   1.0000   1.0000   1.0000   1.0000
     1.0000   1.0000   1.0000   1.0000   1.0000   1.0000   1.0000   1.0000
     1.0000   1.0000   1.0000   1.0000   1.0000   1.0000   1.0000   1.0000
     1.0000   1.0000   1.0000   1.0000   1.0000   1.0000   1.0000   1.0000
     1.0000   1.0000   1.0000   1.0000   1.0000   1.0000   1.0000   1.0000
     1.0000   1.0000   1.0000   1.0000   1.0000   1.0000   1.0000   1.0000
     1.0000   1.0000   1.0000   1.0000   1.0000   1.0000   1.0000   1.0000
     1.0000   1.0000   1.0000   1.0000   1.0000   1.0000   1.0000   1.0000
     1.0000   1.0000   1.0000   1.0000   1.0000   1.0000   1.0000   1.0000
     1.0000   1.0000   1.0000   1.0000   1.0000   1.0000   1.0000   1.0000
     1.0000   1.0000   1.0000   1.0000   1.0000   1.0000   1.0000   1.0000
     1.0000   1.0000   1.0000   1.0000   1.0000   1.0000   1.0000   1.0000
     1.0000   1.0000   1.0000   1.0000   1.0000   1.0000   1.0000   1.0000
     1.0000   1.0000   1.0000   1.0000   1.0000   1.0000   1.0000   1.0000
     1.0000   1.0000   1.0000   1.0000   1.0000   1.0000   1.0000   1.0000
     1.0000   1.0000   1.0000   1.0000   1.0000   1.0000   1.0000   1.0000
     1.0000   1.0000   1.0000   1.0000   1.0000   1.0000   1.0000   1.0000
     1.0000   1.0000   1.0000   1.0000   1.0000   1.0000   1.0000   1.0000
     1.0000   1.0000   1.0000   1.0000   1.0000   1.0000   1.0000   1.0000
     1.0000   1.0000   1.0000   1.0000   1.0000   1.0000   1.0000   1.0000
     1.0000   1.0000   1.0000   1.0000   1.0000   1.0000   1.0000   1.0000
     1.0000   1.0000   1.0000   1.0000   1.0000   1.0000   1.0000   1.0000
     1.0000   1.0000   1.0000   1.0000   1.0000   1.0000   1.0000   1.0000
     1.0000   1.0000   1.0000   1.0000   1.0000   1.0000   1.0000   1.0000
     1.0000   1.0000   1.0000   1.0000   1.0000   1.0000   1.0000   1.0000
     1.0000   1.0000   1.0000   1.0000   1.0000   1.0000   1.0000   1.0000
     1.0000   1.0000   1.0000   1.0000   1.0000   1.0000   1.0000   1.0000
     1.0000   1.0000   1.0000   1.0000   1.0000   1.0000   1.0000   1.0000
     1.0000   1.0000   1.0000   1.0000   1.0000   1.0000   1.0000   1.0000
     1.0000   1.0000   1.0000   1.0000   1.0000   1.0000   1.0000   1.0000
     1.0000   1.0000   1.0000   1.0000   1.0000   1.0000   1.0000   1.0000
     1.0000   1.0000   1.0000   1.0000   1.0000   1.0000   1.0000   1.0000
     1.0000   1.0000   1.0000   1.0000   1.0000   1.0000   1.0000   1.0000
     1.0000   1.0000   1.0000   1.0000   1.0000   1.0001   1.0001   1.0001
     1.0002   1.0004   1.0004   1.0005   1.0005   1.0006   1.0006   1.0118
     1.0118   1.0150   1.0150   1.0269   1.0269   1.0636   1.0821   1.0821
     1.0831   1.0831   1.0831   1.0806   1.0024   0.9831   0.9831   0.9603
     0.9603   0.8496   0.8496   0.8099   0.7167   0.7167   0.6549   0.4738
     0.4738   0.2140   0.2140   0.0744   0.0708   0.0379   0.0240   0.0185
     0.0093   0.0093   0.0083   0.0083   0.0062   0.0062   0.0062   0.0042
     0.0042   0.0031   0.0014   0.0014   0.0002   0.0002   0.0002   0.0002
     0.0002   0.0002   0.0001   0.0001   0.0000   0.0000   0.0000   0.0000
     0.0000   0.0000   0.0000   0.0000   0.0000   0.0000   0.0000   0.0000
     0.0000   0.0000   0.0000   0.0000   0.0000   0.0000   0.0000   0.0000
     0.0000   0.0000   0.0000   0.0000   0.0000   0.0000   0.0000   0.0000
     0.0000   0.0000   0.0000   0.0000   0.0000   0.0000   0.0000   0.0000
     0.0000   0.0000   0.0000   0.0000   0.0000   0.0000   0.0000   0.0000
     0.0000   0.0000   0.0000   0.0000   0.0000   0.0000   0.0000   0.0000
     0.0000   0.0000   0.0000   0.0000   0.0000   0.0000   0.0000   0.0000
     0.0000   0.0000   0.0000   0.0000   0.0000   0.0000   0.0000   0.0000

          k = 0.2500-0.4330 0.0000 ( 64876 PWs)   bands (ev):

  -125.0881-125.0876-125.0876-125.0865-125.0865-125.0859-125.0857-125.0857
  -125.0853-125.0853-125.0852-125.0852-125.0849-125.0848-125.0848-125.0846
  -124.8805-124.8805-124.8801-124.8801-124.8801-124.8801-124.8789-124.8789
  -124.8789-124.8789-124.8784-124.8784-124.8782-124.8782-124.8782-124.8782
  -124.8778-124.8778-124.8778-124.8778-124.8777-124.8777-124.8777-124.8777
  -124.8773-124.8773-124.8772-124.8772-124.8772-124.8772-124.8770-124.8770
   -79.2529 -79.2513 -79.2513 -79.2508 -79.2508 -79.2486 -79.2486 -79.2465
   -79.2465 -79.2461 -79.2426 -79.2418 -79.2381 -79.2381 -79.2371 -79.2366
   -79.2366 -79.2353 -79.2353 -79.2346 -79.2346 -79.2346 -79.2344 -79.2344
   -79.2340 -79.2340 -79.2339 -79.2339 -79.2334 -79.2333 -79.2333 -79.2331
[...]
     1.0000   1.0000   1.0000   1.0000   1.0000   1.0000   1.0000   1.0000
     1.0000   1.0000   1.0000   1.0000   1.0000   1.0000   1.0000   1.0000
     1.0000   1.0000   1.0000   1.0000   1.0000   1.0000   1.0000   1.0000
     1.0000   1.0000   1.0000   1.0000   1.0000   1.0000   1.0000   1.0000
     1.0000   1.0000   1.0000   1.0000   1.0000   1.0000   1.0000   1.0000
     1.0000   1.0000   1.0000   1.0000   1.0000   1.0000   1.0000   1.0000
     1.0000   1.0000   1.0000   1.0000   1.0000   1.0000   1.0000   1.0000
     1.0000   1.0000   1.0000   1.0000   1.0000   1.0000   1.0000   1.0000
     1.0000   1.0000   1.0000   1.0000   1.0000   1.0000   1.0000   1.0000
     1.0000   1.0000   1.0000   1.0000   1.0000   1.0000   1.0000   1.0000
     1.0000   1.0000   1.0000   1.0000   1.0000   1.0000   1.0000   1.0000
     1.0000   1.0000   1.0000   1.0000   1.0000   1.0000   1.0000   1.0000
     1.0000   1.0000   1.0000   1.0000   1.0000   1.0000   1.0000   1.0000
     1.0000   1.0000   1.0000   1.0000   1.0000   1.0000   1.0000   1.0000
     1.0000   1.0000   1.0000   1.0000   1.0000   1.0000   1.0000   1.0000
     1.0000   1.0000   1.0000   1.0000   1.0000   1.0000   1.0000   1.0000
     1.0000   1.0000   1.0000   1.0000   1.0000   1.0000   1.0000   1.0000
     1.0000   1.0000   1.0000   1.0000   1.0000   1.0000   1.0000   1.0000
     1.0000   1.0000   1.0000   1.0000   1.0000   1.0000   1.0000   1.0000
     1.0000   1.0000   1.0000   1.0000   1.0000   1.0000   1.0000   1.0000
     1.0000   1.0000   1.0000   1.0000   1.0000   1.0000   1.0000   1.0000
     1.0000   1.0000   1.0000   1.0000   1.0000   1.0000   1.0000   1.0000
     1.0000   1.0000   1.0000   1.0000   1.0000   1.0000   1.0000   1.0000
     1.0000   1.0000   1.0000   1.0000   1.0000   1.0000   1.0000   1.0000
     1.0000   1.0000   1.0000   1.0000   1.0000   1.0000   1.0000   1.0000
     1.0000   1.0000   1.0000   1.0000   1.0000   1.0000   1.0000   1.0000
     1.0000   1.0000   1.0000   1.0000   1.0000   1.0000   1.0000   1.0000
     1.0000   1.0000   1.0000   1.0000   1.0000   1.0000   1.0000   1.0000
     1.0000   1.0000   1.0000   1.0000   1.0000   1.0000   1.0000   1.0000
     1.0000   1.0000   1.0000   1.0000   1.0000   1.0000   1.0000   1.0000
     1.0000   1.0000   1.0000   1.0000   1.0000   1.0000   1.0000   1.0000
     1.0000   1.0000   1.0000   1.0000   1.0000   1.0000   1.0000   1.0000
     1.0000   1.0000   1.0000   1.0000   1.0000   1.0000   1.0000   1.0000
     1.0000   1.0000   1.0000   1.0000   1.0000   1.0000   1.0000   1.0000
     1.0000   1.0000   1.0000   1.0000   1.0000   1.0000   1.0000   1.0000
     1.0000   1.0000   1.0000   1.0000   1.0000   1.0000   1.0000   1.0000
     1.0000   1.0000   1.0000   1.0000   1.0000   1.0001   1.0001   1.0001
     1.0002   1.0004   1.0004   1.0005   1.0005   1.0006   1.0006   1.0118
     1.0118   1.0150   1.0150   1.0269   1.0269   1.0636   1.0821   1.0821
     1.0831   1.0831   1.0831   1.0806   1.0024   0.9831   0.9831   0.9603
     0.9603   0.8496   0.8496   0.8099   0.7167   0.7167   0.6549   0.4738
     0.4738   0.2140   0.2140   0.0744   0.0708   0.0379   0.0240   0.0185
     0.0093   0.0093   0.0083   0.0083   0.0062   0.0062   0.0062   0.0042
     0.0042   0.0031   0.0014   0.0014   0.0002   0.0002   0.0002   0.0002
     0.0002   0.0002   0.0001   0.0001   0.0000   0.0000   0.0000   0.0000
     0.0000   0.0000   0.0000   0.0000   0.0000   0.0000   0.0000   0.0000
     0.0000   0.0000   0.0000   0.0000   0.0000   0.0000   0.0000   0.0000
     0.0000   0.0000   0.0000   0.0000   0.0000   0.0000   0.0000   0.0000
     0.0000   0.0000   0.0000   0.0000   0.0000   0.0000   0.0000   0.0000
     0.0000   0.0000   0.0000   0.0000   0.0000   0.0000   0.0000   0.0000
     0.0000   0.0000   0.0000   0.0000   0.0000   0.0000   0.0000   0.0000
     0.0000   0.0000   0.0000   0.0000   0.0000   0.0000   0.0000   0.0000
     0.0000   0.0000   0.0000   0.0000   0.0000   0.0000   0.0000   0.0000

          k =-0.5000-0.8660 0.0000 ( 64842 PWs)   bands (ev):

  -125.0880-125.0879-125.0871-125.0871-125.0859-125.0859-125.0859-125.0859
  -125.0855-125.0855-125.0850-125.0850-125.0850-125.0850-125.0846-125.0846
  -124.8804-124.8804-124.8804-124.8804-124.8795-124.8795-124.8795-124.8795
  -124.8783-124.8783-124.8783-124.8783-124.8783-124.8783-124.8783-124.8783
  -124.8780-124.8780-124.8779-124.8779-124.8775-124.8775-124.8775-124.8775
  -124.8774-124.8774-124.8774-124.8774-124.8771-124.8771-124.8771-124.8771
   -79.2518 -79.2518 -79.2518 -79.2518 -79.2494 -79.2493 -79.2483 -79.2483
   -79.2438 -79.2438 -79.2438 -79.2438 -79.2389 -79.2389 -79.2370 -79.2370
   -79.2360 -79.2360 -79.2346 -79.2346 -79.2346 -79.2346 -79.2342 -79.2342
   -79.2336 -79.2336 -79.2336 -79.2336 -79.2332 -79.2332 -79.2323 -79.2323
   -79.2308 -79.2307 -79.2307 -79.2307 -79.2274 -79.2274 -79.2274 -79.2274
   -79.2266 -79.2266 -79.2238 -79.2238 -79.2228 -79.2228 -79.2199 -79.2199
   -79.0422 -79.0422 -79.0422 -79.0422 -79.0422 -79.0422 -79.0422 -79.0422
   -79.0398 -79.0398 -79.0397 -79.0397 -79.0387 -79.0387 -79.0387 -79.0387
   -79.0357 -79.0356 -79.0355 -79.0355 -79.0347 -79.0347 -79.0346 -79.0346
   -79.0342 -79.0342 -79.0342 -79.0342 -79.0342 -79.0342 -79.0342 -79.0342
   -79.0333 -79.0333 -79.0333 -79.0333 -79.0333 -79.0333 -79.0333 -79.0333
   -79.0329 -79.0329 -79.0329 -79.0329 -79.0324 -79.0324 -79.0324 -79.0323
   -79.0323 -79.0323 -79.0323 -79.0323 -79.0320 -79.0320 -79.0319 -79.0319
   -79.0293 -79.0293 -79.0293 -79.0293 -79.0227 -79.0227 -79.0227 -79.0227
   -79.0212 -79.0212 -79.0212 -79.0212 -79.0212 -79.0212 -79.0212 -79.0212
   -79.0179 -79.0179 -79.0179 -79.0179 -79.0179 -79.0179 -79.0179 -79.0179
   -79.0171 -79.0170 -79.0170 -79.0170 -79.0143 -79.0143 -79.0143 -79.0142
   -79.0133 -79.0133 -79.0133 -79.0133 -79.0104 -79.0104 -79.0104 -79.0103
    -8.1855  -8.1854  -7.3464  -7.3464  -7.0502  -7.0501  -6.8858  -6.8858
    -6.8818  -6.8818  -6.7713  -6.7713  -6.7713  -6.7713  -6.6761  -6.6761
    -6.6698  -6.6698  -6.6698  -6.6698  -6.6463  -6.6463  -6.6298  -6.6298
    -6.6297  -6.6297  -6.5756  -6.5756  -6.5504  -6.5503  -6.5503  -6.5503
    -6.5299  -6.5299  -6.5109  -6.5109  -6.5109  -6.5109  -6.4860  -6.4860
    -6.4860  -6.4860  -6.4820  -6.4820  -6.4724  -6.4723  -6.4476  -6.4476
    -6.4426  -6.4426  -6.4425  -6.4425  -6.3323  -6.3323  -6.3226  -6.3226
    -6.3135  -6.3135  -6.3135  -6.3135  -6.3126  -6.3126  -6.2913  -6.2913
    -6.2913  -6.2913  -6.2571  -6.2571  -6.2421  -6.2421  -6.2421  -6.2421
    -6.2278  -6.2278  -6.2219  -6.2219  -6.1911  -6.1911  -6.1616  -6.1616
    -6.1322  -6.1322  -6.1240  -6.1240  -6.1022  -6.1022  -6.1022  -6.1022
    -6.0824  -6.0824  -6.0824  -6.0824  -6.0624  -6.0624  -6.0527  -6.0527
    -6.0472  -6.0472  -6.0411  -6.0411  -6.0301  -6.0301  -6.0096  -6.0096
    -6.0096  -6.0096  -5.9668  -5.9668  -5.9659  -5.9659  -5.9361  -5.9361
    -5.9242  -5.9242  -5.8928  -5.8928  -5.8927  -5.8927  -5.8354  -5.8354
    -5.8295  -5.8295  -5.8283  -5.8283  -5.8283  -5.8283  -5.8267  -5.8267
    -5.8061  -5.8061  -5.8050  -5.8050  -5.7957  -5.7957  -5.7957  -5.7957
    -5.7874  -5.7874  -5.7869  -5.7869  -5.7869  -5.7869  -5.7766  -5.7766
    -5.7741  -5.7741  -5.7741  -5.7741  -5.6945  -5.6945  -5.6933  -5.6933
    -5.6869  -5.6869  -5.6646  -5.6646  -5.6646  -5.6646  -5.6523  -5.6523
    -5.6421  -5.6421  -5.6233  -5.6233  -5.6233  -5.6233  -5.6143  -5.6143
    -5.5894  -5.5894  -5.5625  -5.5625  -5.5483  -5.5483  -5.5483  -5.5483
    -5.5448  -5.5448  -5.5448  -5.5448  -5.5430  -5.5430  -5.5394  -5.5393
    -5.5178  -5.5178  -5.5178  -5.5178  -5.5067  -5.5067  -5.5062  -5.5062
    -5.5057  -5.5057  -5.4985  -5.4985  -5.4827  -5.4827  -5.4827  -5.4827
    -5.4695  -5.4694  -5.4694  -5.4694  -5.4581  -5.4581  -5.4415  -5.4414
    -5.4351  -5.4351  -5.4351  -5.4351  -5.4312  -5.4312  -5.4310  -5.4310
    -5.4227  -5.4227  -5.4206  -5.4206  -5.4206  -5.4206  -5.3890  -5.3890
    -5.3826  -5.3826  -5.3826  -5.3826  -5.3433  -5.3433  -5.3433  -5.3433
    -5.2736  -5.2736  -5.2736  -5.2736  -5.2551  -5.2551  -5.2542  -5.2542
    -5.2542  -5.2541  -5.2212  -5.2212  -5.2185  -5.2185  -4.7239  -4.7239
    -4.4430  -4.4430  -4.4430  -4.4430  -3.7551  -3.7551  -3.1261  -3.1261
    -3.0858  -3.0858  -3.0858  -3.0858  -2.4083  -2.4083  -2.2647  -2.2647
    -1.7856  -1.7856  -1.7855  -1.7855  -0.7735  -0.7735  -0.7735  -0.7735
    -0.3508  -0.3508  -0.3508  -0.3508  -0.1063  -0.1063  -0.0060  -0.0060
     0.9927   0.9927   1.0327   1.0327   1.3102   1.3102   1.3464   1.3464
     1.3464   1.3464   2.1977   2.1977   2.8763   2.8763   2.8763   2.8763
     3.0847   3.0847   3.0847   3.0847   3.2975   3.2975   3.5435   3.5435
     3.8412   3.8412   3.8412   3.8412   3.9804   3.9804   4.2301   4.2301
     4.4362   4.4362   4.7254   4.7254   4.8325   4.8325   5.4631   5.4631
     5.5301   5.5301   5.7355   5.7355   5.7773   5.7773   5.9136   5.9136
     5.9136   5.9136   5.9658   5.9658   5.9658   5.9658   6.1427   6.1427
     6.1427   6.1427   6.4312   6.4312   6.5344   6.5344   6.6540   6.6540
     6.6685   6.6685   6.8547   6.8547   6.8551   6.8551   6.9860   6.9860
     6.9860   6.9860   7.5911   7.5911   7.7520   7.7520   8.0486   8.0486
     8.0849   8.0849   8.0849   8.0849   8.2621   8.2621   8.4872   8.4872
     8.4872   8.4872   8.6124   8.6124   8.6124   8.6125   8.6749   8.6749
     8.7186   8.7186   8.8123   8.8123   8.9866   8.9866   8.9866   8.9866

     occupation numbers 
     1.0000   1.0000   1.0000   1.0000   1.0000   1.0000   1.0000   1.0000
     1.0000   1.0000   1.0000   1.0000   1.0000   1.0000   1.0000   1.0000
     1.0000   1.0000   1.0000   1.0000   1.0000   1.0000   1.0000   1.0000
     1.0000   1.0000   1.0000   1.0000   1.0000   1.0000   1.0000   1.0000
     1.0000   1.0000   1.0000   1.0000   1.0000   1.0000   1.0000   1.0000
     1.0000   1.0000   1.0000   1.0000   1.0000   1.0000   1.0000   1.0000
     1.0000   1.0000   1.0000   1.0000   1.0000   1.0000   1.0000   1.0000
     1.0000   1.0000   1.0000   1.0000   1.0000   1.0000   1.0000   1.0000
     1.0000   1.0000   1.0000   1.0000   1.0000   1.0000   1.0000   1.0000
     1.0000   1.0000   1.0000   1.0000   1.0000   1.0000   1.0000   1.0000
     1.0000   1.0000   1.0000   1.0000   1.0000   1.0000   1.0000   1.0000
     1.0000   1.0000   1.0000   1.0000   1.0000   1.0000   1.0000   1.0000
     1.0000   1.0000   1.0000   1.0000   1.0000   1.0000   1.0000   1.0000
     1.0000   1.0000   1.0000   1.0000   1.0000   1.0000   1.0000   1.0000
     1.0000   1.0000   1.0000   1.0000   1.0000   1.0000   1.0000   1.0000
     1.0000   1.0000   1.0000   1.0000   1.0000   1.0000   1.0000   1.0000
     1.0000   1.0000   1.0000   1.0000   1.0000   1.0000   1.0000   1.0000
     1.0000   1.0000   1.0000   1.0000   1.0000   1.0000   1.0000   1.0000
     1.0000   1.0000   1.0000   1.0000   1.0000   1.0000   1.0000   1.0000
     1.0000   1.0000   1.0000   1.0000   1.0000   1.0000   1.0000   1.0000
     1.0000   1.0000   1.0000   1.0000   1.0000   1.0000   1.0000   1.0000
     1.0000   1.0000   1.0000   1.0000   1.0000   1.0000   1.0000   1.0000
     1.0000   1.0000   1.0000   1.0000   1.0000   1.0000   1.0000   1.0000
     1.0000   1.0000   1.0000   1.0000   1.0000   1.0000   1.0000   1.0000
     1.0000   1.0000   1.0000   1.0000   1.0000   1.0000   1.0000   1.0000
     1.0000   1.0000   1.0000   1.0000   1.0000   1.0000   1.0000   1.0000
     1.0000   1.0000   1.0000   1.0000   1.0000   1.0000   1.0000   1.0000
     1.0000   1.0000   1.0000   1.0000   1.0000   1.0000   1.0000   1.0000
     1.0000   1.0000   1.0000   1.0000   1.0000   1.0000   1.0000   1.0000
     1.0000   1.0000   1.0000   1.0000   1.0000   1.0000   1.0000   1.0000
     1.0000   1.0000   1.0000   1.0000   1.0000   1.0000   1.0000   1.0000
     1.0000   1.0000   1.0000   1.0000   1.0000   1.0000   1.0000   1.0000
     1.0000   1.0000   1.0000   1.0000   1.0000   1.0000   1.0000   1.0000
     1.0000   1.0000   1.0000   1.0000   1.0000   1.0000   1.0000   1.0000
     1.0000   1.0000   1.0000   1.0000   1.0000   1.0000   1.0000   1.0000
     1.0000   1.0000   1.0000   1.0000   1.0000   1.0000   1.0000   1.0000
     1.0000   1.0000   1.0000   1.0000   1.0000   1.0000   1.0000   1.0000
     1.0000   1.0000   1.0000   1.0000   1.0000   1.0000   1.0000   1.0000
     1.0000   1.0000   1.0000   1.0000   1.0000   1.0000   1.0000   1.0000
     1.0000   1.0000   1.0000   1.0000   1.0000   1.0000   1.0000   1.0000
     1.0000   1.0000   1.0000   1.0000   1.0000   1.0000   1.0000   1.0000
     1.0000   1.0000   1.0000   1.0000   1.0000   1.0000   1.0000   1.0000
     1.0000   1.0000   1.0000   1.0000   1.0000   1.0000   1.0000   1.0000
     1.0000   1.0000   1.0000   1.0000   1.0000   1.0000   1.0000   1.0000
     1.0000   1.0000   1.0000   1.0000   1.0000   1.0000   1.0000   1.0000
     1.0000   1.0000   1.0000   1.0000   1.0000   1.0000   1.0000   1.0000
     1.0000   1.0000   1.0000   1.0000   1.0000   1.0000   1.0000   1.0000
     1.0000   1.0000   1.0000   1.0000   1.0000   1.0000   1.0000   1.0000
     1.0000   1.0000   1.0000   1.0000   1.0000   1.0000   1.0000   1.0000
     1.0000   1.0000   1.0000   1.0000   1.0000   1.0000   1.0000   1.0000
     1.0000   1.0000   1.0000   1.0000   1.0000   1.0000   1.0000   1.0000
     1.0000   1.0000   1.0000   1.0000   1.0000   1.0000   1.0000   1.0000
     1.0000   1.0000   1.0000   1.0000   1.0000   1.0000   1.0000   1.0000
     1.0000   1.0000   1.0000   1.0000   1.0000   1.0000   1.0000   1.0000
     1.0000   1.0000   1.0000   1.0000   1.0000   1.0000   1.0000   1.0000
     1.0000   1.0000   1.0000   1.0000   1.0000   1.0000   1.0002   1.0002
     1.0002   1.0002   1.0002   1.0002   1.0024   1.0024   1.0036   1.0036
     1.0128   1.0128   1.0128   1.0128   1.0694   1.0694   1.0694   1.0694
     1.0830   1.0830   1.0830   1.0830   1.0703   1.0703   1.0584   1.0584
     0.6908   0.6908   0.6689   0.6689   0.5159   0.5159   0.4962   0.4962
     0.4962   0.4962   0.1399   0.1399   0.0306   0.0306   0.0306   0.0306
     0.0174   0.0174   0.0174   0.0174   0.0094   0.0094   0.0043   0.0043
     0.0016   0.0016   0.0016   0.0016   0.0009   0.0009   0.0004   0.0004
     0.0002   0.0002   0.0000   0.0000   0.0000   0.0000   0.0000   0.0000
     0.0000   0.0000   0.0000   0.0000   0.0000   0.0000   0.0000   0.0000
     0.0000   0.0000   0.0000   0.0000   0.0000   0.0000   0.0000   0.0000
     0.0000   0.0000   0.0000   0.0000   0.0000   0.0000   0.0000   0.0000
     0.0000   0.0000   0.0000   0.0000   0.0000   0.0000   0.0000   0.0000
     0.0000   0.0000   0.0000   0.0000   0.0000   0.0000   0.0000   0.0000
     0.0000   0.0000   0.0000   0.0000   0.0000   0.0000   0.0000   0.0000
     0.0000   0.0000   0.0000   0.0000   0.0000   0.0000   0.0000   0.0000
     0.0000   0.0000   0.0000   0.0000   0.0000   0.0000   0.0000   0.0000

     the Fermi energy is     1.5290 ev

!    total energy              =  -22154.21470854 Ry
     estimated scf accuracy    <          8.8E-09 Ry
     smearing contrib. (-TS)   =       0.05580295 Ry
     internal energy E=F+TS    =  -22154.27051149 Ry

     The total energy is F=E-TS. E is the sum of the following terms:
     one-electron contribution = -144863.91995667 Ry
     hartree contribution      =   72364.56876919 Ry
     xc contribution           =   -2024.16726771 Ry
     ewald contribution        =   52369.24794369 Ry

     convergence has been achieved in  12 iterations

     Writing all to output data dir ./tmp/Zn002.save/ :
     XML data file, charge density, pseudopotentials, collected wavefunctions

     init_run     :    114.23s CPU    115.85s WALL (       1 calls)
     electrons    :   5723.92s CPU   5774.70s WALL (       1 calls)

     Called by init_run:
     wfcinit      :    112.89s CPU    114.26s WALL (       1 calls)
     wfcinit:atom :      0.06s CPU      0.12s WALL (      10 calls)
     wfcinit:wfcr :    111.87s CPU    112.83s WALL (      10 calls)
     potinit      :      0.07s CPU      0.08s WALL (       1 calls)
     hinit0       :      0.04s CPU      0.04s WALL (       1 calls)

     Called by electrons:
     c_bands      :   5334.75s CPU   5381.64s WALL (      13 calls)
     sum_band     :    376.82s CPU    379.89s WALL (      13 calls)
     v_of_rho     :      0.81s CPU      0.85s WALL (      13 calls)
     v_h          :      0.05s CPU      0.06s WALL (      13 calls)
     v_xc         :      0.76s CPU      0.79s WALL (      13 calls)
     newd         :     12.28s CPU     13.24s WALL (      13 calls)
     mix_rho      :      0.11s CPU      0.12s WALL (      13 calls)

     Called by c_bands:
     init_us_2    :      4.88s CPU      4.98s WALL (     270 calls)
     cegterg      :   5323.46s CPU   5369.72s WALL (     130 calls)

     Called by sum_band:
     sum_band:wei :      0.14s CPU      0.14s WALL (      13 calls)
     sum_band:loo :    366.17s CPU    368.30s WALL (      13 calls)
     sum_band:buf :      0.86s CPU      1.13s WALL (     130 calls)
     sum_band:ini :      2.36s CPU      2.37s WALL (     130 calls)
     sum_band:cal :    314.27s CPU    315.75s WALL (     130 calls)
     sum_band:bec :      2.69s CPU      2.70s WALL (     130 calls)
     addusdens    :     10.33s CPU     11.25s WALL (      13 calls)
                                        0.00s GPU  (      13 calls)
     addusd:skk   :      0.09s CPU      0.15s WALL (      13 calls)
                                        0.00s GPU  (      13 calls)

     Called by *egterg:
     cdiaghg      :    343.93s CPU    356.26s WALL (     718 calls)
     cegterg:over :    790.82s CPU    793.86s WALL (     598 calls)
     cegterg:upda :    345.06s CPU    347.88s WALL (     598 calls)
     cegterg:last :   1438.66s CPU   1445.85s WALL (     240 calls)
     cdiaghg:chol :     21.95s CPU     22.01s WALL (     718 calls)
     cdiaghg:inve :      3.54s CPU      3.55s WALL (     718 calls)
     cdiaghg:para :     90.32s CPU     92.13s WALL (    1436 calls)
     h_psi        :   1612.23s CPU   1622.52s WALL (     738 calls)
     s_psi        :    659.34s CPU    660.99s WALL (     738 calls)
     g_psi        :      0.70s CPU      0.71s WALL (     598 calls)

     Called by h_psi:
     h_psi:calbec :    740.39s CPU    744.06s WALL (     738 calls)
     vloc_psi     :    208.33s CPU    209.88s WALL (     738 calls)
     add_vuspsi   :    662.54s CPU    664.58s WALL (     738 calls)

     General routines
     calbec       :   1054.66s CPU   1059.80s WALL (     868 calls)
     fft          :      0.50s CPU      0.56s WALL (     167 calls)
     ffts         :      0.03s CPU      0.03s WALL (      26 calls)
     fftw         :    225.18s CPU    226.80s WALL (  428170 calls)
     interpolate  :      0.06s CPU      0.06s WALL (      13 calls)

     Parallel routines

     PWSCF        :      1h37m CPU      1h38m WALL


   This run was terminated on:  17: 1:54  26Mar2025            

=------------------------------------------------------------------------------=
   JOB DONE.
=------------------------------------------------------------------------------=
Note: The following floating-point exceptions are signalling: IEEE_DENORMAL
Note: The following floating-point exceptions are signalling: IEEE_DENORMAL
Note: The following floating-point exceptions are signalling: IEEE_DENORMAL
Note: The following floating-point exceptions are signalling: IEEE_DENORMAL
Note: The following floating-point exceptions are signalling: IEEE_DENORMAL
Note: The following floating-point exceptions are signalling: IEEE_DENORMAL
Note: The following floating-point exceptions are signalling: IEEE_DENORMAL
Note: The following floating-point exceptions are signalling: IEEE_DENORMAL
Note: The following floating-point exceptions are signalling: IEEE_DENORMAL
Note: The following floating-point exceptions are signalling: IEEE_DENORMAL
Note: The following floating-point exceptions are signalling: IEEE_DENORMAL
Note: The following floating-point exceptions are signalling: IEEE_DENORMAL
