--------------------------------------------------------------------------
WARNING: There was an error initializing an OpenFabrics device.

  Local host:   ga00
  Local device: mlx5_0
--------------------------------------------------------------------------

     Program PWSCF v.7.3.1 starts on  4Apr2025 at 16:49:56 

     This program is part of the open-source Quantum ESPRESSO suite
     for quantum simulation of materials; please cite
         "P. Giannozzi et al., J. Phys.:Condens. Matter 21 395502 (2009);
         "P. Giannozzi et al., J. Phys.:Condens. Matter 29 465901 (2017);
         "P. Giannozzi et al., J. Chem. Phys. 152 154105 (2020);
          URL http://www.quantum-espresso.org", 
     in publications or presentations arising from this work. More details at
     http://www.quantum-espresso.org/quote

     Parallel version (MPI), running on    30 processors

     MPI processes distributed on     1 nodes
     40354 MiB available memory on the printing compute node when the environment starts

     Waiting for input...
     Reading input from standard input
Warning: card &CELL ignored
Warning: card   CELL_DOFREE = 'ALL' ignored
Warning: card / ignored

     Current dimensions of program PWSCF are:
     Max number of different atomic species (ntypx) = 10
     Max number of k-points (npk) =  40000
     Max angular momentum in pseudopotentials (lmaxx) =  4
     Presently stress not available with electric field and gates

     file C.pbe-n-kjpaw_psl.1.0.0.UPF: wavefunction(s)  2S 2P renormalized

     R & G space division:  proc/nbgrp/npool/nimage =      30
     Subspace diagonalization in iterative solution of the eigenvalue problem:
     one sub-group per band group will be used
     custom distributed-memory algorithm (size of sub-group:  5*  5 procs)


     Parallelization info
     --------------------
     sticks:   dense  smooth     PW     G-vecs:    dense   smooth      PW
     Min         251     143     38                40033    17285    2384
     Max         252     144     39                40042    17296    2393
     Sum        7555    4303   1159              1201061   518755   71619

     Using Slab Decomposition



     bravais-lattice index     =            0
     lattice parameter (alat)  =      19.7617  a.u.
     unit-cell volume          =   15176.5939 (a.u.)^3
     number of atoms/cell      =           63
     number of atomic types    =            4
     number of electrons       =       996.00
     number of Kohn-Sham states=          598
     kinetic-energy cutoff     =      40.0000  Ry
     charge density cutoff     =     280.0000  Ry
     scf convergence threshold =      1.0E-06
     mixing beta               =       0.4000
     number of iterations used =            8  plain     mixing
     Exchange-correlation= PBE
                           (   1   4   3   4   0   0   0)

     celldm(1)=  19.761696  celldm(2)=   0.000000  celldm(3)=   0.000000
     celldm(4)=   0.000000  celldm(5)=   0.000000  celldm(6)=   0.000000

     crystal axes: (cart. coord. in units of alat)
               a(1) = (   1.000000   0.000000   0.000000 )  
               a(2) = (  -0.500000   0.866025   0.000000 )  
               a(3) = (   0.000000   0.000000   2.270759 )  

     reciprocal axes: (cart. coord. in units 2 pi/alat)
               b(1) = (  1.000000  0.577350 -0.000000 )  
               b(2) = (  0.000000  1.154701  0.000000 )  
               b(3) = (  0.000000 -0.000000  0.440381 )  


     PseudoPot. # 1 for Zn read from file:
     /home/yongsang/Research/PSID_server_room/qe/[00]QE/qepseudo/SSSP_1.3.0_PBE_efficiency/Zn_pbe_v1.uspp.F.UPF
     MD5 check sum: df62231357ef9e81f77b2b3087fa5675
     Pseudo is Ultrasoft, Zval = 20.0
     Generated by new atomic code, or converted to UPF format
     Using radial grid of  943 points,  6 beta functions with: 
                l(1) =   0
                l(2) =   0
                l(3) =   1
                l(4) =   1
                l(5) =   2
                l(6) =   2
     Q(r) pseudized with  8 coefficients,  rinner =    1.100   1.100   1.100
                                                       1.100   1.100

     PseudoPot. # 2 for N  read from file:
     /home/yongsang/Research/PSID_server_room/qe/[00]QE/qepseudo/SSSP_1.3.0_PBE_efficiency/N.pbe-n-radius_5.UPF
     MD5 check sum: 16739722b17309cd8fe442a2ace49922
     Pseudo is Ultrasoft + core correction, Zval =  5.0
     Generated using "atomic" code by A. Dal Corso  v.5.1
     Using radial grid of 1085 points,  4 beta functions with: 
                l(1) =   0
                l(2) =   0
                l(3) =   1
                l(4) =   1
     Q(r) pseudized with 0 coefficients 


     PseudoPot. # 3 for C  read from file:
     /home/yongsang/Research/PSID_server_room/qe/[00]QE/qepseudo/SSSP_1.3.0_PBE_efficiency/C.pbe-n-kjpaw_psl.1.0.0.UPF
     MD5 check sum: 5d2aebdfa2cae82b50a7e79e9516da0f
     Pseudo is Projector augmented-wave + core cor, Zval =  4.0
     Generated using "atomic" code by A. Dal Corso  v.5.1
     Shape of augmentation charge: PSQ
     Using radial grid of 1073 points,  4 beta functions with: 
                l(1) =   0
                l(2) =   0
                l(3) =   1
                l(4) =   1
     Q(r) pseudized with 0 coefficients 


     PseudoPot. # 4 for H  read from file:
     /home/yongsang/Research/PSID_server_room/qe/[00]QE/qepseudo/SSSP_1.3.0_PBE_efficiency/H.pbe-rrkjus_psl.1.0.0.UPF
     MD5 check sum: f52b6d4d1c606e5624b1dc7b2218f220
     Pseudo is Ultrasoft, Zval =  1.0
     Generated using "atomic" code by A. Dal Corso  v.5.1
     Using radial grid of  929 points,  2 beta functions with: 
                l(1) =   0
                l(2) =   0
     Q(r) pseudized with 0 coefficients 


     atomic species   valence    mass     pseudopotential
     Zn               20.00    65.38000     Zn( 1.00)
     N                 5.00    14.00674     N ( 1.00)
     C                 4.00    12.01070     C ( 1.00)
     H                 1.00     1.00794     H ( 1.00)

     No symmetry found


                                    s                        frac. trans.

      isym =  1     identity                                     

 cryst.   s( 1) = (     1          0          0      )
                  (     0          1          0      )
                  (     0          0          1      )

 cart.    s( 1) = (  1.0000000  0.0000000  0.0000000 )
                  (  0.0000000  1.0000000  0.0000000 )
                  (  0.0000000  0.0000000  1.0000000 )


   Cartesian axes

     site n.     atom                  positions (alat units)
         1        Zn     tau(   1) = (   0.0000000   0.1443375   0.1164998  )
         2        Zn     tau(   2) = (   0.5000000   0.1443375   0.1164998  )
         3        Zn     tau(   3) = (  -0.0000499   0.1441562   0.5930126  )
         4        Zn     tau(   4) = (   0.4999768   0.1440598   0.5929798  )
         5        Zn     tau(   5) = (  -0.1250000   0.3608439   0.1164998  )
         6        Zn     tau(   6) = (   0.3750000   0.3608439   0.1164998  )
         7        Zn     tau(   7) = (  -0.1250128   0.3606880   0.5938622  )
         8        Zn     tau(   8) = (   0.3750816   0.3605818   0.5901549  )
         9        Zn     tau(   9) = (  -0.2500000   0.5773502   0.1164998  )
        10        Zn     tau(  10) = (   0.2500000   0.5773502   0.1164998  )
        11        Zn     tau(  11) = (  -0.2500557   0.5773010   0.5930873  )
        12        Zn     tau(  12) = (   0.2498461   0.5777611   0.5690006  )
        13        Zn     tau(  13) = (  -0.3750000   0.7938567   0.1164998  )
        14        Zn     tau(  14) = (   0.1250000   0.7938567   0.1164998  )
        15        Zn     tau(  15) = (  -0.3750956   0.7937092   0.5938035  )
        16        Zn     tau(  16) = (   0.1250071   0.7937671   0.5927657  )
        17        Zn     tau(  17) = (   0.2500000   0.1443375   0.1164998  )
        18        Zn     tau(  18) = (   0.7500000   0.1443375   0.1164998  )
        19        Zn     tau(  19) = (   0.2499675   0.1442893   0.5938620  )
        20        Zn     tau(  20) = (   0.7498989   0.1441620   0.5935777  )
        21        Zn     tau(  21) = (   0.1250000   0.3608439   0.1164998  )
        22        Zn     tau(  22) = (   0.6250000   0.3608439   0.1164998  )
        23        Zn     tau(  23) = (   0.1247759   0.3605782   0.5900454  )
        24        Zn     tau(  24) = (   0.6249342   0.3606883   0.5938306  )
        25        Zn     tau(  25) = (   0.0000000   0.5773502   0.1164998  )
        26        Zn     tau(  26) = (   0.5000000   0.5773502   0.1164998  )
        27        Zn     tau(  27) = (  -0.0001966   0.5771600   0.5914390  )
        28        Zn     tau(  28) = (   0.5000085   0.5771320   0.5913888  )
        29        Zn     tau(  29) = (  -0.1250000   0.7938567   0.1164998  )
        30        Zn     tau(  30) = (   0.3750000   0.7938567   0.1164998  )
        31        Zn     tau(  31) = (  -0.1249754   0.7937326   0.5936214  )
        32        Zn     tau(  32) = (   0.3749417   0.7939463   0.5919976  )
        33        Zn     tau(  33) = (   0.1250863   0.0719987   0.3549329  )
        34        Zn     tau(  34) = (   0.6247109   0.0724305   0.3553400  )
        35        Zn     tau(  35) = (  -0.0003023   0.2881651   0.3553511  )
        36        Zn     tau(  36) = (   0.5002824   0.2881015   0.3550122  )
        37        Zn     tau(  37) = (  -0.1255661   0.5051525   0.3550786  )
        38        Zn     tau(  38) = (   0.3762916   0.5044008   0.3518535  )
        39        Zn     tau(  39) = (  -0.2499926   0.7218306   0.3549053  )
        40        Zn     tau(  40) = (   0.2499333   0.7233675   0.3519747  )
        41        Zn     tau(  41) = (   0.3748060   0.0719867   0.3548153  )
        42        Zn     tau(  42) = (   0.8752270   0.0725633   0.3550895  )
        43        Zn     tau(  43) = (   0.2498815   0.2877851   0.3545638  )
        44        Zn     tau(  44) = (   0.7499983   0.2885973   0.3543649  )
        45        Zn     tau(  45) = (   0.1235184   0.5044439   0.3519742  )
        46        Zn     tau(  46) = (   0.6254711   0.5051794   0.3554334  )
        47        Zn     tau(  47) = (  -0.0006204   0.7220845   0.3549759  )
        48        Zn     tau(  48) = (   0.5006051   0.7220501   0.3549344  )
        49        C      tau(  49) = (   0.3533534   0.6053919   1.2094210  )
        50        C      tau(  50) = (   0.2536770   0.5440368   1.2739583  )
        51        C      tau(  51) = (   0.3537061   0.6106061   1.0759586  )
        52        C      tau(  52) = (   0.1535193   0.4875022   1.2059398  )
        53        C      tau(  53) = (   0.2528989   0.5532374   1.0106343  )
        54        C      tau(  54) = (   0.1523317   0.4917175   1.0724313  )
        55        N      tau(  55) = (   0.2519762   0.5592294   0.8696514  )
        56        H      tau(  56) = (   0.4312722   0.6489776   1.2631997  )
        57        H      tau(  57) = (   0.2543173   0.5398253   1.3781548  )
        58        H      tau(  58) = (   0.3425633   0.5572280   0.8288693  )
        59        H      tau(  59) = (   0.4309347   0.6581191   1.0240146  )
        60        H      tau(  60) = (   0.0763124   0.4396297   1.2570234  )
        61        H      tau(  61) = (   0.2038114   0.4837605   0.8265985  )
        62        H      tau(  62) = (   0.0748468   0.4477119   1.0177891  )
        63        H      tau(  63) = (   0.2092607   0.6408513   0.8320093  )

     --------------------------------------------
     DFT-D3 Dispersion Correction (3-body terms):
     --------------------------------------------
       Reference C6 values for interpolation: 

         atom   Coordination number   C6
         H          0.912             6.05
         H          0.000            15.18
         C          0.000            98.23
         C          0.987            86.49
         C          1.998            58.72
         C          2.999            51.56
         C          3.984            36.41
         N          0.000            50.54
         N          0.994            44.25
         N          2.014            39.35
         N          2.990            31.16
         Zn         0.000           681.04
         Zn         1.942           306.91

       Values used:

         atom   Coordination number  R0_AB[au]  C6      C8
         Zn         6.705            3.053    306.91  23930.67
         Zn         6.707            3.053    306.91  23930.67
         Zn         6.735            3.053    306.91  23930.67
         Zn         6.733            3.053    306.91  23930.67
         Zn         6.707            3.053    306.91  23930.67
         Zn         6.745            3.053    306.91  23930.67
         Zn         6.688            3.053    306.91  23930.67
         Zn         6.773            3.053    306.91  23930.67
         Zn         6.704            3.053    306.91  23930.67
         Zn         6.779            3.053    306.91  23930.67
         Zn         6.730            3.053    306.91  23930.67
         Zn         7.441            3.053    306.91  23930.67
         Zn         6.713            3.053    306.91  23930.67
         Zn         6.739            3.053    306.91  23930.67
         Zn         6.695            3.053    306.91  23930.67
         Zn         6.698            3.053    306.91  23930.67
         Zn         6.719            3.053    306.91  23930.67
         Zn         6.707            3.053    306.91  23930.67
         Zn         6.688            3.053    306.91  23930.67
         Zn         6.700            3.053    306.91  23930.67
         Zn         6.741            3.053    306.91  23930.67
         Zn         6.706            3.053    306.91  23930.67
         Zn         6.787            3.053    306.91  23930.67
         Zn         6.688            3.053    306.91  23930.67
         Zn         6.740            3.053    306.91  23930.67
         Zn         6.737            3.053    306.91  23930.67
         Zn         6.738            3.053    306.91  23930.67
         Zn         6.741            3.053    306.91  23930.67
         Zn         6.714            3.053    306.91  23930.67
         Zn         6.741            3.053    306.91  23930.67
         Zn         6.703            3.053    306.91  23930.67
         Zn         6.720            3.053    306.91  23930.67
         Zn         8.245            3.053    306.91  23930.67
         Zn         8.258            3.053    306.91  23930.67
         Zn         8.285            3.053    306.91  23930.67
         Zn         8.280            3.053    306.91  23930.67
         Zn         8.266            3.053    306.91  23930.67
         Zn         8.532            3.053    306.91  23930.67
         Zn         8.246            3.053    306.91  23930.67
         Zn         8.506            3.053    306.91  23930.67
         Zn         8.247            3.053    306.91  23930.67
         Zn         8.266            3.053    306.91  23930.67
         Zn         8.306            3.053    306.91  23930.67
         Zn         8.230            3.053    306.91  23930.67
         Zn         8.535            3.053    306.91  23930.67
         Zn         8.265            3.053    306.91  23930.67
         Zn         8.267            3.053    306.91  23930.67
         Zn         8.271            3.053    306.91  23930.67
         C          3.136            2.750     50.64   1464.61
         C          3.130            2.750     50.69   1465.92
         C          3.152            2.750     50.52   1461.04
         C          3.136            2.750     50.64   1464.62
         C          3.169            2.750     50.37   1456.86
         C          3.152            2.750     50.52   1461.05
         N          4.083            2.478     31.16    687.49
         H          1.003            2.062      6.18     74.69
         H          1.003            2.062      6.18     74.69
         H          1.012            2.062      6.17     74.60
         H          1.003            2.062      6.18     74.69
         H          1.003            2.062      6.18     74.69
         H          1.012            2.062      6.17     74.59
         H          1.003            2.062      6.18     74.69
         H          1.010            2.062      6.17     74.61

         Molecular C6 ( Ry / a.u.^6 ) =    824367.86


   Crystallographic axes

     site n.     atom                  positions (cryst. coord.)
         1        Zn     tau(   1) = (  0.0833333  0.1666666  0.0513044  )
         2        Zn     tau(   2) = (  0.5833333  0.1666666  0.0513044  )
         3        Zn     tau(   3) = (  0.0831787  0.1664572  0.2611517  )
         4        Zn     tau(   4) = (  0.5831498  0.1663459  0.2611373  )
         5        Zn     tau(   5) = (  0.0833333  0.4166666  0.0513044  )
         6        Zn     tau(   6) = (  0.5833333  0.4166666  0.0513044  )
         7        Zn     tau(   7) = (  0.0832305  0.4164866  0.2615259  )
         8        Zn     tau(   8) = (  0.5832636  0.4163640  0.2598932  )
         9        Zn     tau(   9) = (  0.0833333  0.6666666  0.0513044  )
        10        Zn     tau(  10) = (  0.5833333  0.6666666  0.0513044  )
        11        Zn     tau(  11) = (  0.0832492  0.6666098  0.2611846  )
        12        Zn     tau(  12) = (  0.5834166  0.6671410  0.2505773  )
        13        Zn     tau(  13) = (  0.0833333  0.9166667  0.0513044  )
        14        Zn     tau(  14) = (  0.5833334  0.9166667  0.0513044  )
        15        Zn     tau(  15) = (  0.0831527  0.9164965  0.2615000  )
        16        Zn     tau(  16) = (  0.5832888  0.9165633  0.2610430  )
        17        Zn     tau(  17) = (  0.3333333  0.1666666  0.0513044  )
        18        Zn     tau(  18) = (  0.8333334  0.1666666  0.0513044  )
        19        Zn     tau(  19) = (  0.3332729  0.1666109  0.2615258  )
        20        Zn     tau(  20) = (  0.8331309  0.1664639  0.2614006  )
        21        Zn     tau(  21) = (  0.3333333  0.4166666  0.0513044  )
        22        Zn     tau(  22) = (  0.8333333  0.4166666  0.0513044  )
        23        Zn     tau(  23) = (  0.3329558  0.4163599  0.2598450  )
        24        Zn     tau(  24) = (  0.8331777  0.4164869  0.2615120  )
        25        Zn     tau(  25) = (  0.3333333  0.6666666  0.0513044  )
        26        Zn     tau(  26) = (  0.8333333  0.6666666  0.0513044  )
        27        Zn     tau(  27) = (  0.3330269  0.6664470  0.2604587  )
        28        Zn     tau(  28) = (  0.8332158  0.6664146  0.2604367  )
        29        Zn     tau(  29) = (  0.3333334  0.9166667  0.0513044  )
        30        Zn     tau(  30) = (  0.8333334  0.9166667  0.0513044  )
        31        Zn     tau(  31) = (  0.3332864  0.9165235  0.2614199  )
        32        Zn     tau(  32) = (  0.8333268  0.9167702  0.2607047  )
        33        Zn     tau(  33) = (  0.1666548  0.0831370  0.1563059  )
        34        Zn     tau(  34) = (  0.6665286  0.0836355  0.1564852  )
        35        Zn     tau(  35) = (  0.1660699  0.3327444  0.1564900  )
        36        Zn     tau(  36) = (  0.6666179  0.3326710  0.1563408  )
        37        Zn     tau(  37) = (  0.1660838  0.5832998  0.1563700  )
        38        Zn     tau(  38) = (  0.6675075  0.5824319  0.1549497  )
        39        Zn     tau(  39) = (  0.1667565  0.8334981  0.1562937  )
        40        Zn     tau(  40) = (  0.6675698  0.8352729  0.1550031  )
        41        Zn     tau(  41) = (  0.4163676  0.0831231  0.1562541  )
        42        Zn     tau(  42) = (  0.9171214  0.0837888  0.1563748  )
        43        Zn     tau(  43) = (  0.4160343  0.3323056  0.1561433  )
        44        Zn     tau(  44) = (  0.9166201  0.3332435  0.1560557  )
        45        Zn     tau(  45) = (  0.4147592  0.5824816  0.1550029  )
        46        Zn     tau(  46) = (  0.9171365  0.5833310  0.1565262  )
        47        Zn     tau(  47) = (  0.4162753  0.8337914  0.1563248  )
        48        Zn     tau(  48) = (  0.9174809  0.8337516  0.1563065  )
        49        C      tau(  49) = (  0.7028766  0.6990464  0.5326065  )
        50        C      tau(  50) = (  0.5677767  0.6281995  0.5610276  )
        51        C      tau(  51) = (  0.7062397  0.7050672  0.4738322  )
        52        C      tau(  52) = (  0.4349788  0.5629191  0.5310735  )
        53        C      tau(  53) = (  0.5723107  0.6388236  0.4450646  )
        54        C      tau(  54) = (  0.4362249  0.5677865  0.4722788  )
        55        N      tau(  55) = (  0.5748474  0.6457425  0.3829783  )
        56        H      tau(  56) = (  0.8059596  0.7493748  0.5562897  )
        57        H      tau(  57) = (  0.5659856  0.6233366  0.6069138  )
        58        H      tau(  58) = (  0.6642790  0.6434314  0.3650187  )
        59        H      tau(  59) = (  0.8109000  0.7599305  0.4509570  )
        60        H      tau(  60) = (  0.3301327  0.5076407  0.5535698  )
        61        H      tau(  61) = (  0.4831107  0.5585985  0.3640186  )
        62        H      tau(  62) = (  0.3333334  0.5169732  0.4482154  )
        63        H      tau(  63) = (  0.5792564  0.7399913  0.3664015  )

     number of k points=     5  Marzari-Vanderbilt smearing, width (Ry)=  0.0200
                       cart. coord. in units 2pi/alat
        k(    1) = (   0.0000000   0.0000000   0.0000000), wk =   0.2222222
        k(    2) = (   0.0000000   0.3849002   0.0000000), wk =   0.4444444
        k(    3) = (   0.3333333   0.1924501   0.0000000), wk =   0.4444444
        k(    4) = (   0.3333333   0.5773503   0.0000000), wk =   0.4444444
        k(    5) = (   0.3333333  -0.1924501   0.0000000), wk =   0.4444444

                       cryst. coord.
        k(    1) = (   0.0000000   0.0000000   0.0000000), wk =   0.2222222
        k(    2) = (   0.0000000   0.3333333   0.0000000), wk =   0.4444444
        k(    3) = (   0.3333333   0.0000000   0.0000000), wk =   0.4444444
        k(    4) = (   0.3333333   0.3333333   0.0000000), wk =   0.4444444
        k(    5) = (   0.3333333  -0.3333333   0.0000000), wk =   0.4444444

     Dense  grid:  1201061 G-vectors     FFT dimensions: ( 108, 108, 240)

     Smooth grid:   518755 G-vectors     FFT dimensions: (  80,  80, 192)

     Dynamical RAM for                 wfc:      19.72 MB

     Dynamical RAM for     wfc (w. buffer):     118.31 MB

     Dynamical RAM for           str. fact:       2.44 MB

     Dynamical RAM for           local pot:       0.00 MB

     Dynamical RAM for          nlocal pot:      30.86 MB

     Dynamical RAM for                qrad:       5.37 MB

     Dynamical RAM for          rho,v,vnew:       3.97 MB

     Dynamical RAM for               rhoin:       1.32 MB

     Dynamical RAM for            rho*nmix:       9.77 MB

     Dynamical RAM for           G-vectors:       2.42 MB

     Dynamical RAM for          h,s,v(r/c):       2.61 MB

     Dynamical RAM for          <psi|beta>:       8.54 MB

     Dynamical RAM for                 psi:      39.44 MB

     Dynamical RAM for                hpsi:      39.44 MB

     Dynamical RAM for                spsi:      39.44 MB

     Dynamical RAM for      wfcinit/wfcrot:      53.50 MB

     Dynamical RAM for           addusdens:     142.95 MB

     Dynamical RAM for          addusforce:     200.86 MB

     Estimated static dynamical RAM per process >     171.32 MB

     Estimated max dynamical RAM per process >     381.96 MB

     Estimated total dynamical RAM >      11.19 GB

     Adding charged plate to compensate the charge of the system - add_gatefield
     see PRB 89, 245406 (2014), works only for 2D systems perpendicular to z
                                i.e. 3rd lattice vector is (0,0,c)

        prefactor of the potential in [Ha a.u.]:     0.018578
               position of the gate within cell:     0.90000
         ion-gate + gate-gate contribution to the total energy:   308.175474
                         gate-gate contribution:     0.138946


     Initial potential from superposition of free atoms

     starting charge     996.9929, renormalised to     996.0000

     negative rho (up, down):  2.009E-03 0.000E+00

     Adding external electric field

     Computed dipole along edir(3) : 
        Elec. dipole          4.0932 Ry au,         10.4038 Debye
        Ion. dipole           4.1084 Ry au,         10.4425 Debye
        Dipole               18.4126 Ry au,         46.8002 Debye
        Dipole field          0.0152 Ry au, 

        Potential amp.       -1.2315 Ry
        Total length         40.3866 bohr

     Starting wfcs are  660 randomized atomic wfcs
[ga00:3248676] 29 more processes have sent help message help-mpi-btl-openib.txt / error in device init
[ga00:3248676] Set MCA parameter "orte_base_help_aggregate" to 0 to see all help / error messages
     Checking if some PAW data can be deallocated... 
       PAW data deallocated on   26 nodes for type:  3

     total cpu time spent up to now is       27.2 secs

     Self-consistent Calculation

     iteration #  1     ecut=    40.00 Ry     beta= 0.40
     Davidson diagonalization with overlap

---- Real-time Memory Report at c_bands before calling an iterative solver
           409 MiB given to the printing process from OS
             0 MiB allocation reported by mallinfo(arena+hblkhd)
         34529 MiB available memory on the node where the printing process lives
------------------
     ethr =  1.00E-02,  avg # of iterations =  7.2

     negative rho (up, down):  2.146E-03 0.000E+00

     Adding external electric field

     Computed dipole along edir(3) : 
        Elec. dipole          4.1982 Ry au,         10.6707 Debye
        Ion. dipole           4.1084 Ry au,         10.4425 Debye
        Dipole             -108.4232 Ry au,       -275.5842 Debye
        Dipole field         -0.0898 Ry au, 

        Potential amp.        7.2515 Ry
        Total length         40.3866 bohr


     total cpu time spent up to now is      139.3 secs

     total energy              =  -21895.28853175 Ry
     estimated scf accuracy    <     204.45961743 Ry

     iteration #  2     ecut=    40.00 Ry     beta= 0.40
     Davidson diagonalization with overlap

---- Real-time Memory Report at c_bands before calling an iterative solver
           519 MiB given to the printing process from OS
             0 MiB allocation reported by mallinfo(arena+hblkhd)
         34167 MiB available memory on the node where the printing process lives
------------------
     ethr =  1.00E-02,  avg # of iterations = 13.4

     negative rho (up, down):  4.862E-05 0.000E+00

     Adding external electric field

     Computed dipole along edir(3) : 
        Elec. dipole          4.1093 Ry au,         10.4448 Debye
        Ion. dipole           4.1084 Ry au,         10.4425 Debye
        Dipole               -1.0759 Ry au,         -2.7347 Debye
        Dipole field         -0.0009 Ry au, 

        Potential amp.        0.0720 Ry
        Total length         40.3866 bohr


     total cpu time spent up to now is      445.5 secs

     total energy              =  -21135.77696266 Ry
     estimated scf accuracy    <   68089.27090259 Ry

     iteration #  3     ecut=    40.00 Ry     beta= 0.40
     Davidson diagonalization with overlap

---- Real-time Memory Report at c_bands before calling an iterative solver
           538 MiB given to the printing process from OS
             0 MiB allocation reported by mallinfo(arena+hblkhd)
         34413 MiB available memory on the node where the printing process lives
------------------
     ethr =  1.00E-02,  avg # of iterations =  7.8

     negative rho (up, down):  3.129E-04 0.000E+00

     Adding external electric field

     Computed dipole along edir(3) : 
        Elec. dipole          4.1060 Ry au,         10.4364 Debye
        Ion. dipole           4.1084 Ry au,         10.4425 Debye
        Dipole                2.9055 Ry au,          7.3849 Debye
        Dipole field          0.0024 Ry au, 

        Potential amp.       -0.1943 Ry
        Total length         40.3866 bohr


     total cpu time spent up to now is      642.4 secs

     total energy              =  -21847.31854721 Ry
     estimated scf accuracy    <    5791.93188755 Ry

     iteration #  4     ecut=    40.00 Ry     beta= 0.40
     Davidson diagonalization with overlap

---- Real-time Memory Report at c_bands before calling an iterative solver
           539 MiB given to the printing process from OS
             0 MiB allocation reported by mallinfo(arena+hblkhd)
         34389 MiB available memory on the node where the printing process lives
------------------
     ethr =  1.00E-02,  avg # of iterations = 10.6

     negative rho (up, down):  2.090E-04 0.000E+00

     Adding external electric field

     Computed dipole along edir(3) : 
        Elec. dipole          4.0979 Ry au,         10.4159 Debye
        Ion. dipole           4.1084 Ry au,         10.4425 Debye
        Dipole               12.6358 Ry au,         32.1170 Debye
        Dipole field          0.0105 Ry au, 

        Potential amp.       -0.8451 Ry
        Total length         40.3866 bohr


     total cpu time spent up to now is      790.2 secs

     total energy              =  -22005.93641623 Ry
     estimated scf accuracy    <     235.43896885 Ry

     iteration #  5     ecut=    40.00 Ry     beta= 0.40
     Davidson diagonalization with overlap

---- Real-time Memory Report at c_bands before calling an iterative solver
           540 MiB given to the printing process from OS
             0 MiB allocation reported by mallinfo(arena+hblkhd)
         34357 MiB available memory on the node where the printing process lives
------------------
     ethr =  1.00E-02,  avg # of iterations =  9.2

     negative rho (up, down):  1.011E-04 0.000E+00

     Adding external electric field

     Computed dipole along edir(3) : 
        Elec. dipole          4.0977 Ry au,         10.4153 Debye
        Ion. dipole           4.1084 Ry au,         10.4425 Debye
        Dipole               12.9181 Ry au,         32.8344 Debye
        Dipole field          0.0107 Ry au, 

        Potential amp.       -0.8640 Ry
        Total length         40.3866 bohr


     total cpu time spent up to now is      887.4 secs

     total energy              =  -22018.30682625 Ry
     estimated scf accuracy    <      10.13844943 Ry

     iteration #  6     ecut=    40.00 Ry     beta= 0.40
     Davidson diagonalization with overlap

---- Real-time Memory Report at c_bands before calling an iterative solver
           541 MiB given to the printing process from OS
             0 MiB allocation reported by mallinfo(arena+hblkhd)
         34311 MiB available memory on the node where the printing process lives
------------------
     ethr =  1.02E-03,  avg # of iterations =  7.6

     negative rho (up, down):  9.646E-05 0.000E+00

     Adding external electric field

     Computed dipole along edir(3) : 
        Elec. dipole          4.0975 Ry au,         10.4149 Debye
        Ion. dipole           4.1084 Ry au,         10.4425 Debye
        Dipole               13.1117 Ry au,         33.3267 Debye
        Dipole field          0.0109 Ry au, 

        Potential amp.       -0.8769 Ry
        Total length         40.3866 bohr


     total cpu time spent up to now is      982.8 secs

     total energy              =  -22018.37124269 Ry
     estimated scf accuracy    <       4.20320831 Ry

     iteration #  7     ecut=    40.00 Ry     beta= 0.40
     Davidson diagonalization with overlap

---- Real-time Memory Report at c_bands before calling an iterative solver
           542 MiB given to the printing process from OS
             0 MiB allocation reported by mallinfo(arena+hblkhd)
         34439 MiB available memory on the node where the printing process lives
------------------
     ethr =  4.22E-04,  avg # of iterations =  4.8

     negative rho (up, down):  9.012E-05 0.000E+00

     Adding external electric field

     Computed dipole along edir(3) : 
        Elec. dipole          4.0983 Ry au,         10.4168 Debye
        Ion. dipole           4.1084 Ry au,         10.4425 Debye
        Dipole               12.2331 Ry au,         31.0936 Debye
        Dipole field          0.0101 Ry au, 

        Potential amp.       -0.8182 Ry
        Total length         40.3866 bohr


     total cpu time spent up to now is     1066.0 secs

     total energy              =  -22018.32688159 Ry
     estimated scf accuracy    <      12.62414277 Ry

     iteration #  8     ecut=    40.00 Ry     beta= 0.40
     Davidson diagonalization with overlap

---- Real-time Memory Report at c_bands before calling an iterative solver
           542 MiB given to the printing process from OS
             0 MiB allocation reported by mallinfo(arena+hblkhd)
         34420 MiB available memory on the node where the printing process lives
------------------
     ethr =  4.22E-04,  avg # of iterations =  2.0

     negative rho (up, down):  1.083E-04 0.000E+00

     Adding external electric field

     Computed dipole along edir(3) : 
        Elec. dipole          4.0982 Ry au,         10.4167 Debye
        Ion. dipole           4.1084 Ry au,         10.4425 Debye
        Dipole               12.2741 Ry au,         31.1978 Debye
        Dipole field          0.0102 Ry au, 

        Potential amp.       -0.8209 Ry
        Total length         40.3866 bohr


     total cpu time spent up to now is     1144.9 secs

     total energy              =  -22018.32722408 Ry
     estimated scf accuracy    <       4.06403501 Ry

     iteration #  9     ecut=    40.00 Ry     beta= 0.40
     Davidson diagonalization with overlap

---- Real-time Memory Report at c_bands before calling an iterative solver
           548 MiB given to the printing process from OS
             0 MiB allocation reported by mallinfo(arena+hblkhd)
         34412 MiB available memory on the node where the printing process lives
------------------
     ethr =  4.08E-04,  avg # of iterations =  1.0

     negative rho (up, down):  1.373E-04 0.000E+00

     Adding external electric field

     Computed dipole along edir(3) : 
        Elec. dipole          4.0986 Ry au,         10.4176 Debye
        Ion. dipole           4.1084 Ry au,         10.4425 Debye
        Dipole               11.8143 Ry au,         30.0290 Debye
        Dipole field          0.0098 Ry au, 

        Potential amp.       -0.7902 Ry
        Total length         40.3866 bohr


     total cpu time spent up to now is     1209.7 secs

     total energy              =  -22018.28922634 Ry
     estimated scf accuracy    <       1.99394545 Ry

     iteration # 10     ecut=    40.00 Ry     beta= 0.40
     Davidson diagonalization with overlap

---- Real-time Memory Report at c_bands before calling an iterative solver
           549 MiB given to the printing process from OS
             0 MiB allocation reported by mallinfo(arena+hblkhd)
         34409 MiB available memory on the node where the printing process lives
------------------
     ethr =  2.00E-04,  avg # of iterations =  1.4

     negative rho (up, down):  2.422E-04 0.000E+00

     Adding external electric field

     Computed dipole along edir(3) : 
        Elec. dipole          4.0992 Ry au,         10.4192 Debye
        Ion. dipole           4.1084 Ry au,         10.4425 Debye
        Dipole               11.0604 Ry au,         28.1128 Debye
        Dipole field          0.0092 Ry au, 

        Potential amp.       -0.7397 Ry
        Total length         40.3866 bohr


     total cpu time spent up to now is     1280.2 secs

     total energy              =  -22018.17228702 Ry
     estimated scf accuracy    <       1.70415946 Ry

     iteration # 11     ecut=    40.00 Ry     beta= 0.40
     Davidson diagonalization with overlap

---- Real-time Memory Report at c_bands before calling an iterative solver
           550 MiB given to the printing process from OS
             0 MiB allocation reported by mallinfo(arena+hblkhd)
         34413 MiB available memory on the node where the printing process lives
------------------
     ethr =  1.71E-04,  avg # of iterations =  2.0

     negative rho (up, down):  4.649E-02 0.000E+00

     Adding external electric field

     Computed dipole along edir(3) : 
        Elec. dipole          4.1046 Ry au,         10.4328 Debye
        Ion. dipole           4.1084 Ry au,         10.4425 Debye
        Dipole                4.6194 Ry au,         11.7413 Debye
        Dipole field          0.0038 Ry au, 

        Potential amp.       -0.3090 Ry
        Total length         40.3866 bohr


     total cpu time spent up to now is     1359.2 secs

     total energy              =  -22017.54231528 Ry
     estimated scf accuracy    <       1.44908940 Ry

     iteration # 12     ecut=    40.00 Ry     beta= 0.40
     Davidson diagonalization with overlap

---- Real-time Memory Report at c_bands before calling an iterative solver
           552 MiB given to the printing process from OS
             0 MiB allocation reported by mallinfo(arena+hblkhd)
         34410 MiB available memory on the node where the printing process lives
------------------
     ethr =  1.45E-04,  avg # of iterations = 10.8

     negative rho (up, down):  2.861E-04 0.000E+00

     Adding external electric field

     Computed dipole along edir(3) : 
        Elec. dipole          4.1041 Ry au,         10.4316 Debye
        Ion. dipole           4.1084 Ry au,         10.4425 Debye
        Dipole                5.1791 Ry au,         13.1639 Debye
        Dipole field          0.0043 Ry au, 

        Potential amp.       -0.3464 Ry
        Total length         40.3866 bohr


     total cpu time spent up to now is     1469.1 secs

     total energy              =  -22017.49285500 Ry
     estimated scf accuracy    <       2.60127402 Ry

     iteration # 13     ecut=    40.00 Ry     beta= 0.40
     Davidson diagonalization with overlap

---- Real-time Memory Report at c_bands before calling an iterative solver
           555 MiB given to the printing process from OS
             0 MiB allocation reported by mallinfo(arena+hblkhd)
         34394 MiB available memory on the node where the printing process lives
------------------
     ethr =  1.45E-04,  avg # of iterations =  7.4

     negative rho (up, down):  6.800E-04 0.000E+00

     Adding external electric field

     Computed dipole along edir(3) : 
        Elec. dipole          4.1054 Ry au,         10.4348 Debye
        Ion. dipole           4.1084 Ry au,         10.4425 Debye
        Dipole                3.6632 Ry au,          9.3109 Debye
        Dipole field          0.0030 Ry au, 

        Potential amp.       -0.2450 Ry
        Total length         40.3866 bohr


     total cpu time spent up to now is     1559.7 secs

     total energy              =  -22017.66400031 Ry
     estimated scf accuracy    <       0.26107571 Ry

     iteration # 14     ecut=    40.00 Ry     beta= 0.40
     Davidson diagonalization with overlap

---- Real-time Memory Report at c_bands before calling an iterative solver
           555 MiB given to the printing process from OS
             0 MiB allocation reported by mallinfo(arena+hblkhd)
         34392 MiB available memory on the node where the printing process lives
------------------
     ethr =  2.62E-05,  avg # of iterations = 11.4

     negative rho (up, down):  6.485E-04 0.000E+00

     Adding external electric field

     Computed dipole along edir(3) : 
        Elec. dipole          4.1054 Ry au,         10.4348 Debye
        Ion. dipole           4.1084 Ry au,         10.4425 Debye
        Dipole                3.6416 Ry au,          9.2560 Debye
        Dipole field          0.0030 Ry au, 

        Potential amp.       -0.2436 Ry
        Total length         40.3866 bohr


     total cpu time spent up to now is     1661.2 secs

     total energy              =  -22017.67358015 Ry
     estimated scf accuracy    <       0.05689810 Ry

     iteration # 15     ecut=    40.00 Ry     beta= 0.40
     Davidson diagonalization with overlap

---- Real-time Memory Report at c_bands before calling an iterative solver
           555 MiB given to the printing process from OS
             0 MiB allocation reported by mallinfo(arena+hblkhd)
         34394 MiB available memory on the node where the printing process lives
------------------
     ethr =  5.71E-06,  avg # of iterations =  4.8

     negative rho (up, down):  6.256E-04 0.000E+00

     Adding external electric field

     Computed dipole along edir(3) : 
        Elec. dipole          4.1054 Ry au,         10.4348 Debye
        Ion. dipole           4.1084 Ry au,         10.4425 Debye
        Dipole                3.6528 Ry au,          9.2845 Debye
        Dipole field          0.0030 Ry au, 

        Potential amp.       -0.2443 Ry
        Total length         40.3866 bohr


     total cpu time spent up to now is     1743.9 secs

     total energy              =  -22017.67149855 Ry
     estimated scf accuracy    <       0.04863422 Ry

     iteration # 16     ecut=    40.00 Ry     beta= 0.40
     Davidson diagonalization with overlap

---- Real-time Memory Report at c_bands before calling an iterative solver
           555 MiB given to the printing process from OS
             0 MiB allocation reported by mallinfo(arena+hblkhd)
         34357 MiB available memory on the node where the printing process lives
------------------
     ethr =  4.88E-06,  avg # of iterations =  9.6

     negative rho (up, down):  3.631E-03 0.000E+00

     Adding external electric field

     Computed dipole along edir(3) : 
        Elec. dipole          4.1058 Ry au,         10.4359 Debye
        Ion. dipole           4.1084 Ry au,         10.4425 Debye
        Dipole                3.1344 Ry au,          7.9669 Debye
        Dipole field          0.0026 Ry au, 

        Potential amp.       -0.2096 Ry
        Total length         40.3866 bohr


     total cpu time spent up to now is     1834.6 secs

     total energy              =  -22017.66679472 Ry
     estimated scf accuracy    <       0.04047322 Ry

     iteration # 17     ecut=    40.00 Ry     beta= 0.40
     Davidson diagonalization with overlap

---- Real-time Memory Report at c_bands before calling an iterative solver
           555 MiB given to the printing process from OS
             0 MiB allocation reported by mallinfo(arena+hblkhd)
         34401 MiB available memory on the node where the printing process lives
------------------
     ethr =  4.06E-06,  avg # of iterations = 10.0

     negative rho (up, down):  1.715E-02 0.000E+00

     Adding external electric field

     Computed dipole along edir(3) : 
        Elec. dipole          4.1056 Ry au,         10.4353 Debye
        Ion. dipole           4.1084 Ry au,         10.4425 Debye
        Dipole                3.4206 Ry au,          8.6943 Debye
        Dipole field          0.0028 Ry au, 

        Potential amp.       -0.2288 Ry
        Total length         40.3866 bohr


     total cpu time spent up to now is     1929.8 secs

     total energy              =  -22017.65806178 Ry
     estimated scf accuracy    <       0.03208463 Ry

     iteration # 18     ecut=    40.00 Ry     beta= 0.40
     Davidson diagonalization with overlap

---- Real-time Memory Report at c_bands before calling an iterative solver
           555 MiB given to the printing process from OS
             0 MiB allocation reported by mallinfo(arena+hblkhd)
         34451 MiB available memory on the node where the printing process lives
------------------
     ethr =  3.22E-06,  avg # of iterations = 14.6

     negative rho (up, down):  1.312E-02 0.000E+00

     Adding external electric field

     Computed dipole along edir(3) : 
        Elec. dipole          4.1057 Ry au,         10.4357 Debye
        Ion. dipole           4.1084 Ry au,         10.4425 Debye
        Dipole                3.2236 Ry au,          8.1935 Debye
        Dipole field          0.0027 Ry au, 

        Potential amp.       -0.2156 Ry
        Total length         40.3866 bohr


     total cpu time spent up to now is     2039.5 secs

     total energy              =  -22017.65436249 Ry
     estimated scf accuracy    <       0.01175655 Ry

     iteration # 19     ecut=    40.00 Ry     beta= 0.40
     Davidson diagonalization with overlap

---- Real-time Memory Report at c_bands before calling an iterative solver
           555 MiB given to the printing process from OS
             0 MiB allocation reported by mallinfo(arena+hblkhd)
         34526 MiB available memory on the node where the printing process lives
------------------
     c_bands:  1 eigenvalues not converged
     ethr =  1.18E-06,  avg # of iterations = 14.6

     negative rho (up, down):  1.263E-02 0.000E+00

     Adding external electric field

     Computed dipole along edir(3) : 
        Elec. dipole          4.1058 Ry au,         10.4358 Debye
        Ion. dipole           4.1084 Ry au,         10.4425 Debye
        Dipole                3.1991 Ry au,          8.1314 Debye
        Dipole field          0.0026 Ry au, 

        Potential amp.       -0.2140 Ry
        Total length         40.3866 bohr


     total cpu time spent up to now is     2149.9 secs

     total energy              =  -22017.65478752 Ry
     estimated scf accuracy    <       0.00192193 Ry

     iteration # 20     ecut=    40.00 Ry     beta= 0.40
     Davidson diagonalization with overlap

---- Real-time Memory Report at c_bands before calling an iterative solver
           556 MiB given to the printing process from OS
             0 MiB allocation reported by mallinfo(arena+hblkhd)
         34565 MiB available memory on the node where the printing process lives
------------------
     ethr =  1.93E-07,  avg # of iterations =  8.2

     negative rho (up, down):  8.205E-03 0.000E+00

     Adding external electric field

     Computed dipole along edir(3) : 
        Elec. dipole          4.1057 Ry au,         10.4358 Debye
        Ion. dipole           4.1084 Ry au,         10.4425 Debye
        Dipole                3.2038 Ry au,          8.1432 Debye
        Dipole field          0.0027 Ry au, 

        Potential amp.       -0.2143 Ry
        Total length         40.3866 bohr


     total cpu time spent up to now is     2239.9 secs

     total energy              =  -22017.65488865 Ry
     estimated scf accuracy    <       0.00068337 Ry

     iteration # 21     ecut=    40.00 Ry     beta= 0.40
     Davidson diagonalization with overlap

---- Real-time Memory Report at c_bands before calling an iterative solver
           556 MiB given to the printing process from OS
             0 MiB allocation reported by mallinfo(arena+hblkhd)
         34647 MiB available memory on the node where the printing process lives
------------------
     ethr =  6.86E-08,  avg # of iterations =  5.4

     negative rho (up, down):  6.601E-03 0.000E+00

     Adding external electric field

     Computed dipole along edir(3) : 
        Elec. dipole          4.1057 Ry au,         10.4358 Debye
        Ion. dipole           4.1084 Ry au,         10.4425 Debye
        Dipole                3.2005 Ry au,          8.1349 Debye
        Dipole field          0.0027 Ry au, 

        Potential amp.       -0.2141 Ry
        Total length         40.3866 bohr


     total cpu time spent up to now is     2324.4 secs

     total energy              =  -22017.65491445 Ry
     estimated scf accuracy    <       0.00023686 Ry

     iteration # 22     ecut=    40.00 Ry     beta= 0.40
     Davidson diagonalization with overlap

---- Real-time Memory Report at c_bands before calling an iterative solver
           556 MiB given to the printing process from OS
             0 MiB allocation reported by mallinfo(arena+hblkhd)
         34708 MiB available memory on the node where the printing process lives
------------------
     ethr =  2.38E-08,  avg # of iterations =  2.0

     negative rho (up, down):  5.606E-03 0.000E+00

     Adding external electric field

     Computed dipole along edir(3) : 
        Elec. dipole          4.1057 Ry au,         10.4358 Debye
        Ion. dipole           4.1084 Ry au,         10.4425 Debye
        Dipole                3.2044 Ry au,          8.1446 Debye
        Dipole field          0.0027 Ry au, 

        Potential amp.       -0.2143 Ry
        Total length         40.3866 bohr


     total cpu time spent up to now is     2404.0 secs

     total energy              =  -22017.65494025 Ry
     estimated scf accuracy    <       0.00006847 Ry

     iteration # 23     ecut=    40.00 Ry     beta= 0.40
     Davidson diagonalization with overlap

---- Real-time Memory Report at c_bands before calling an iterative solver
           556 MiB given to the printing process from OS
             0 MiB allocation reported by mallinfo(arena+hblkhd)
         34757 MiB available memory on the node where the printing process lives
------------------
     ethr =  6.87E-09,  avg # of iterations =  2.0

     negative rho (up, down):  4.895E-03 0.000E+00

     Adding external electric field

     Computed dipole along edir(3) : 
        Elec. dipole          4.1057 Ry au,         10.4358 Debye
        Ion. dipole           4.1084 Ry au,         10.4425 Debye
        Dipole                3.2076 Ry au,          8.1528 Debye
        Dipole field          0.0027 Ry au, 

        Potential amp.       -0.2145 Ry
        Total length         40.3866 bohr


     total cpu time spent up to now is     2484.0 secs

     total energy              =  -22017.65494748 Ry
     estimated scf accuracy    <       0.00001447 Ry

     iteration # 24     ecut=    40.00 Ry     beta= 0.40
     Davidson diagonalization with overlap

---- Real-time Memory Report at c_bands before calling an iterative solver
           556 MiB given to the printing process from OS
             0 MiB allocation reported by mallinfo(arena+hblkhd)
         34807 MiB available memory on the node where the printing process lives
------------------
     ethr =  1.45E-09,  avg # of iterations =  2.0

     negative rho (up, down):  4.797E-03 0.000E+00

     Adding external electric field

     Computed dipole along edir(3) : 
        Elec. dipole          4.1057 Ry au,         10.4358 Debye
        Ion. dipole           4.1084 Ry au,         10.4425 Debye
        Dipole                3.2096 Ry au,          8.1581 Debye
        Dipole field          0.0027 Ry au, 

        Potential amp.       -0.2147 Ry
        Total length         40.3866 bohr


     total cpu time spent up to now is     2563.6 secs

     total energy              =  -22017.65494875 Ry
     estimated scf accuracy    <       0.00000306 Ry

     iteration # 25     ecut=    40.00 Ry     beta= 0.40
     Davidson diagonalization with overlap

---- Real-time Memory Report at c_bands before calling an iterative solver
           556 MiB given to the printing process from OS
             0 MiB allocation reported by mallinfo(arena+hblkhd)
         34853 MiB available memory on the node where the printing process lives
------------------
     ethr =  3.08E-10,  avg # of iterations =  2.0

     negative rho (up, down):  4.603E-03 0.000E+00

     Adding external electric field

     Computed dipole along edir(3) : 
        Elec. dipole          4.1057 Ry au,         10.4358 Debye
        Ion. dipole           4.1084 Ry au,         10.4425 Debye
        Dipole                3.2086 Ry au,          8.1554 Debye
        Dipole field          0.0027 Ry au, 

        Potential amp.       -0.2146 Ry
        Total length         40.3866 bohr


     total cpu time spent up to now is     2643.8 secs

     total energy              =  -22017.65494939 Ry
     estimated scf accuracy    <       0.00000123 Ry

     iteration # 26     ecut=    40.00 Ry     beta= 0.40
     Davidson diagonalization with overlap

---- Real-time Memory Report at c_bands before calling an iterative solver
           556 MiB given to the printing process from OS
             0 MiB allocation reported by mallinfo(arena+hblkhd)
         34903 MiB available memory on the node where the printing process lives
------------------
     ethr =  1.23E-10,  avg # of iterations =  2.0

     negative rho (up, down):  4.534E-03 0.000E+00

     Adding external electric field

     Computed dipole along edir(3) : 
        Elec. dipole          4.1057 Ry au,         10.4357 Debye
        Ion. dipole           4.1084 Ry au,         10.4425 Debye
        Dipole                3.2205 Ry au,          8.1858 Debye
        Dipole field          0.0027 Ry au, 

        Potential amp.       -0.2154 Ry
        Total length         40.3866 bohr


     total cpu time spent up to now is     2723.8 secs

     End of self-consistent calculation

          k = 0.0000 0.0000 0.0000 ( 64855 PWs)   bands (ev):

  -125.3789-125.3778-125.3760-125.3575-125.3534-125.3511-125.3509-125.3502
  -125.3499-125.3494-125.3491-125.3478-125.3477-125.3474-125.3464-125.3460
  -125.3437-125.2371-125.2325-125.2293-125.2257-125.2222-125.2208-125.2006
  -125.1996-125.1991-125.1975-125.1965-125.1963-125.1961-125.1952-125.1948
  -125.1042-125.0975-125.0970-125.0969-125.0960-125.0956-125.0953-125.0948
  -125.0945-125.0941-125.0938-125.0933-125.0933-125.0930-125.0927-125.0926
   -79.5399 -79.5356 -79.5348 -79.5273 -79.5265 -79.5262 -79.5257 -79.5237
   -79.5222 -79.5164 -79.5155 -79.5154 -79.5148 -79.5111 -79.5108 -79.5089
   -79.5061 -79.5057 -79.5051 -79.5023 -79.5007 -79.5005 -79.5005 -79.5001
   -79.4994 -79.4993 -79.4987 -79.4983 -79.4969 -79.4966 -79.4960 -79.4956
   -79.4952 -79.4950 -79.4946 -79.4944 -79.4941 -79.4933 -79.4931 -79.4930
   -79.4921 -79.4917 -79.4914 -79.4912 -79.4899 -79.4896 -79.4876 -79.4871
   -79.4870 -79.4832 -79.4829 -79.3920 -79.3894 -79.3882 -79.3864 -79.3844
   -79.3842 -79.3813 -79.3803 -79.3785 -79.3777 -79.3776 -79.3756 -79.3755
   -79.3721 -79.3713 -79.3682 -79.3664 -79.3618 -79.3591 -79.3587 -79.3559
   -79.3548 -79.3543 -79.3528 -79.3521 -79.3518 -79.3516 -79.3512 -79.3505
   -79.3499 -79.3498 -79.3491 -79.3466 -79.3464 -79.3459 -79.3454 -79.3446
   -79.3389 -79.3383 -79.3381 -79.3350 -79.3348 -79.3340 -79.3306 -79.3303
   -79.2648 -79.2647 -79.2624 -79.2585 -79.2579 -79.2576 -79.2564 -79.2563
   -79.2559 -79.2553 -79.2522 -79.2514 -79.2513 -79.2504 -79.2502 -79.2499
   -79.2496 -79.2490 -79.2486 -79.2485 -79.2481 -79.2480 -79.2476 -79.2474
   -79.2472 -79.2469 -79.2468 -79.2454 -79.2450 -79.2449 -79.2441 -79.2435
   -79.2433 -79.2431 -79.2430 -79.2424 -79.2421 -79.2366 -79.2363 -79.2361
   -79.2326 -79.2323 -79.2318 -79.2309 -79.2308 -79.2306 -79.2267 -79.2266
   -21.1835 -17.3807 -14.7696 -14.4456 -11.4451 -11.3263 -10.1776  -9.6145
    -9.5238  -8.8298  -7.7897  -7.6665  -7.3719  -7.3383  -7.2977  -7.2961
    -7.2865  -7.2852  -7.2760  -7.1956  -7.1913  -7.1913  -7.0358  -7.0356
    -7.0248  -6.9776  -6.9426  -6.9422  -6.9416  -6.9033  -6.8881  -6.8877
    -6.8813  -6.8794  -6.8757  -6.8210  -6.8113  -6.8108  -6.8002  -6.7981
    -6.7979  -6.7970  -6.7969  -6.7920  -6.7555  -6.7551  -6.7502  -6.7374
    -6.7351  -6.7342  -6.7164  -6.7106  -6.7104  -6.7077  -6.7061  -6.7056
    -6.6511  -6.6504  -6.6163  -6.6147  -6.6127  -6.5955  -6.5950  -6.5945
    -6.5943  -6.5791  -6.5645  -6.5639  -6.5560  -6.5524  -6.5514  -6.5465
    -6.4975  -6.4971  -6.4922  -6.4893  -6.4891  -6.4820  -6.4777  -6.4776
    -6.4726  -6.4721  -6.4689  -6.4641  -6.4478  -6.4241  -6.4198  -6.4195
    -6.4147  -6.4143  -6.4142  -6.4109  -6.4109  -6.4023  -6.3993  -6.3975
    -6.3936  -6.3916  -6.3835  -6.3829  -6.3783  -6.3772  -6.3763  -6.3725
    -6.3711  -6.3689  -6.3669  -6.3665  -6.3609  -6.2929  -6.2925  -6.2864
    -6.2848  -6.2802  -6.2800  -6.2615  -6.2613  -6.2096  -6.2087  -6.2029
    -6.1714  -6.1700  -6.1662  -6.1652  -6.1623  -6.1603  -6.1597  -6.1594
    -6.1525  -6.1446  -6.1446  -6.1321  -6.1292  -6.1190  -6.1184  -6.1175
    -6.1129  -6.1021  -6.1014  -6.1006  -6.0918  -6.0904  -6.0810  -6.0731
    -6.0727  -6.0654  -6.0372  -6.0367  -6.0343  -6.0336  -6.0316  -6.0305
    -6.0304  -6.0283  -6.0280  -6.0264  -6.0256  -6.0243  -6.0225  -6.0216
    -6.0215  -6.0198  -6.0197  -6.0196  -6.0150  -6.0136  -6.0131  -6.0120
    -6.0120  -6.0109  -6.0080  -6.0078  -6.0068  -6.0062  -6.0056  -6.0037
    -5.9925  -5.9872  -5.9869  -5.9840  -5.8973  -5.8973  -5.8902  -5.8900
    -5.8879  -5.8855  -5.8845  -5.8824  -5.8602  -5.8592  -5.8558  -5.8555
    -5.8549  -5.8539  -5.8505  -5.8492  -5.8490  -5.8463  -5.8458  -5.8427
    -5.8410  -5.8361  -5.8359  -5.8269  -5.8260  -5.8238  -5.8154  -5.8151
    -5.8126  -5.7836  -5.7834  -5.7796  -5.7727  -5.7725  -5.7709  -5.7665
    -5.7581  -5.7578  -5.7342  -5.7340  -5.7328  -5.7319  -5.7318  -5.7315
    -5.7204  -5.7202  -5.7132  -5.7129  -5.7128  -5.6671  -5.6651  -5.6649
    -5.6619  -5.6616  -5.6610  -5.6600  -5.6599  -5.6598  -5.6526  -5.6499
    -5.6497  -5.6495  -5.6445  -5.6444  -5.6118  -5.6117  -5.5732  -5.5708
    -5.5708  -5.5609  -5.5600  -5.5598  -5.5596  -5.5587  -5.5586  -5.4314
    -5.4313  -5.4214  -5.3104  -5.3103  -5.3098  -5.2587  -4.6962  -4.6896
    -4.6875  -4.6692  -4.6687  -4.6631  -4.2586  -4.2506  -3.8033  -2.5626
    -2.4268  -2.4091  -2.4039  -2.4013  -2.3998  -2.3979  -2.3494  -2.3455
    -2.3441  -2.3312  -2.3287  -2.3266  -2.2942  -1.0875  -1.0653  -1.0644
    -1.0157  -0.9273  -0.9259  -0.9138  -0.9126  -0.9068  -0.9043  -0.3324
    -0.3317  -0.3312  -0.0044  -0.0042   0.0051   1.1339   1.1362   1.1534
     1.1559   1.1670   1.1725   1.1874   1.2046   1.2068   1.2745   1.2776
     1.3002   1.9999   2.0018   2.0049   2.4668   2.6129   2.6577   2.9120
     2.9200   2.9330   3.7047   3.7201   3.7403   3.8360   4.0197   4.0781
     4.1579   4.3339   4.3864   4.4718   4.9225   4.9434   5.0145   5.0440
     5.0511   5.0600   5.1228   5.1962   5.1994   5.2152   5.2288   5.2307
     5.2335   5.3267   5.3634   5.3673   5.3826   5.3850   5.3860   5.3903
     5.3911   5.6120   5.6391   5.8893   5.8942   6.0034   6.0136   6.2948
     6.4159   6.5342   6.5542   6.6051   6.7001   6.7036   6.7276   6.7316
     6.7415   6.7427   6.7933   6.7955   6.8684   6.8743   6.8884   6.9298
     6.9650   7.0491   7.1523   7.1974   7.3099   7.3359   7.4903   7.5697
     7.6491   7.7324   7.7383   7.9003   7.9062   7.9259   7.9568   8.0048
     8.0772   8.2091   8.2550   8.2963   8.3366   8.4442   8.4965   8.5440
     8.6595   8.7621   8.7933   8.8687   8.8989   8.9183

     occupation numbers 
     1.0000   1.0000   1.0000   1.0000   1.0000   1.0000   1.0000   1.0000
     1.0000   1.0000   1.0000   1.0000   1.0000   1.0000   1.0000   1.0000
     1.0000   1.0000   1.0000   1.0000   1.0000   1.0000   1.0000   1.0000
     1.0000   1.0000   1.0000   1.0000   1.0000   1.0000   1.0000   1.0000
     1.0000   1.0000   1.0000   1.0000   1.0000   1.0000   1.0000   1.0000
     1.0000   1.0000   1.0000   1.0000   1.0000   1.0000   1.0000   1.0000
     1.0000   1.0000   1.0000   1.0000   1.0000   1.0000   1.0000   1.0000
     1.0000   1.0000   1.0000   1.0000   1.0000   1.0000   1.0000   1.0000
     1.0000   1.0000   1.0000   1.0000   1.0000   1.0000   1.0000   1.0000
     1.0000   1.0000   1.0000   1.0000   1.0000   1.0000   1.0000   1.0000
     1.0000   1.0000   1.0000   1.0000   1.0000   1.0000   1.0000   1.0000
     1.0000   1.0000   1.0000   1.0000   1.0000   1.0000   1.0000   1.0000
     1.0000   1.0000   1.0000   1.0000   1.0000   1.0000   1.0000   1.0000
     1.0000   1.0000   1.0000   1.0000   1.0000   1.0000   1.0000   1.0000
     1.0000   1.0000   1.0000   1.0000   1.0000   1.0000   1.0000   1.0000
     1.0000   1.0000   1.0000   1.0000   1.0000   1.0000   1.0000   1.0000
     1.0000   1.0000   1.0000   1.0000   1.0000   1.0000   1.0000   1.0000
     1.0000   1.0000   1.0000   1.0000   1.0000   1.0000   1.0000   1.0000
     1.0000   1.0000   1.0000   1.0000   1.0000   1.0000   1.0000   1.0000
     1.0000   1.0000   1.0000   1.0000   1.0000   1.0000   1.0000   1.0000
     1.0000   1.0000   1.0000   1.0000   1.0000   1.0000   1.0000   1.0000
     1.0000   1.0000   1.0000   1.0000   1.0000   1.0000   1.0000   1.0000
     1.0000   1.0000   1.0000   1.0000   1.0000   1.0000   1.0000   1.0000
     1.0000   1.0000   1.0000   1.0000   1.0000   1.0000   1.0000   1.0000
     1.0000   1.0000   1.0000   1.0000   1.0000   1.0000   1.0000   1.0000
     1.0000   1.0000   1.0000   1.0000   1.0000   1.0000   1.0000   1.0000
     1.0000   1.0000   1.0000   1.0000   1.0000   1.0000   1.0000   1.0000
     1.0000   1.0000   1.0000   1.0000   1.0000   1.0000   1.0000   1.0000
     1.0000   1.0000   1.0000   1.0000   1.0000   1.0000   1.0000   1.0000
     1.0000   1.0000   1.0000   1.0000   1.0000   1.0000   1.0000   1.0000
     1.0000   1.0000   1.0000   1.0000   1.0000   1.0000   1.0000   1.0000
     1.0000   1.0000   1.0000   1.0000   1.0000   1.0000   1.0000   1.0000
     1.0000   1.0000   1.0000   1.0000   1.0000   1.0000   1.0000   1.0000
     1.0000   1.0000   1.0000   1.0000   1.0000   1.0000   1.0000   1.0000
     1.0000   1.0000   1.0000   1.0000   1.0000   1.0000   1.0000   1.0000
     1.0000   1.0000   1.0000   1.0000   1.0000   1.0000   1.0000   1.0000
     1.0000   1.0000   1.0000   1.0000   1.0000   1.0000   1.0000   1.0000
     1.0000   1.0000   1.0000   1.0000   1.0000   1.0000   1.0000   1.0000
     1.0000   1.0000   1.0000   1.0000   1.0000   1.0000   1.0000   1.0000
     1.0000   1.0000   1.0000   1.0000   1.0000   1.0000   1.0000   1.0000
     1.0000   1.0000   1.0000   1.0000   1.0000   1.0000   1.0000   1.0000
     1.0000   1.0000   1.0000   1.0000   1.0000   1.0000   1.0000   1.0000
     1.0000   1.0000   1.0000   1.0000   1.0000   1.0000   1.0000   1.0000
     1.0000   1.0000   1.0000   1.0000   1.0000   1.0000   1.0000   1.0000
     1.0000   1.0000   1.0000   1.0000   1.0000   1.0000   1.0000   1.0000
     1.0000   1.0000   1.0000   1.0000   1.0000   1.0000   1.0000   1.0000
     1.0000   1.0000   1.0000   1.0000   1.0000   1.0000   1.0000   1.0000
     1.0000   1.0000   1.0000   1.0000   1.0000   1.0000   1.0000   1.0000
     1.0000   1.0000   1.0000   1.0000   1.0000   1.0000   1.0000   1.0000
     1.0000   1.0000   1.0000   1.0000   1.0000   1.0000   1.0000   1.0000
     1.0000   1.0000   1.0000   1.0000   1.0000   1.0000   1.0000   1.0000
     1.0000   1.0000   1.0000   1.0000   1.0000   1.0000   1.0000   1.0000
     1.0000   1.0000   1.0000   1.0000   1.0000   1.0000   1.0000   1.0000
     1.0000   1.0000   1.0000   1.0000   1.0000   1.0000   1.0000   1.0000
     1.0000   1.0000   1.0000   1.0000   1.0000   1.0000   1.0000   1.0000
     1.0000   1.0000   1.0000   1.0000   1.0000   1.0000   1.0000   1.0000
     1.0000   1.0000   1.0000   1.0000   1.0000   1.0000   1.0000   1.0000
     1.0000   1.0000   1.0000   1.0000   1.0000   1.0000   1.0000   1.0000
     1.0000   1.0000   1.0000   1.0000   1.0000   1.0000   1.0000   1.0000
     1.0000   1.0000   1.0000   1.0000   1.0000   1.0000   1.0000   1.0000
     1.0000   1.0000   1.0000   1.0000   1.0000   1.0000   1.0000   1.0000
     1.0000   1.0000   1.0000   1.0000   1.0000   0.5626   0.5563   0.5092
     0.5024   0.4725   0.4580   0.4192   0.3761   0.3706   0.2253   0.2196
     0.1811   0.0000   0.0000   0.0000   0.0000   0.0000   0.0000   0.0000
     0.0000   0.0000   0.0000   0.0000   0.0000   0.0000   0.0000   0.0000
     0.0000   0.0000   0.0000   0.0000   0.0000   0.0000   0.0000   0.0000
     0.0000   0.0000   0.0000   0.0000   0.0000   0.0000   0.0000   0.0000
     0.0000   0.0000   0.0000   0.0000   0.0000   0.0000   0.0000   0.0000
     0.0000   0.0000   0.0000   0.0000   0.0000   0.0000   0.0000   0.0000
     0.0000   0.0000   0.0000   0.0000   0.0000   0.0000   0.0000   0.0000
     0.0000   0.0000   0.0000   0.0000   0.0000   0.0000   0.0000   0.0000
     0.0000   0.0000   0.0000   0.0000   0.0000   0.0000   0.0000   0.0000
     0.0000   0.0000   0.0000   0.0000   0.0000   0.0000   0.0000   0.0000
     0.0000   0.0000   0.0000   0.0000   0.0000   0.0000   0.0000   0.0000
     0.0000   0.0000   0.0000   0.0000   0.0000   0.0000

          k = 0.0000 0.3849 0.0000 ( 64840 PWs)   bands (ev):

  -125.3789-125.3778-125.3760-125.3575-125.3534-125.3511-125.3509-125.3504
  -125.3497-125.3493-125.3491-125.3479-125.3476-125.3474-125.3464-125.3460
  -125.3437-125.2371-125.2325-125.2293-125.2257-125.2222-125.2208-125.2006
  -125.1996-125.1992-125.1975-125.1966-125.1963-125.1961-125.1952-125.1948
  -125.1042-125.0975-125.0971-125.0969-125.0959-125.0956-125.0953-125.0947
  -125.0945-125.0940-125.0938-125.0935-125.0933-125.0930-125.0927-125.0925
   -79.5397 -79.5353 -79.5345 -79.5273 -79.5268 -79.5264 -79.5262 -79.5238
   -79.5223 -79.5161 -79.5154 -79.5151 -79.5134 -79.5112 -79.5109 -79.5092
   -79.5086 -79.5069 -79.5059 -79.5036 -79.5020 -79.5007 -79.5006 -79.5005
   -79.4993 -79.4976 -79.4968 -79.4966 -79.4962 -79.4960 -79.4955 -79.4953
   -79.4951 -79.4949 -79.4947 -79.4935 -79.4934 -79.4931 -79.4930 -79.4929
   -79.4921 -79.4919 -79.4917 -79.4914 -79.4896 -79.4893 -79.4884 -79.4874
   -79.4866 -79.4845 -79.4835 -79.3920 -79.3892 -79.3882 -79.3864 -79.3844
   -79.3842 -79.3813 -79.3801 -79.3783 -79.3777 -79.3776 -79.3756 -79.3752
   -79.3728 -79.3716 -79.3686 -79.3671 -79.3627 -79.3576 -79.3572 -79.3558
   -79.3548 -79.3543 -79.3527 -79.3526 -79.3518 -79.3516 -79.3512 -79.3511
   -79.3505 -79.3499 -79.3492 -79.3490 -79.3479 -79.3451 -79.3445 -79.3410
   -79.3383 -79.3379 -79.3375 -79.3354 -79.3347 -79.3345 -79.3317 -79.3307
   -79.2639 -79.2632 -79.2608 -79.2590 -79.2585 -79.2584 -79.2572 -79.2566
   -79.2542 -79.2539 -79.2536 -79.2520 -79.2516 -79.2514 -79.2504 -79.2503
   -79.2502 -79.2499 -79.2498 -79.2493 -79.2491 -79.2487 -79.2485 -79.2482
   -79.2481 -79.2476 -79.2474 -79.2473 -79.2471 -79.2466 -79.2426 -79.2424
   -79.2410 -79.2407 -79.2388 -79.2384 -79.2374 -79.2369 -79.2360 -79.2356
   -79.2344 -79.2339 -79.2330 -79.2312 -79.2308 -79.2291 -79.2288 -79.2272
   -21.1835 -17.3807 -14.7695 -14.4456 -11.4451 -11.3263 -10.1776  -9.6145
    -9.5236  -8.6199  -8.0230  -7.7820  -7.5088  -7.4937  -7.4891  -7.2603
    -7.1652  -7.1209  -7.1173  -7.1133  -7.0882  -7.0344  -7.0306  -7.0027
    -6.9934  -6.9784  -6.9665  -6.9613  -6.9218  -6.9171  -6.9103  -6.9094
    -6.8853  -6.8847  -6.8645  -6.8558  -6.8401  -6.8280  -6.8265  -6.8197
    -6.8195  -6.8102  -6.8080  -6.7788  -6.7777  -6.7760  -6.7625  -6.7620
    -6.7510  -6.7482  -6.7473  -6.7468  -6.7325  -6.7312  -6.7214  -6.7162
    -6.7026  -6.6980  -6.6836  -6.6771  -6.6755  -6.6235  -6.6116  -6.6049
    -6.5989  -6.5946  -6.5933  -6.5875  -6.5816  -6.5786  -6.5542  -6.5531
    -6.5480  -6.5427  -6.5372  -6.5364  -6.5215  -6.5189  -6.5086  -6.5027
    -6.5004  -6.4974  -6.4967  -6.4822  -6.4773  -6.4734  -6.4722  -6.4700
    -6.4497  -6.4438  -6.4395  -6.4341  -6.4146  -6.4063  -6.3982  -6.3873
    -6.3825  -6.3789  -6.3711  -6.3702  -6.3602  -6.3600  -6.3582  -6.3497
    -6.3472  -6.3461  -6.3371  -6.3343  -6.3293  -6.3277  -6.3128  -6.3100
    -6.2989  -6.2810  -6.2587  -6.2584  -6.2394  -6.2381  -6.2373  -6.2293
    -6.2225  -6.2159  -6.2086  -6.1950  -6.1920  -6.1880  -6.1834  -6.1701
    -6.1677  -6.1588  -6.1543  -6.1489  -6.1474  -6.1337  -6.1310  -6.1260
    -6.1214  -6.1150  -6.1144  -6.0972  -6.0950  -6.0900  -6.0880  -6.0866
    -6.0835  -6.0813  -6.0785  -6.0715  -6.0602  -6.0445  -6.0435  -6.0410
    -6.0408  -6.0354  -6.0338  -6.0271  -6.0201  -6.0180  -6.0108  -6.0099
    -6.0032  -6.0027  -5.9840  -5.9810  -5.9737  -5.9700  -5.9648  -5.9593
    -5.9572  -5.9555  -5.9532  -5.9495  -5.9279  -5.9277  -5.9236  -5.9215
    -5.9167  -5.9124  -5.9046  -5.9036  -5.8997  -5.8885  -5.8883  -5.8829
    -5.8756  -5.8663  -5.8631  -5.8609  -5.8590  -5.8475  -5.8422  -5.8391
    -5.8333  -5.8325  -5.8307  -5.8281  -5.8273  -5.8166  -5.8153  -5.8135
    -5.8119  -5.8115  -5.8020  -5.7941  -5.7933  -5.7918  -5.7913  -5.7780
    -5.7773  -5.7751  -5.7745  -5.7703  -5.7572  -5.7570  -5.7544  -5.7496
    -5.7450  -5.7409  -5.7406  -5.7289  -5.7256  -5.7167  -5.7158  -5.7083
    -5.7077  -5.7013  -5.7008  -5.6964  -5.6961  -5.6870  -5.6656  -5.6650
    -5.6503  -5.6465  -5.6428  -5.6425  -5.6392  -5.6381  -5.6373  -5.6367
    -5.6363  -5.6318  -5.6293  -5.6281  -5.6271  -5.6185  -5.6139  -5.5612
    -5.5610  -5.5398  -5.5390  -5.5281  -5.5207  -5.5157  -5.4857  -5.4057
    -5.4052  -5.3697  -5.3527  -5.2592  -5.2048  -5.2007  -4.9594  -4.9582
    -4.8202  -4.2621  -4.2529  -4.0164  -4.0073  -3.9172  -3.9168  -3.6583
    -3.3722  -3.2125  -2.9790  -2.7321  -2.7290  -2.6409  -2.6383  -2.5618
    -2.3242  -2.1882  -2.1869  -1.7003  -1.6960  -1.6756  -1.6676  -1.5563
    -1.1421  -0.7788  -0.7760  -0.7380  -0.4870  -0.4780  -0.3681  -0.3632
    -0.2505  -0.2372   0.0406   0.3894   0.6065   0.6169   0.7659   0.7807
     1.1577   1.1660   1.1835   1.2018   2.0952   2.1279   2.1458   2.1553
     2.4459   2.4686   2.5772   2.6419   2.6659   2.7260   2.8042   2.8195
     2.8403   3.2070   3.2142   3.3056   3.4071   3.4452   3.5031   3.5109
     3.8103   3.8664   3.8932   3.9201   3.9309   4.0165   4.4432   4.4523
     4.5805   4.6537   4.7382   4.7727   4.8267   4.8335   4.8544   4.9688
     5.1180   5.2050   5.2830   5.3846   5.4292   5.5281   5.6067   5.7090
     5.8122   5.8701   5.9332   5.9636   5.9907   6.0127   6.0618   6.1197
     6.2416   6.3057   6.3124   6.3870   6.4730   6.5046   6.5342   6.5911
     6.6243   6.7317   6.7582   6.8816   6.9380   7.0451   7.0802   7.1917
     7.2551   7.3109   7.3973   7.4526   7.4666   7.5449   7.6280   7.6519
     7.6638   7.7206   7.8392   7.8452   7.8880   7.9431   8.0057   8.0763
     8.2180   8.2539   8.3458   8.3691   8.4036   8.4330   8.5175   8.5372
     8.5571   8.5701   8.6099   8.6702   8.7324   8.8010

     occupation numbers 
     1.0000   1.0000   1.0000   1.0000   1.0000   1.0000   1.0000   1.0000
     1.0000   1.0000   1.0000   1.0000   1.0000   1.0000   1.0000   1.0000
     1.0000   1.0000   1.0000   1.0000   1.0000   1.0000   1.0000   1.0000
     1.0000   1.0000   1.0000   1.0000   1.0000   1.0000   1.0000   1.0000
     1.0000   1.0000   1.0000   1.0000   1.0000   1.0000   1.0000   1.0000
     1.0000   1.0000   1.0000   1.0000   1.0000   1.0000   1.0000   1.0000
     1.0000   1.0000   1.0000   1.0000   1.0000   1.0000   1.0000   1.0000
     1.0000   1.0000   1.0000   1.0000   1.0000   1.0000   1.0000   1.0000
     1.0000   1.0000   1.0000   1.0000   1.0000   1.0000   1.0000   1.0000
     1.0000   1.0000   1.0000   1.0000   1.0000   1.0000   1.0000   1.0000
     1.0000   1.0000   1.0000   1.0000   1.0000   1.0000   1.0000   1.0000
     1.0000   1.0000   1.0000   1.0000   1.0000   1.0000   1.0000   1.0000
     1.0000   1.0000   1.0000   1.0000   1.0000   1.0000   1.0000   1.0000
     1.0000   1.0000   1.0000   1.0000   1.0000   1.0000   1.0000   1.0000
     1.0000   1.0000   1.0000   1.0000   1.0000   1.0000   1.0000   1.0000
     1.0000   1.0000   1.0000   1.0000   1.0000   1.0000   1.0000   1.0000
     1.0000   1.0000   1.0000   1.0000   1.0000   1.0000   1.0000   1.0000
     1.0000   1.0000   1.0000   1.0000   1.0000   1.0000   1.0000   1.0000
     1.0000   1.0000   1.0000   1.0000   1.0000   1.0000   1.0000   1.0000
     1.0000   1.0000   1.0000   1.0000   1.0000   1.0000   1.0000   1.0000
     1.0000   1.0000   1.0000   1.0000   1.0000   1.0000   1.0000   1.0000
     1.0000   1.0000   1.0000   1.0000   1.0000   1.0000   1.0000   1.0000
     1.0000   1.0000   1.0000   1.0000   1.0000   1.0000   1.0000   1.0000
     1.0000   1.0000   1.0000   1.0000   1.0000   1.0000   1.0000   1.0000
     1.0000   1.0000   1.0000   1.0000   1.0000   1.0000   1.0000   1.0000
     1.0000   1.0000   1.0000   1.0000   1.0000   1.0000   1.0000   1.0000
     1.0000   1.0000   1.0000   1.0000   1.0000   1.0000   1.0000   1.0000
     1.0000   1.0000   1.0000   1.0000   1.0000   1.0000   1.0000   1.0000
     1.0000   1.0000   1.0000   1.0000   1.0000   1.0000   1.0000   1.0000
     1.0000   1.0000   1.0000   1.0000   1.0000   1.0000   1.0000   1.0000
     1.0000   1.0000   1.0000   1.0000   1.0000   1.0000   1.0000   1.0000
     1.0000   1.0000   1.0000   1.0000   1.0000   1.0000   1.0000   1.0000
     1.0000   1.0000   1.0000   1.0000   1.0000   1.0000   1.0000   1.0000
     1.0000   1.0000   1.0000   1.0000   1.0000   1.0000   1.0000   1.0000
     1.0000   1.0000   1.0000   1.0000   1.0000   1.0000   1.0000   1.0000
     1.0000   1.0000   1.0000   1.0000   1.0000   1.0000   1.0000   1.0000
     1.0000   1.0000   1.0000   1.0000   1.0000   1.0000   1.0000   1.0000
     1.0000   1.0000   1.0000   1.0000   1.0000   1.0000   1.0000   1.0000
     1.0000   1.0000   1.0000   1.0000   1.0000   1.0000   1.0000   1.0000
     1.0000   1.0000   1.0000   1.0000   1.0000   1.0000   1.0000   1.0000
     1.0000   1.0000   1.0000   1.0000   1.0000   1.0000   1.0000   1.0000
     1.0000   1.0000   1.0000   1.0000   1.0000   1.0000   1.0000   1.0000
     1.0000   1.0000   1.0000   1.0000   1.0000   1.0000   1.0000   1.0000
     1.0000   1.0000   1.0000   1.0000   1.0000   1.0000   1.0000   1.0000
     1.0000   1.0000   1.0000   1.0000   1.0000   1.0000   1.0000   1.0000
     1.0000   1.0000   1.0000   1.0000   1.0000   1.0000   1.0000   1.0000
     1.0000   1.0000   1.0000   1.0000   1.0000   1.0000   1.0000   1.0000
     1.0000   1.0000   1.0000   1.0000   1.0000   1.0000   1.0000   1.0000
     1.0000   1.0000   1.0000   1.0000   1.0000   1.0000   1.0000   1.0000
     1.0000   1.0000   1.0000   1.0000   1.0000   1.0000   1.0000   1.0000
     1.0000   1.0000   1.0000   1.0000   1.0000   1.0000   1.0000   1.0000
     1.0000   1.0000   1.0000   1.0000   1.0000   1.0000   1.0000   1.0000
     1.0000   1.0000   1.0000   1.0000   1.0000   1.0000   1.0000   1.0000
     1.0000   1.0000   1.0000   1.0000   1.0000   1.0000   1.0000   1.0000
     1.0000   1.0000   1.0000   1.0000   1.0000   1.0000   1.0000   1.0000
     1.0000   1.0000   1.0000   1.0000   1.0000   1.0000   1.0000   1.0000
     1.0000   1.0000   1.0000   1.0000   1.0000   1.0000   1.0000   1.0000
     1.0000   1.0000   1.0000   1.0000   1.0000   1.0000   1.0000   1.0000
     1.0000   1.0000   1.0000   1.0000   1.0000   1.0000   1.0000   1.0000
     1.0000   1.0000   1.0000   1.0000   1.0000   1.0000   1.0000   1.0000
     1.0000   1.0000   1.0000   1.0000   1.0000   1.0000   1.0000   1.0000
     1.0000   1.0000   1.0000   1.0018   1.0282   1.0311   1.0779   1.0808
     0.4974   0.4752   0.4293   0.3829   0.0000   0.0000   0.0000   0.0000
     0.0000   0.0000   0.0000   0.0000   0.0000   0.0000   0.0000   0.0000
     0.0000   0.0000   0.0000   0.0000   0.0000   0.0000   0.0000   0.0000
     0.0000   0.0000   0.0000   0.0000   0.0000   0.0000   0.0000   0.0000
     0.0000   0.0000   0.0000   0.0000   0.0000   0.0000   0.0000   0.0000
     0.0000   0.0000   0.0000   0.0000   0.0000   0.0000   0.0000   0.0000
     0.0000   0.0000   0.0000   0.0000   0.0000   0.0000   0.0000   0.0000
     0.0000   0.0000   0.0000   0.0000   0.0000   0.0000   0.0000   0.0000
     0.0000   0.0000   0.0000   0.0000   0.0000   0.0000   0.0000   0.0000
     0.0000   0.0000   0.0000   0.0000   0.0000   0.0000   0.0000   0.0000
     0.0000   0.0000   0.0000   0.0000   0.0000   0.0000   0.0000   0.0000
     0.0000   0.0000   0.0000   0.0000   0.0000   0.0000   0.0000   0.0000
     0.0000   0.0000   0.0000   0.0000   0.0000   0.0000

          k = 0.3333 0.1925 0.0000 ( 64840 PWs)   bands (ev):

  -125.3789-125.3778-125.3760-125.3575-125.3534-125.3512-125.3508-125.3502
  -125.3499-125.3493-125.3491-125.3478-125.3477-125.3474-125.3464-125.3460
  -125.3437-125.2371-125.2325-125.2293-125.2257-125.2222-125.2208-125.2006
  -125.1995-125.1992-125.1975-125.1966-125.1963-125.1961-125.1952-125.1948
  -125.1042-125.0975-125.0971-125.0969-125.0959-125.0957-125.0953-125.0948
  -125.0944-125.0940-125.0938-125.0935-125.0933-125.0929-125.0927-125.0925
   -79.5396 -79.5353 -79.5346 -79.5277 -79.5269 -79.5262 -79.5257 -79.5239
   -79.5222 -79.5159 -79.5151 -79.5149 -79.5136 -79.5117 -79.5109 -79.5097
   -79.5086 -79.5073 -79.5058 -79.5032 -79.5014 -79.5007 -79.5005 -79.5002
   -79.4993 -79.4977 -79.4969 -79.4965 -79.4964 -79.4960 -79.4956 -79.4953
   -79.4950 -79.4947 -79.4945 -79.4936 -79.4935 -79.4934 -79.4930 -79.4929
   -79.4922 -79.4920 -79.4916 -79.4914 -79.4896 -79.4895 -79.4883 -79.4874
   -79.4866 -79.4848 -79.4832 -79.3920 -79.3891 -79.3882 -79.3865 -79.3843
   -79.3842 -79.3813 -79.3806 -79.3785 -79.3777 -79.3768 -79.3756 -79.3753
   -79.3731 -79.3711 -79.3685 -79.3669 -79.3634 -79.3579 -79.3570 -79.3558
   -79.3548 -79.3544 -79.3527 -79.3525 -79.3518 -79.3516 -79.3512 -79.3508
   -79.3505 -79.3499 -79.3494 -79.3488 -79.3477 -79.3454 -79.3445 -79.3410
   -79.3383 -79.3379 -79.3374 -79.3354 -79.3348 -79.3344 -79.3317 -79.3307
   -79.2638 -79.2633 -79.2608 -79.2586 -79.2586 -79.2585 -79.2574 -79.2566
   -79.2544 -79.2539 -79.2536 -79.2520 -79.2516 -79.2514 -79.2505 -79.2504
   -79.2502 -79.2498 -79.2497 -79.2495 -79.2490 -79.2487 -79.2485 -79.2482
   -79.2480 -79.2476 -79.2474 -79.2472 -79.2471 -79.2465 -79.2427 -79.2425
   -79.2410 -79.2407 -79.2386 -79.2383 -79.2374 -79.2369 -79.2360 -79.2358
   -79.2343 -79.2341 -79.2330 -79.2310 -79.2309 -79.2293 -79.2289 -79.2271
   -21.1835 -17.3807 -14.7695 -14.4456 -11.4451 -11.3263 -10.1775  -9.6145
    -9.5236  -8.6199  -8.0229  -7.7823  -7.5089  -7.4936  -7.4889  -7.2604
    -7.1653  -7.1209  -7.1172  -7.1131  -7.0890  -7.0344  -7.0308  -7.0025
    -6.9934  -6.9769  -6.9667  -6.9610  -6.9216  -6.9169  -6.9102  -6.9093
    -6.8856  -6.8849  -6.8645  -6.8566  -6.8401  -6.8279  -6.8266  -6.8199
    -6.8195  -6.8105  -6.8075  -6.7790  -6.7780  -6.7761  -6.7625  -6.7620
    -6.7511  -6.7483  -6.7473  -6.7468  -6.7327  -6.7310  -6.7212  -6.7161
    -6.7025  -6.6981  -6.6835  -6.6773  -6.6754  -6.6227  -6.6118  -6.6045
    -6.5987  -6.5949  -6.5941  -6.5867  -6.5823  -6.5785  -6.5541  -6.5529
    -6.5481  -6.5425  -6.5375  -6.5366  -6.5214  -6.5188  -6.5084  -6.5027
    -6.5006  -6.4977  -6.4966  -6.4820  -6.4773  -6.4737  -6.4721  -6.4699
    -6.4496  -6.4437  -6.4397  -6.4341  -6.4142  -6.4061  -6.3981  -6.3881
    -6.3821  -6.3787  -6.3719  -6.3706  -6.3612  -6.3591  -6.3582  -6.3492
    -6.3472  -6.3456  -6.3374  -6.3344  -6.3293  -6.3277  -6.3127  -6.3099
    -6.2987  -6.2814  -6.2591  -6.2578  -6.2395  -6.2381  -6.2373  -6.2295
    -6.2225  -6.2159  -6.2088  -6.1949  -6.1912  -6.1885  -6.1833  -6.1711
    -6.1675  -6.1582  -6.1547  -6.1488  -6.1470  -6.1337  -6.1308  -6.1259
    -6.1214  -6.1152  -6.1142  -6.0974  -6.0950  -6.0901  -6.0881  -6.0862
    -6.0841  -6.0813  -6.0779  -6.0717  -6.0600  -6.0446  -6.0434  -6.0414
    -6.0407  -6.0352  -6.0339  -6.0272  -6.0201  -6.0177  -6.0110  -6.0096
    -6.0031  -6.0026  -5.9838  -5.9811  -5.9745  -5.9702  -5.9638  -5.9595
    -5.9573  -5.9555  -5.9534  -5.9493  -5.9281  -5.9280  -5.9232  -5.9217
    -5.9167  -5.9128  -5.9040  -5.9033  -5.9003  -5.8888  -5.8880  -5.8833
    -5.8756  -5.8656  -5.8629  -5.8605  -5.8599  -5.8475  -5.8419  -5.8395
    -5.8333  -5.8329  -5.8297  -5.8284  -5.8274  -5.8171  -5.8151  -5.8135
    -5.8119  -5.8114  -5.8021  -5.7940  -5.7932  -5.7919  -5.7912  -5.7780
    -5.7771  -5.7752  -5.7746  -5.7703  -5.7572  -5.7570  -5.7545  -5.7496
    -5.7450  -5.7408  -5.7407  -5.7287  -5.7259  -5.7169  -5.7159  -5.7081
    -5.7077  -5.7013  -5.7009  -5.6963  -5.6961  -5.6870  -5.6657  -5.6650
    -5.6504  -5.6465  -5.6429  -5.6422  -5.6392  -5.6382  -5.6372  -5.6366
    -5.6363  -5.6318  -5.6291  -5.6283  -5.6271  -5.6185  -5.6139  -5.5612
    -5.5610  -5.5396  -5.5391  -5.5281  -5.5206  -5.5158  -5.4857  -5.4056
    -5.4052  -5.3697  -5.3514  -5.2609  -5.2059  -5.1996  -4.9585  -4.9583
    -4.8203  -4.2620  -4.2533  -4.0162  -4.0074  -3.9176  -3.9164  -3.6582
    -3.3718  -3.2122  -2.9787  -2.7333  -2.7303  -2.6397  -2.6386  -2.5614
[...]
     atom   58 type  4   force =     0.00000000    0.00000000    0.00000000
     atom   59 type  4   force =     0.00000000    0.00000000    0.00000000
     atom   60 type  4   force =     0.00000000    0.00000000    0.00000000
     atom   61 type  4   force =     0.00000000    0.00000000    0.00000000
     atom   62 type  4   force =     0.00000000    0.00000000    0.00000000
     atom   63 type  4   force =     0.00000000    0.00000000    0.00000000
     The SCF correction term to forces
     atom    1 type  1   force =     0.00000000    0.00000000    0.00000000
     atom    2 type  1   force =    -0.00000000    0.00000000    0.00000000
     atom    3 type  1   force =    -0.00017701   -0.00007860    0.00049444
     atom    4 type  1   force =     0.00018186   -0.00013618    0.00065462
     atom    5 type  1   force =    -0.00000000   -0.00000000    0.00000000
     atom    6 type  1   force =     0.00000000   -0.00000000    0.00000000
     atom    7 type  1   force =    -0.00040762   -0.00019526    0.00051046
     atom    8 type  1   force =     0.00036641   -0.00041866    0.00089822
     atom    9 type  1   force =    -0.00000000   -0.00000000    0.00000000
     atom   10 type  1   force =     0.00000000   -0.00000000    0.00000000
     atom   11 type  1   force =     0.00001747   -0.00000873    0.00051190
     atom   12 type  1   force =    -0.00002224    0.00020559    0.00111085
     atom   13 type  1   force =     0.00000000   -0.00000000    0.00000000
     atom   14 type  1   force =    -0.00000000    0.00000000    0.00000000
     atom   15 type  1   force =     0.00025119    0.00010326    0.00053978
     atom   16 type  1   force =    -0.00023103    0.00050905    0.00091862
     atom   17 type  1   force =    -0.00000000   -0.00000000    0.00000000
     atom   18 type  1   force =     0.00000000    0.00000000    0.00000000
     atom   19 type  1   force =     0.00022913   -0.00035587    0.00061960
     atom   20 type  1   force =    -0.00025082    0.00016306    0.00052830
     atom   21 type  1   force =    -0.00000000   -0.00000000    0.00000000
     atom   22 type  1   force =     0.00000000    0.00000000    0.00000000
     atom   23 type  1   force =    -0.00017076   -0.00026912    0.00087556
     atom   24 type  1   force =     0.00021549   -0.00034268    0.00053399
     atom   25 type  1   force =    -0.00000000   -0.00000000    0.00000000
     atom   26 type  1   force =     0.00000000    0.00000000    0.00000000
     atom   27 type  1   force =    -0.00034937    0.00022435    0.00085165
     atom   28 type  1   force =     0.00035873   -0.00002387    0.00082713
     atom   29 type  1   force =    -0.00000000   -0.00000000    0.00000000
     atom   30 type  1   force =     0.00000000    0.00000000    0.00000000
     atom   31 type  1   force =     0.00000505    0.00025190    0.00058902
     atom   32 type  1   force =    -0.00003168    0.00040550    0.00084300
     atom   33 type  1   force =    -0.00001172   -0.00015112    0.00149002
     atom   34 type  1   force =     0.00005011    0.00036257    0.00211304
     atom   35 type  1   force =    -0.00038406   -0.00024249    0.00140862
     atom   36 type  1   force =     0.00039224   -0.00014628    0.00189921
     atom   37 type  1   force =    -0.00042893   -0.00015193    0.00148196
     atom   38 type  1   force =     0.00040047   -0.00005375    0.00151443
     atom   39 type  1   force =    -0.00008495    0.00002470    0.00157650
     atom   40 type  1   force =     0.00009111    0.00038894    0.00173796
     atom   41 type  1   force =    -0.00016803   -0.00017637    0.00192744
     atom   42 type  1   force =     0.00011357    0.00036394    0.00165947
     atom   43 type  1   force =    -0.00009182   -0.00047779    0.00156653
     atom   44 type  1   force =     0.00009114    0.00006008    0.00172009
     atom   45 type  1   force =    -0.00039366   -0.00017864    0.00147256
     atom   46 type  1   force =     0.00041379   -0.00003789    0.00150926
     atom   47 type  1   force =    -0.00048600    0.00016570    0.00187149
     atom   48 type  1   force =     0.00046211    0.00023375    0.00144569
     atom   49 type  3   force =     0.00003353    0.00002014   -0.00072819
     atom   50 type  3   force =    -0.00000231   -0.00000405   -0.00068472
     atom   51 type  3   force =    -0.00002515   -0.00001113   -0.00013936
     atom   52 type  3   force =    -0.00003339   -0.00001928   -0.00071801
     atom   53 type  3   force =     0.00000271    0.00000798   -0.00005227
     atom   54 type  3   force =     0.00002492    0.00001855   -0.00012197
     atom   55 type  2   force =     0.00000237    0.00001081    0.00014485
     atom   56 type  4   force =     0.00000308    0.00000177   -0.00018581
     atom   57 type  4   force =    -0.00000023   -0.00000043   -0.00006698
     atom   58 type  4   force =    -0.00000648    0.00000121    0.00002267
     atom   59 type  4   force =    -0.00000412   -0.00000166   -0.00000429
     atom   60 type  4   force =    -0.00000234   -0.00000137   -0.00018644
     atom   61 type  4   force =     0.00000465    0.00000752    0.00002414
     atom   62 type  4   force =     0.00000252    0.00000247   -0.00000229
     atom   63 type  4   force =     0.00000236   -0.00000183    0.00001948

     DFT-D3 dispersion contribution to forces:
     atom    1 type  1   force =    -0.00000217    0.00000142    0.00257066
     atom    2 type  1   force =     0.00000060    0.00000502    0.00257283
     atom    3 type  1   force =     0.00002152    0.00004897   -0.00244144
     atom    4 type  1   force =    -0.00000523    0.00001778   -0.00249132
     atom    5 type  1   force =    -0.00001507   -0.00000687    0.00255797
     atom    6 type  1   force =    -0.00001319    0.00005303    0.00266537
     atom    7 type  1   force =     0.00023403    0.00010467   -0.00229420
     atom    8 type  1   force =    -0.00046434    0.00072294   -0.00143437
     atom    9 type  1   force =     0.00000271   -0.00000129    0.00257188
     atom   10 type  1   force =     0.00000154   -0.00000358    0.00275719
     atom   11 type  1   force =    -0.00001929   -0.00001147   -0.00244896
     atom   12 type  1   force =     0.00001240   -0.00007949   -0.00185159
     atom   13 type  1   force =    -0.00001991   -0.00001150    0.00259178
     atom   14 type  1   force =     0.00003919   -0.00003645    0.00264666
     atom   15 type  1   force =    -0.00016212   -0.00010639   -0.00235848
     atom   16 type  1   force =     0.00038479   -0.00073172   -0.00153260
     atom   17 type  1   force =    -0.00000021    0.00002974    0.00260246
     atom   18 type  1   force =     0.00000386    0.00002118    0.00255199
     atom   19 type  1   force =    -0.00001703    0.00025203   -0.00231297
     atom   20 type  1   force =    -0.00000214   -0.00015791   -0.00243077
     atom   21 type  1   force =     0.00001601    0.00004980    0.00265810
     atom   22 type  1   force =     0.00001266   -0.00001263    0.00255613
     atom   23 type  1   force =     0.00043420    0.00071057   -0.00137358
     atom   24 type  1   force =    -0.00019912    0.00012808   -0.00233967
     atom   25 type  1   force =     0.00005295   -0.00002003    0.00265463
     atom   26 type  1   force =    -0.00005305   -0.00001632    0.00265053
     atom   27 type  1   force =     0.00082489   -0.00008263   -0.00145305
     atom   28 type  1   force =    -0.00085882   -0.00003342   -0.00136571
     atom   29 type  1   force =     0.00001970   -0.00000863    0.00259258
     atom   30 type  1   force =    -0.00003864   -0.00003468    0.00265079
     atom   31 type  1   force =     0.00013733   -0.00008590   -0.00242158
     atom   32 type  1   force =    -0.00034367   -0.00074267   -0.00150106
     atom   33 type  1   force =     0.00000820   -0.00001790   -0.00001620
     atom   34 type  1   force =    -0.00002340   -0.00001051    0.00005394
     atom   35 type  1   force =     0.00002961   -0.00001474    0.00009063
     atom   36 type  1   force =    -0.00002318   -0.00001808    0.00006455
     atom   37 type  1   force =    -0.00001414    0.00002836    0.00004235
     atom   38 type  1   force =     0.00000487   -0.00000279    0.00034893
     atom   39 type  1   force =     0.00000313    0.00001898   -0.00000967
     atom   40 type  1   force =    -0.00000092    0.00000272    0.00029693
     atom   41 type  1   force =    -0.00000965   -0.00002224   -0.00001466
     atom   42 type  1   force =     0.00002204   -0.00000644    0.00005609
     atom   43 type  1   force =    -0.00000906   -0.00023603   -0.00006614
     atom   44 type  1   force =     0.00000500    0.00000041   -0.00003523
     atom   45 type  1   force =    -0.00001015   -0.00000104    0.00035846
     atom   46 type  1   force =     0.00001327    0.00003370    0.00006687
     atom   47 type  1   force =    -0.00022870    0.00013179   -0.00012657
     atom   48 type  1   force =     0.00022619    0.00012876   -0.00011422
     atom   49 type  3   force =     0.00015829    0.00009914   -0.00027344
     atom   50 type  3   force =    -0.00000268   -0.00001031    0.00018812
     atom   51 type  3   force =     0.00017253    0.00014649   -0.00052190
     atom   52 type  3   force =    -0.00015460   -0.00008561   -0.00028222
     atom   53 type  3   force =     0.00000412   -0.00000586   -0.00100467
     atom   54 type  3   force =    -0.00021313   -0.00008428   -0.00053732
     atom   55 type  2   force =     0.00000281   -0.00002395   -0.00162274
     atom   56 type  4   force =    -0.00001263   -0.00000579   -0.00002268
     atom   57 type  4   force =    -0.00000094    0.00000696   -0.00008911
     atom   58 type  4   force =     0.00004680   -0.00006186   -0.00204866
     atom   59 type  4   force =    -0.00004512   -0.00000927   -0.00040170
     atom   60 type  4   force =     0.00000861    0.00000646   -0.00002386
     atom   61 type  4   force =     0.00006041   -0.00002813   -0.00203769
     atom   62 type  4   force =     0.00002661    0.00003625   -0.00041717
     atom   63 type  4   force =    -0.00002855    0.00004315   -0.00170121

     Gate contribution to forces:
     atom    1 type  1   force =    -0.00000000    0.00000000   -0.51824758
     atom    2 type  1   force =    -0.00000000    0.00000000   -0.51824758
     atom    3 type  1   force =    -0.00000000    0.00000000   -0.20636271
     atom    4 type  1   force =    -0.00000000    0.00000000   -0.20638417
     atom    5 type  1   force =    -0.00000000    0.00000000   -0.51824758
     atom    6 type  1   force =    -0.00000000    0.00000000   -0.51824758
     atom    7 type  1   force =    -0.00000000    0.00000000   -0.20580661
     atom    8 type  1   force =    -0.00000000    0.00000000   -0.20823314
     atom    9 type  1   force =    -0.00000000    0.00000000   -0.51824758
     atom   10 type  1   force =    -0.00000000    0.00000000   -0.51824758
     atom   11 type  1   force =    -0.00000000    0.00000000   -0.20631382
     atom   12 type  1   force =    -0.00000000    0.00000000   -0.22207890
     atom   13 type  1   force =    -0.00000000    0.00000000   -0.51824758
     atom   14 type  1   force =    -0.00000000    0.00000000   -0.51824758
     atom   15 type  1   force =    -0.00000000    0.00000000   -0.20584508
     atom   16 type  1   force =    -0.00000000    0.00000000   -0.20652430
     atom   17 type  1   force =    -0.00000000    0.00000000   -0.51824758
     atom   18 type  1   force =    -0.00000000    0.00000000   -0.51824758
     atom   19 type  1   force =    -0.00000000    0.00000000   -0.20580680
     atom   20 type  1   force =    -0.00000000    0.00000000   -0.20599283
     atom   21 type  1   force =    -0.00000000    0.00000000   -0.51824758
     atom   22 type  1   force =    -0.00000000    0.00000000   -0.51824758
     atom   23 type  1   force =    -0.00000000    0.00000000   -0.20830478
     atom   24 type  1   force =    -0.00000000    0.00000000   -0.20582734
     atom   25 type  1   force =    -0.00000000    0.00000000   -0.51824758
     atom   26 type  1   force =    -0.00000000    0.00000000   -0.51824758
     atom   27 type  1   force =    -0.00000000    0.00000000   -0.20739267
     atom   28 type  1   force =    -0.00000000    0.00000000   -0.20742549
     atom   29 type  1   force =    -0.00000000    0.00000000   -0.51824758
     atom   30 type  1   force =    -0.00000000    0.00000000   -0.51824758
     atom   31 type  1   force =    -0.00000000    0.00000000   -0.20596423
     atom   32 type  1   force =    -0.00000000    0.00000000   -0.20702707
     atom   33 type  1   force =    -0.00000000    0.00000000   -0.36218948
     atom   34 type  1   force =    -0.00000000    0.00000000   -0.36192303
     atom   35 type  1   force =    -0.00000000    0.00000000   -0.36191581
     atom   36 type  1   force =    -0.00000000    0.00000000   -0.36213762
     atom   37 type  1   force =    -0.00000000    0.00000000   -0.36209415
     atom   38 type  1   force =    -0.00000000    0.00000000   -0.36420502
     atom   39 type  1   force =    -0.00000000    0.00000000   -0.36220756
     atom   40 type  1   force =    -0.00000000    0.00000000   -0.36412568
     atom   41 type  1   force =    -0.00000000    0.00000000   -0.36226648
     atom   42 type  1   force =    -0.00000000    0.00000000   -0.36208702
     atom   43 type  1   force =    -0.00000000    0.00000000   -0.36243111
     atom   44 type  1   force =    -0.00000000    0.00000000   -0.36256127
     atom   45 type  1   force =    -0.00000000    0.00000000   -0.36412604
     atom   46 type  1   force =    -0.00000000    0.00000000   -0.36186196
     atom   47 type  1   force =    -0.00000000    0.00000000   -0.36216136
     atom   48 type  1   force =    -0.00000000    0.00000000   -0.36218852
     atom   49 type  3   force =     0.00000000   -0.00000000    0.03941720
     atom   50 type  3   force =     0.00000000   -0.00000000    0.04786532
     atom   51 type  3   force =     0.00000000   -0.00000000    0.02194656
     atom   52 type  3   force =     0.00000000   -0.00000000    0.03896150
     atom   53 type  3   force =     0.00000000   -0.00000000    0.01339541
     atom   54 type  3   force =     0.00000000   -0.00000000    0.02148482
     atom   55 type  2   force =    -0.00000000    0.00000000   -0.00632461
     atom   56 type  4   force =     0.00000000   -0.00000000    0.01161425
     atom   57 type  4   force =     0.00000000   -0.00000000    0.01537624
     atom   58 type  4   force =    -0.00000000    0.00000000   -0.00259954
     atom   59 type  4   force =     0.00000000   -0.00000000    0.00378673
     atom   60 type  4   force =     0.00000000   -0.00000000    0.01141212
     atom   61 type  4   force =    -0.00000000    0.00000000   -0.00267386
     atom   62 type  4   force =     0.00000000   -0.00000000    0.00358300
     atom   63 type  4   force =    -0.00000000    0.00000000   -0.00249679

     Total force =     0.336952     Total SCF correction =     0.007676

     DFT-D3 dispersion Force =     0.014083

     Writing all to output data dir ./tmp/01_Zn002_topsite_upright.save/ :
     XML data file, charge density, pseudopotentials, collected wavefunctions

     init_run     :     26.34s CPU     27.03s WALL (       1 calls)
     electrons    :   2670.30s CPU   2696.66s WALL (       1 calls)
     forces       :     18.74s CPU     19.03s WALL (       1 calls)
     force_dftd3  :      0.19s CPU      0.20s WALL (       1 calls)

     Called by init_run:
     wfcinit      :     24.66s CPU     25.16s WALL (       1 calls)
     wfcinit:atom :      0.05s CPU      0.10s WALL (       5 calls)
     wfcinit:wfcr :     24.20s CPU     24.47s WALL (       5 calls)
     potinit      :      0.50s CPU      0.57s WALL (       1 calls)
     hinit0       :      0.41s CPU      0.42s WALL (       1 calls)

     Called by electrons:
     c_bands      :   2505.54s CPU   2527.16s WALL (      26 calls)
     sum_band     :    152.67s CPU    155.42s WALL (      26 calls)
     v_of_rho     :      2.12s CPU      2.30s WALL (      27 calls)
     v_h          :      0.11s CPU      0.17s WALL (      27 calls)
     v_xc         :      2.01s CPU      2.15s WALL (      28 calls)
     newd         :      8.42s CPU     10.28s WALL (      27 calls)
     PAW_pot      :      1.48s CPU      1.48s WALL (      27 calls)
     mix_rho      :      0.36s CPU      0.41s WALL (      26 calls)
     energy_dftd3 :      0.12s CPU      0.12s WALL (       1 calls)

     Called by c_bands:
     init_us_2    :      5.89s CPU      5.98s WALL (     270 calls)
     cegterg      :   2494.19s CPU   2515.49s WALL (     130 calls)

     Called by sum_band:
     sum_band:wei :      0.03s CPU      0.03s WALL (      26 calls)
     sum_band:loo :    144.88s CPU    145.64s WALL (      26 calls)
     sum_band:buf :      1.25s CPU      1.34s WALL (     130 calls)
     sum_band:ini :      2.84s CPU      2.87s WALL (     130 calls)
     sum_band:cal :    108.67s CPU    109.01s WALL (     130 calls)
     sum_band:bec :      0.75s CPU      0.75s WALL (     130 calls)
     addusdens    :      7.28s CPU      9.18s WALL (      26 calls)
                                        0.00s GPU  (      26 calls)
     addusd:skk   :      0.36s CPU      0.40s WALL (     104 calls)
                                        0.00s GPU  (     104 calls)

     Called by *egterg:
     cdiaghg      :    354.79s CPU    355.99s WALL (     999 calls)
     cegterg:over :    324.49s CPU    325.68s WALL (     869 calls)
     cegterg:upda :    208.82s CPU    210.72s WALL (     869 calls)
     cegterg:last :    586.28s CPU    588.23s WALL (     297 calls)
     cdiaghg:chol :     24.95s CPU     25.01s WALL (     999 calls)
     cdiaghg:inve :      3.53s CPU      3.54s WALL (     999 calls)
     cdiaghg:para :     91.73s CPU     92.28s WALL (    1998 calls)
     h_psi        :    682.67s CPU    688.20s WALL (    1004 calls)
     s_psi        :    263.68s CPU    264.45s WALL (    1004 calls)
     g_psi        :      1.47s CPU      1.49s WALL (     869 calls)

     Called by h_psi:
     h_psi:calbec :    272.10s CPU    273.07s WALL (    1004 calls)
     vloc_psi     :    144.85s CPU    146.17s WALL (    1004 calls)
     add_vuspsi   :    264.09s CPU    264.94s WALL (    1004 calls)

     General routines
     calbec       :    397.46s CPU    398.82s WALL (    1154 calls)
     fft          :      1.95s CPU      2.23s WALL (     360 calls)
     ffts         :      0.36s CPU      0.39s WALL (      53 calls)
     fftw         :    142.61s CPU    143.81s WALL (  462138 calls)
     interpolate  :      0.41s CPU      0.44s WALL (      27 calls)

     Parallel routines

     PAW routines
     PAW_pot      :      1.48s CPU      1.48s WALL (      27 calls)

     PWSCF        :  45m16.91s CPU  45m45.63s WALL


   This run was terminated on:  17:35:42   4Apr2025            

=------------------------------------------------------------------------------=
   JOB DONE.
=------------------------------------------------------------------------------=
Note: The following floating-point exceptions are signalling: IEEE_DENORMAL
Note: The following floating-point exceptions are signalling: IEEE_DENORMAL
Note: The following floating-point exceptions are signalling: IEEE_DENORMAL
Note: The following floating-point exceptions are signalling: IEEE_DENORMAL
Note: The following floating-point exceptions are signalling: IEEE_DENORMAL
Note: The following floating-point exceptions are signalling: IEEE_DENORMAL
Note: The following floating-point exceptions are signalling: IEEE_DENORMAL
Note: The following floating-point exceptions are signalling: IEEE_DENORMAL
Note: The following floating-point exceptions are signalling: IEEE_DENORMAL
Note: The following floating-point exceptions are signalling: IEEE_DENORMAL
Note: The following floating-point exceptions are signalling: IEEE_DENORMAL
Note: The following floating-point exceptions are signalling: IEEE_DENORMAL
