--------------------------------------------------------------------------
By default, for Open MPI 4.0 and later, infiniband ports on a device
are not used by default.  The intent is to use UCX for these devices.
You can override this policy by setting the btl_openib_allow_ib MCA parameter
to true.

  Local host:              psid01
  Local adapter:           mlx5_0
  Local port:              1

--------------------------------------------------------------------------
--------------------------------------------------------------------------
WARNING: There was an error initializing an OpenFabrics device.

  Local host:   psid01
  Local device: mlx5_0
--------------------------------------------------------------------------

     Program PWSCF v.7.3.1 starts on 29Mar2025 at  2:41:56 

     This program is part of the open-source Quantum ESPRESSO suite
     for quantum simulation of materials; please cite
         "P. Giannozzi et al., J. Phys.:Condens. Matter 21 395502 (2009);
         "P. Giannozzi et al., J. Phys.:Condens. Matter 29 465901 (2017);
         "P. Giannozzi et al., J. Chem. Phys. 152 154105 (2020);
          URL http://www.quantum-espresso.org", 
     in publications or presentations arising from this work. More details at
     http://www.quantum-espresso.org/quote

     Parallel version (MPI), running on    34 processors

     MPI processes distributed on     1 nodes
     11414 MiB available memory on the printing compute node when the environment starts

     Waiting for input...
     Reading input from standard input
Warning: card &CELL ignored
Warning: card   CELL_DOFREE = 'ALL' ignored
Warning: card / ignored

     Current dimensions of program PWSCF are:
     Max number of different atomic species (ntypx) = 10
     Max number of k-points (npk) =  40000
     Max angular momentum in pseudopotentials (lmaxx) =  4
     file O.pbe-n-kjpaw_psl.0.1.UPF: wavefunction(s)  2P renormalized

     R & G space division:  proc/nbgrp/npool/nimage =      34
     Subspace diagonalization in iterative solution of the eigenvalue problem:
     one sub-group per band group will be used
     custom distributed-memory algorithm (size of sub-group:  5*  5 procs)


     Parallelization info
     --------------------
     sticks:   dense  smooth     PW     G-vecs:    dense   smooth      PW
     Min         222     126     34                35322    15256    2100
     Max         223     127     35                35328    15267    2110
     Sum        7555    4303   1159              1201061   518755   71619

     Using Slab Decomposition



     bravais-lattice index     =            0
     lattice parameter (alat)  =      19.7617  a.u.
     unit-cell volume          =   15176.5939 (a.u.)^3
     number of atoms/cell      =           51
     number of atomic types    =            3
     number of electrons       =       968.00
     number of Kohn-Sham states=          581
     kinetic-energy cutoff     =      40.0000  Ry
     charge density cutoff     =     280.0000  Ry
     scf convergence threshold =      1.0E-06
     mixing beta               =       0.4000
     number of iterations used =            8  plain     mixing
     energy convergence thresh.=      1.0E-05
     force convergence thresh. =      5.0E-04
     Exchange-correlation= PBE
                           (   1   4   3   4   0   0   0)
     nstep                     =          100


     celldm(1)=  19.761696  celldm(2)=   0.000000  celldm(3)=   0.000000
     celldm(4)=   0.000000  celldm(5)=   0.000000  celldm(6)=   0.000000

     crystal axes: (cart. coord. in units of alat)
               a(1) = (   1.000000   0.000000   0.000000 )  
               a(2) = (  -0.500000   0.866025   0.000000 )  
               a(3) = (   0.000000   0.000000   2.270759 )  

     reciprocal axes: (cart. coord. in units 2 pi/alat)
               b(1) = (  1.000000  0.577350 -0.000000 )  
               b(2) = (  0.000000  1.154701  0.000000 )  
               b(3) = (  0.000000 -0.000000  0.440381 )  


     PseudoPot. # 1 for Zn read from file:
     /home/ys/qepseudo/SSSP_1.3.0_PBE_efficiency/Zn_pbe_v1.uspp.F.UPF
     MD5 check sum: df62231357ef9e81f77b2b3087fa5675
     Pseudo is Ultrasoft, Zval = 20.0
     Generated by new atomic code, or converted to UPF format
     Using radial grid of  943 points,  6 beta functions with: 
                l(1) =   0
                l(2) =   0
                l(3) =   1
                l(4) =   1
                l(5) =   2
                l(6) =   2
     Q(r) pseudized with  8 coefficients,  rinner =    1.100   1.100   1.100
                                                       1.100   1.100

     PseudoPot. # 2 for O  read from file:
     /home/ys/qepseudo/SSSP_1.3.0_PBE_efficiency/O.pbe-n-kjpaw_psl.0.1.UPF
     MD5 check sum: 0234752ac141de4415c5fc33072bef88
     Pseudo is Projector augmented-wave + core cor, Zval =  6.0
     Generated using "atomic" code by A. Dal Corso  v.5.0.99 svn rev. 10869
     Shape of augmentation charge: BESSEL
     Using radial grid of 1095 points,  4 beta functions with: 
                l(1) =   0
                l(2) =   0
                l(3) =   1
                l(4) =   1
     Q(r) pseudized with 0 coefficients 


     PseudoPot. # 3 for H  read from file:
     /home/ys/qepseudo/SSSP_1.3.0_PBE_efficiency/H.pbe-rrkjus_psl.1.0.0.UPF
     MD5 check sum: f52b6d4d1c606e5624b1dc7b2218f220
     Pseudo is Ultrasoft, Zval =  1.0
     Generated using "atomic" code by A. Dal Corso  v.5.1
     Using radial grid of  929 points,  2 beta functions with: 
                l(1) =   0
                l(2) =   0
     Q(r) pseudized with 0 coefficients 


     atomic species   valence    mass     pseudopotential
     Zn               20.00    65.38000     Zn( 1.00)
     O                 6.00    15.99940     O ( 1.00)
     H                 1.00     1.00794     H ( 1.00)

     No symmetry found


                                    s                        frac. trans.

      isym =  1     identity                                     

 cryst.   s( 1) = (     1          0          0      )
                  (     0          1          0      )
                  (     0          0          1      )

 cart.    s( 1) = (  1.0000000  0.0000000  0.0000000 )
                  (  0.0000000  1.0000000  0.0000000 )
                  (  0.0000000  0.0000000  1.0000000 )


   Cartesian axes

     site n.     atom                  positions (alat units)
         1        Zn     tau(   1) = (   0.0000000   0.1443375   0.1164998  )
         2        Zn     tau(   2) = (   0.5000000   0.1443375   0.1164998  )
         3        Zn     tau(   3) = (  -0.0000009   0.1443253   0.5892328  )
         4        Zn     tau(   4) = (   0.5000057   0.1444331   0.5893457  )
         5        Zn     tau(   5) = (  -0.1250000   0.3608439   0.1164998  )
         6        Zn     tau(   6) = (   0.3750000   0.3608439   0.1164998  )
         7        Zn     tau(   7) = (  -0.1250605   0.3609005   0.5892520  )
         8        Zn     tau(   8) = (   0.3750667   0.3609476   0.5892409  )
         9        Zn     tau(   9) = (  -0.2500000   0.5773502   0.1164998  )
        10        Zn     tau(  10) = (   0.2500000   0.5773502   0.1164998  )
        11        Zn     tau(  11) = (  -0.2500929   0.5773056   0.5892190  )
        12        Zn     tau(  12) = (   0.2500864   0.5773127   0.5892873  )
        13        Zn     tau(  13) = (  -0.3750000   0.7938567   0.1164998  )
        14        Zn     tau(  14) = (   0.1250000   0.7938567   0.1164998  )
        15        Zn     tau(  15) = (  -0.3750348   0.7937470   0.5892089  )
        16        Zn     tau(  16) = (   0.1250330   0.7938041   0.5893866  )
        17        Zn     tau(  17) = (   0.2500000   0.1443375   0.1164998  )
        18        Zn     tau(  18) = (   0.7500000   0.1443375   0.1164998  )
        19        Zn     tau(  19) = (   0.2499793   0.1443524   0.5892478  )
        20        Zn     tau(  20) = (   0.7500154   0.1444015   0.5893369  )
        21        Zn     tau(  21) = (   0.1250000   0.3608439   0.1164998  )
        22        Zn     tau(  22) = (   0.6250000   0.3608439   0.1164998  )
        23        Zn     tau(  23) = (   0.1250142   0.3608841   0.5892372  )
        24        Zn     tau(  24) = (   0.6249793   0.3609637   0.5892403  )
        25        Zn     tau(  25) = (   0.0000000   0.5773502   0.1164998  )
        26        Zn     tau(  26) = (   0.5000000   0.5773502   0.1164998  )
        27        Zn     tau(  27) = (  -0.0000341   0.5773050   0.5893056  )
        28        Zn     tau(  28) = (   0.5000385   0.5773111   0.5891918  )
        29        Zn     tau(  29) = (  -0.1250000   0.7938567   0.1164998  )
        30        Zn     tau(  30) = (   0.3750000   0.7938567   0.1164998  )
        31        Zn     tau(  31) = (  -0.1250706   0.7937840   0.5893112  )
        32        Zn     tau(  32) = (   0.3750688   0.7937688   0.5892851  )
        33        Zn     tau(  33) = (   0.1249499   0.0721180   0.3527750  )
        34        Zn     tau(  34) = (   0.6250516   0.0722806   0.3529955  )
        35        Zn     tau(  35) = (  -0.0001067   0.2887395   0.3528763  )
        36        Zn     tau(  36) = (   0.5001077   0.2888424   0.3530070  )
        37        Zn     tau(  37) = (  -0.1251373   0.5051229   0.3529907  )
        38        Zn     tau(  38) = (   0.3751373   0.5051749   0.3530098  )
        39        Zn     tau(  39) = (  -0.2500771   0.7215201   0.3528974  )
        40        Zn     tau(  40) = (   0.2500778   0.7216345   0.3529906  )
        41        Zn     tau(  41) = (   0.3750658   0.0722199   0.3528654  )
        42        Zn     tau(  42) = (   0.8749310   0.0721759   0.3529169  )
        43        Zn     tau(  43) = (   0.2501013   0.2887983   0.3528633  )
        44        Zn     tau(  44) = (   0.7498955   0.2887831   0.3530222  )
        45        Zn     tau(  45) = (   0.1250465   0.5051922   0.3529544  )
        46        Zn     tau(  46) = (   0.6249532   0.5051087   0.3530488  )
        47        Zn     tau(  47) = (   0.0000130   0.7216316   0.3529497  )
        48        Zn     tau(  48) = (   0.4999851   0.7215192   0.3529316  )
        49        O      tau(  49) = (   0.3727026   0.3855520   0.8407751  )
        50        H      tau(  50) = (   0.3693040   0.4781029   0.8475745  )
        51        H      tau(  51) = (   0.2838220   0.3590195   0.8451656  )

     --------------------------------------------
     DFT-D3 Dispersion Correction (3-body terms):
     --------------------------------------------
       Reference C6 values for interpolation: 

         atom   Coordination number   C6
         H          0.912             6.05
         H          0.000            15.18
         O          0.000            31.01
         O          0.993            25.63
         O          1.989            20.74
         Zn         0.000           681.04
         Zn         1.942           306.91

       Values used:

         atom   Coordination number  R0_AB[au]  C6      C8
         Zn         6.783            3.053    306.91  23930.67
         Zn         6.780            3.053    306.91  23930.67
         Zn         6.781            3.053    306.91  23930.67
         Zn         6.781            3.053    306.91  23930.67
         Zn         6.781            3.053    306.91  23930.67
         Zn         6.782            3.053    306.91  23930.67
         Zn         6.789            3.053    306.91  23930.67
         Zn         6.905            3.053    306.91  23930.67
         Zn         6.781            3.053    306.91  23930.67
         Zn         6.779            3.053    306.91  23930.67
         Zn         6.794            3.053    306.91  23930.67
         Zn         6.793            3.053    306.91  23930.67
         Zn         6.783            3.053    306.91  23930.67
         Zn         6.778            3.053    306.91  23930.67
         Zn         6.786            3.053    306.91  23930.67
         Zn         6.777            3.053    306.91  23930.67
         Zn         6.783            3.053    306.91  23930.67
         Zn         6.780            3.053    306.91  23930.67
         Zn         6.780            3.053    306.91  23930.67
         Zn         6.782            3.053    306.91  23930.67
         Zn         6.782            3.053    306.91  23930.67
         Zn         6.781            3.053    306.91  23930.67
         Zn         6.787            3.053    306.91  23930.67
         Zn         6.799            3.053    306.91  23930.67
         Zn         6.779            3.053    306.91  23930.67
         Zn         6.781            3.053    306.91  23930.67
         Zn         6.784            3.053    306.91  23930.67
         Zn         6.803            3.053    306.91  23930.67
         Zn         6.781            3.053    306.91  23930.67
         Zn         6.781            3.053    306.91  23930.67
         Zn         6.778            3.053    306.91  23930.67
         Zn         6.785            3.053    306.91  23930.67
         Zn         8.381            3.053    306.91  23930.67
         Zn         8.381            3.053    306.91  23930.67
         Zn         8.384            3.053    306.91  23930.67
         Zn         8.391            3.053    306.91  23930.67
         Zn         8.389            3.053    306.91  23930.67
         Zn         8.394            3.053    306.91  23930.67
         Zn         8.387            3.053    306.91  23930.67
         Zn         8.384            3.053    306.91  23930.67
         Zn         8.379            3.053    306.91  23930.67
         Zn         8.383            3.053    306.91  23930.67
         Zn         8.384            3.053    306.91  23930.67
         Zn         8.391            3.053    306.91  23930.67
         Zn         8.385            3.053    306.91  23930.67
         Zn         8.399            3.053    306.91  23930.67
         Zn         8.380            3.053    306.91  23930.67
         Zn         8.391            3.053    306.91  23930.67
         O          2.110            2.345     20.77    419.23
         H          1.001            2.062      6.18     74.71
         H          1.002            2.062      6.18     74.69

         Molecular C6 ( Ry / a.u.^6 ) =    722464.97


   Crystallographic axes

     site n.     atom                  positions (cryst. coord.)
         1        Zn     tau(   1) = (  0.0833333  0.1666666  0.0513044  )
         2        Zn     tau(   2) = (  0.5833333  0.1666666  0.0513044  )
         3        Zn     tau(   3) = (  0.0833253  0.1666525  0.2594872  )
         4        Zn     tau(   4) = (  0.5833941  0.1667770  0.2595369  )
         5        Zn     tau(   5) = (  0.0833333  0.4166666  0.0513044  )
         6        Zn     tau(   6) = (  0.5833333  0.4166666  0.0513044  )
         7        Zn     tau(   7) = (  0.0833055  0.4167320  0.2594956  )
         8        Zn     tau(   8) = (  0.5834599  0.4167864  0.2594907  )
         9        Zn     tau(   9) = (  0.0833333  0.6666666  0.0513044  )
        10        Zn     tau(  10) = (  0.5833333  0.6666666  0.0513044  )
        11        Zn     tau(  11) = (  0.0832146  0.6666151  0.2594811  )
        12        Zn     tau(  12) = (  0.5833980  0.6666233  0.2595112  )
        13        Zn     tau(  13) = (  0.0833333  0.9166667  0.0513044  )
        14        Zn     tau(  14) = (  0.5833334  0.9166667  0.0513044  )
        15        Zn     tau(  15) = (  0.0832352  0.9165400  0.2594767  )
        16        Zn     tau(  16) = (  0.5833360  0.9166061  0.2595549  )
        17        Zn     tau(  17) = (  0.3333333  0.1666666  0.0513044  )
        18        Zn     tau(  18) = (  0.8333334  0.1666666  0.0513044  )
        19        Zn     tau(  19) = (  0.3333212  0.1666838  0.2594938  )
        20        Zn     tau(  20) = (  0.8333857  0.1667405  0.2595330  )
        21        Zn     tau(  21) = (  0.3333333  0.4166666  0.0513044  )
        22        Zn     tau(  22) = (  0.8333333  0.4166666  0.0513044  )
        23        Zn     tau(  23) = (  0.3333707  0.4167130  0.2594891  )
        24        Zn     tau(  24) = (  0.8333818  0.4168050  0.2594905  )
        25        Zn     tau(  25) = (  0.3333333  0.6666666  0.0513044  )
        26        Zn     tau(  26) = (  0.8333333  0.6666666  0.0513044  )
        27        Zn     tau(  27) = (  0.3332731  0.6666144  0.2595192  )
        28        Zn     tau(  28) = (  0.8333492  0.6666214  0.2594691  )
        29        Zn     tau(  29) = (  0.3333334  0.9166667  0.0513044  )
        30        Zn     tau(  30) = (  0.8333334  0.9166667  0.0513044  )
        31        Zn     tau(  31) = (  0.3332207  0.9165828  0.2595217  )
        32        Zn     tau(  32) = (  0.8333514  0.9165652  0.2595102  )
        33        Zn     tau(  33) = (  0.1665872  0.0832747  0.1553556  )
        34        Zn     tau(  34) = (  0.6667828  0.0834624  0.1554527  )
        35        Zn     tau(  35) = (  0.1665971  0.3334076  0.1554002  )
        36        Zn     tau(  36) = (  0.6668709  0.3335265  0.1554577  )
        37        Zn     tau(  37) = (  0.1664955  0.5832657  0.1554506  )
        38        Zn     tau(  38) = (  0.6668002  0.5833257  0.1554589  )
        39        Zn     tau(  39) = (  0.1664928  0.8331397  0.1554095  )
        40        Zn     tau(  40) = (  0.6667136  0.8332717  0.1554505  )
        41        Zn     tau(  41) = (  0.4167620  0.0833924  0.1553954  )
        42        Zn     tau(  42) = (  0.9166018  0.0833416  0.1554180  )
        43        Zn     tau(  43) = (  0.4168391  0.3334756  0.1553945  )
        44        Zn     tau(  44) = (  0.9166245  0.3334580  0.1554644  )
        45        Zn     tau(  45) = (  0.4167194  0.5833457  0.1554346  )
        46        Zn     tau(  46) = (  0.9165778  0.5832492  0.1554761  )
        47        Zn     tau(  47) = (  0.4166473  0.8332684  0.1554325  )
        48        Zn     tau(  48) = (  0.9165544  0.8331386  0.1554245  )
        49        O      tau(  49) = (  0.5953011  0.4451971  0.3702617  )
        50        H      tau(  50) = (  0.6453368  0.5520656  0.3732561  )
        51        H      tau(  51) = (  0.4911020  0.4145600  0.3721952  )

     number of k points=     5  Marzari-Vanderbilt smearing, width (Ry)=  0.0200
                       cart. coord. in units 2pi/alat
        k(    1) = (   0.0000000   0.0000000   0.0000000), wk =   0.2222222
        k(    2) = (   0.0000000   0.3849002   0.0000000), wk =   0.4444444
        k(    3) = (   0.3333333   0.1924501   0.0000000), wk =   0.4444444
        k(    4) = (   0.3333333   0.5773503   0.0000000), wk =   0.4444444
        k(    5) = (   0.3333333  -0.1924501   0.0000000), wk =   0.4444444

                       cryst. coord.
        k(    1) = (   0.0000000   0.0000000   0.0000000), wk =   0.2222222
        k(    2) = (   0.0000000   0.3333333   0.0000000), wk =   0.4444444
        k(    3) = (   0.3333333   0.0000000   0.0000000), wk =   0.4444444
        k(    4) = (   0.3333333   0.3333333   0.0000000), wk =   0.4444444
        k(    5) = (   0.3333333  -0.3333333   0.0000000), wk =   0.4444444

     Dense  grid:  1201061 G-vectors     FFT dimensions: ( 108, 108, 240)

     Smooth grid:   518755 G-vectors     FFT dimensions: (  80,  80, 192)

     Dynamical RAM for                 wfc:      16.90 MB

     Dynamical RAM for     wfc (w. buffer):     101.38 MB

     Dynamical RAM for           str. fact:       1.62 MB

     Dynamical RAM for           local pot:       0.00 MB

     Dynamical RAM for          nlocal pot:      25.48 MB

     Dynamical RAM for                qrad:       4.03 MB

     Dynamical RAM for          rho,v,vnew:       3.75 MB

     Dynamical RAM for               rhoin:       1.25 MB

     Dynamical RAM for            rho*nmix:       8.62 MB

     Dynamical RAM for           G-vectors:       2.14 MB

     Dynamical RAM for          h,s,v(r/c):       2.46 MB

     Dynamical RAM for          <psi|beta>:       7.77 MB

     Dynamical RAM for                 psi:      33.79 MB

     Dynamical RAM for                hpsi:      33.79 MB

     Dynamical RAM for                spsi:      33.79 MB

     Dynamical RAM for      wfcinit/wfcrot:      45.73 MB

     Dynamical RAM for           addusdens:     126.14 MB

     Dynamical RAM for          addusforce:     177.27 MB

     Dynamical RAM for         addusstress:     108.35 MB

     Estimated static dynamical RAM per process >     145.37 MB

     Estimated max dynamical RAM per process >     331.26 MB

     Estimated total dynamical RAM >      11.00 GB

     Initial potential from superposition of free atoms

     starting charge     967.9932, renormalised to     968.0000

     negative rho (up, down):  3.734E-03 0.000E+00
     Starting wfcs are  630 randomized atomic wfcs
[psid01:222159] 33 more processes have sent help message help-mpi-btl-openib.txt / ib port not selected
[psid01:222159] Set MCA parameter "orte_base_help_aggregate" to 0 to see all help / error messages
[psid01:222159] 33 more processes have sent help message help-mpi-btl-openib.txt / error in device init
     Checking if some PAW data can be deallocated... 
       PAW data deallocated on   33 nodes for type:  2

     total cpu time spent up to now is       58.7 secs

     Self-consistent Calculation

     iteration #  1     ecut=    40.00 Ry     beta= 0.40
     Davidson diagonalization with overlap

---- Real-time Memory Report at c_bands before calling an iterative solver
           217 MiB given to the printing process from OS
             0 MiB allocation reported by mallinfo(arena+hblkhd)
          5881 MiB available memory on the node where the printing process lives
------------------
     ethr =  1.00E-02,  avg # of iterations =  8.8

     Threshold (ethr) on eigenvalues was too large:
     Diagonalizing with lowered threshold

     Davidson diagonalization with overlap

---- Real-time Memory Report at c_bands before calling an iterative solver
           305 MiB given to the printing process from OS
             0 MiB allocation reported by mallinfo(arena+hblkhd)
          4773 MiB available memory on the node where the printing process lives
------------------
     ethr =  2.03E-04,  avg # of iterations =  7.4

     negative rho (up, down):  4.530E-03 0.000E+00

     total cpu time spent up to now is      764.2 secs

     total energy              =  -22198.60935726 Ry
     estimated scf accuracy    <       1.98978531 Ry

     iteration #  2     ecut=    40.00 Ry     beta= 0.40
     Davidson diagonalization with overlap

---- Real-time Memory Report at c_bands before calling an iterative solver
           315 MiB given to the printing process from OS
             0 MiB allocation reported by mallinfo(arena+hblkhd)
          4629 MiB available memory on the node where the printing process lives
------------------
     ethr =  2.06E-04,  avg # of iterations =  4.4

     negative rho (up, down):  5.030E-03 0.000E+00

     total cpu time spent up to now is     1167.9 secs

     total energy              =  -22199.07544649 Ry
     estimated scf accuracy    <       0.33736896 Ry

     iteration #  3     ecut=    40.00 Ry     beta= 0.40
     Davidson diagonalization with overlap

---- Real-time Memory Report at c_bands before calling an iterative solver
           319 MiB given to the printing process from OS
             0 MiB allocation reported by mallinfo(arena+hblkhd)
          4609 MiB available memory on the node where the printing process lives
------------------
     ethr =  3.49E-05,  avg # of iterations = 10.2

     negative rho (up, down):  5.377E-03 0.000E+00

     total cpu time spent up to now is     1530.9 secs

     total energy              =  -22199.07553835 Ry
     estimated scf accuracy    <       0.15965235 Ry

     iteration #  4     ecut=    40.00 Ry     beta= 0.40
     Davidson diagonalization with overlap

---- Real-time Memory Report at c_bands before calling an iterative solver
           320 MiB given to the printing process from OS
             0 MiB allocation reported by mallinfo(arena+hblkhd)
          4591 MiB available memory on the node where the printing process lives
------------------
     ethr =  1.65E-05,  avg # of iterations =  8.6

     negative rho (up, down):  5.407E-03 0.000E+00

     total cpu time spent up to now is     1905.3 secs

     total energy              =  -22199.06506522 Ry
     estimated scf accuracy    <       0.52494672 Ry

     iteration #  5     ecut=    40.00 Ry     beta= 0.40
     Davidson diagonalization with overlap

---- Real-time Memory Report at c_bands before calling an iterative solver
           320 MiB given to the printing process from OS
             0 MiB allocation reported by mallinfo(arena+hblkhd)
          4572 MiB available memory on the node where the printing process lives
------------------
     ethr =  1.65E-05,  avg # of iterations =  7.4

     negative rho (up, down):  5.517E-03 0.000E+00

     total cpu time spent up to now is     2268.9 secs

     total energy              =  -22199.09948877 Ry
     estimated scf accuracy    <       0.05202812 Ry

     iteration #  6     ecut=    40.00 Ry     beta= 0.40
     Davidson diagonalization with overlap

---- Real-time Memory Report at c_bands before calling an iterative solver
           321 MiB given to the printing process from OS
             0 MiB allocation reported by mallinfo(arena+hblkhd)
          4550 MiB available memory on the node where the printing process lives
------------------
     ethr =  5.37E-06,  avg # of iterations =  5.8

     negative rho (up, down):  5.561E-03 0.000E+00

     total cpu time spent up to now is     2618.0 secs

     total energy              =  -22199.10533678 Ry
     estimated scf accuracy    <       0.00150612 Ry

     iteration #  7     ecut=    40.00 Ry     beta= 0.40
     Davidson diagonalization with overlap

---- Real-time Memory Report at c_bands before calling an iterative solver
           322 MiB given to the printing process from OS
             0 MiB allocation reported by mallinfo(arena+hblkhd)
          4528 MiB available memory on the node where the printing process lives
------------------
     ethr =  1.56E-07,  avg # of iterations =  4.4

     negative rho (up, down):  5.584E-03 0.000E+00

     total cpu time spent up to now is     2994.7 secs

     total energy              =  -22199.10557697 Ry
     estimated scf accuracy    <       0.00036887 Ry

     iteration #  8     ecut=    40.00 Ry     beta= 0.40
     Davidson diagonalization with overlap

---- Real-time Memory Report at c_bands before calling an iterative solver
           322 MiB given to the printing process from OS
             0 MiB allocation reported by mallinfo(arena+hblkhd)
          4503 MiB available memory on the node where the printing process lives
------------------
     ethr =  3.81E-08,  avg # of iterations =  2.0

     negative rho (up, down):  5.598E-03 0.000E+00

     total cpu time spent up to now is     3324.3 secs

     total energy              =  -22199.10563545 Ry
     estimated scf accuracy    <       0.00007590 Ry

     iteration #  9     ecut=    40.00 Ry     beta= 0.40
     Davidson diagonalization with overlap

---- Real-time Memory Report at c_bands before calling an iterative solver
           323 MiB given to the printing process from OS
             0 MiB allocation reported by mallinfo(arena+hblkhd)
          4484 MiB available memory on the node where the printing process lives
------------------
     ethr =  7.84E-09,  avg # of iterations =  2.0

     negative rho (up, down):  5.605E-03 0.000E+00

     total cpu time spent up to now is     3655.6 secs

     total energy              =  -22199.10564728 Ry
     estimated scf accuracy    <       0.00001648 Ry

     iteration # 10     ecut=    40.00 Ry     beta= 0.40
     Davidson diagonalization with overlap

---- Real-time Memory Report at c_bands before calling an iterative solver
           324 MiB given to the printing process from OS
             0 MiB allocation reported by mallinfo(arena+hblkhd)
          4463 MiB available memory on the node where the printing process lives
------------------
     ethr =  1.70E-09,  avg # of iterations =  2.0

     negative rho (up, down):  5.611E-03 0.000E+00

     total cpu time spent up to now is     3992.6 secs

     total energy              =  -22199.10565001 Ry
     estimated scf accuracy    <       0.00000522 Ry

     iteration # 11     ecut=    40.00 Ry     beta= 0.40
     Davidson diagonalization with overlap

---- Real-time Memory Report at c_bands before calling an iterative solver
           324 MiB given to the printing process from OS
             0 MiB allocation reported by mallinfo(arena+hblkhd)
          4463 MiB available memory on the node where the printing process lives
------------------
     ethr =  5.40E-10,  avg # of iterations =  2.0

     negative rho (up, down):  5.621E-03 0.000E+00

     total cpu time spent up to now is     4324.4 secs

     End of self-consistent calculation

          k = 0.0000 0.0000 0.0000 ( 64855 PWs)   bands (ev):

  -124.9659-124.9643-124.9632-124.9630-124.9624-124.9621-124.9613-124.9612
  -124.9605-124.9603-124.9599-124.9594-124.9592-124.9584-124.9578-124.9569
  -124.7755-124.7738-124.7671-124.7624-124.7617-124.7602-124.7596-124.7588
  -124.7586-124.7582-124.7579-124.7575-124.7574-124.7569-124.7560-124.7559
  -124.7557-124.7552-124.7550-124.7548-124.7544-124.7543-124.7539-124.7537
  -124.7537-124.7533-124.7529-124.7527-124.7526-124.7477-124.7451-124.7348
   -79.1322 -79.1320 -79.1316 -79.1260 -79.1255 -79.1252 -79.1246 -79.1244
   -79.1242 -79.1145 -79.1143 -79.1138 -79.1136 -79.1135 -79.1128 -79.1125
   -79.1121 -79.1116 -79.1114 -79.1112 -79.1109 -79.1105 -79.1099 -79.1085
   -79.1082 -79.1076 -79.1071 -79.1060 -79.1059 -79.1052 -79.1051 -79.1048
   -79.1047 -79.1046 -79.1045 -79.1038 -79.1036 -79.1029 -79.1023 -79.1015
   -79.1008 -79.1007 -79.1002 -79.0997 -79.0995 -79.0990 -79.0952 -79.0949
   -78.9334 -78.9314 -78.9306 -78.9291 -78.9274 -78.9244 -78.9225 -78.9214
   -78.9212 -78.9211 -78.9210 -78.9203 -78.9186 -78.9180 -78.9179 -78.9171
   -78.9169 -78.9159 -78.9153 -78.9150 -78.9148 -78.9147 -78.9144 -78.9143
   -78.9143 -78.9143 -78.9141 -78.9137 -78.9133 -78.9132 -78.9130 -78.9126
   -78.9119 -78.9115 -78.9114 -78.9113 -78.9108 -78.9105 -78.9104 -78.9103
   -78.9100 -78.9098 -78.9097 -78.9093 -78.9092 -78.9091 -78.9087 -78.9086
   -78.9083 -78.9081 -78.9080 -78.9075 -78.9063 -78.9059 -78.9051 -78.9036
   -78.9035 -78.9034 -78.9032 -78.9032 -78.9031 -78.9028 -78.9027 -78.9022
   -78.9015 -78.9014 -78.9013 -78.9011 -78.9011 -78.9010 -78.9008 -78.9004
   -78.9000 -78.8995 -78.8981 -78.8970 -78.8945 -78.8943 -78.8943 -78.8942
   -78.8925 -78.8922 -78.8901 -78.8900 -78.8900 -78.8898 -78.8897 -78.8893
   -78.8890 -78.8886 -78.8856 -78.8850 -78.8849 -78.8827 -78.8820 -78.8809
   -20.2208  -8.4500  -7.9777  -7.2812  -6.9828  -6.9147  -6.9127  -6.9112
    -6.9105  -6.9084  -6.9081  -6.8015  -6.8013  -6.8012  -6.6046  -6.6041
    -6.6040  -6.5645  -6.5643  -6.5642  -6.4727  -6.4716  -6.4714  -6.4711
    -6.4705  -6.4702  -6.4238  -6.4227  -6.4222  -6.4217  -6.4212  -6.4211
    -6.4206  -6.4202  -6.4199  -6.3513  -6.3511  -6.3503  -6.3495  -6.3490
    -6.3488  -6.3201  -6.3200  -6.3192  -6.3185  -6.3170  -6.3169  -6.2157
    -6.2151  -6.2142  -6.2051  -6.2048  -6.2037  -6.2035  -6.2024  -6.2018
    -6.1665  -6.1567  -6.1564  -6.1552  -6.1550  -6.1545  -6.1542  -6.1022
    -6.1016  -6.1011  -6.1009  -6.1003  -6.1001  -6.0559  -6.0556  -6.0549
    -6.0544  -6.0540  -6.0537  -6.0393  -6.0387  -6.0380  -6.0375  -6.0371
    -6.0367  -6.0176  -6.0176  -6.0043  -6.0035  -6.0030  -6.0028  -6.0022
    -6.0011  -5.9931  -5.9922  -5.9913  -5.9804  -5.9803  -5.9799  -5.9796
    -5.9791  -5.9790  -5.8940  -5.8935  -5.8933  -5.8931  -5.8927  -5.8924
    -5.8093  -5.8093  -5.7936  -5.7936  -5.7606  -5.7605  -5.7596  -5.7584
    -5.7578  -5.7575  -5.7572  -5.7571  -5.7568  -5.7562  -5.7556  -5.7553
    -5.7127  -5.7126  -5.7125  -5.6818  -5.6803  -5.6800  -5.6797  -5.6794
    -5.6791  -5.6783  -5.6782  -5.6780  -5.6773  -5.6772  -5.6770  -5.6711
    -5.6711  -5.6708  -5.6704  -5.6703  -5.6701  -5.6540  -5.6527  -5.6526
    -5.6518  -5.6513  -5.6508  -5.6281  -5.6277  -5.6274  -5.6273  -5.6271
    -5.6265  -5.6237  -5.6237  -5.6230  -5.6227  -5.6224  -5.6222  -5.6068
    -5.6056  -5.6048  -5.6042  -5.6035  -5.6029  -5.6024  -5.5901  -5.5897
    -5.5894  -5.5018  -5.5018  -5.4841  -5.4834  -5.4821  -5.4815  -5.4810
    -5.4803  -5.4723  -5.4701  -5.4695  -5.4691  -5.4685  -5.4674  -5.4453
    -5.4398  -5.4373  -5.4361  -5.4349  -5.4336  -5.4234  -5.4222  -5.4219
    -5.4010  -5.4002  -5.3993  -5.3985  -5.3974  -5.3971  -5.3908  -5.3907
    -5.3901  -5.3898  -5.3893  -5.3891  -5.3446  -5.3438  -5.3434  -5.3420
    -5.3408  -5.3407  -5.3382  -5.3376  -5.3369  -5.3363  -5.3353  -5.3347
    -5.3029  -5.3016  -5.3014  -5.2954  -5.2952  -5.2948  -5.2939  -5.2932
    -5.2928  -5.2787  -5.2784  -5.2606  -5.2604  -5.2287  -5.2246  -5.2229
    -5.2229  -5.2223  -5.2212  -5.1959  -5.1945  -5.1943  -5.1940  -5.1937
    -5.1930  -5.1792  -5.1791  -5.1791  -4.9703  -4.9695  -4.9691  -4.9660
    -4.9659  -4.9659  -4.4398  -4.3323  -4.2936  -4.2906  -4.2886  -4.2869
    -4.1474  -3.4497  -2.5936  -2.0015  -1.9947  -1.9917  -1.9884  -1.9816
    -1.9560  -1.9531  -1.9525  -1.9518  -1.9507  -1.9480  -1.6682  -0.6850
    -0.6841  -0.6834  -0.6116  -0.5277  -0.5255  -0.5244  -0.5231  -0.5188
    -0.4678   0.0623   0.0632   0.0646   0.3729   0.3746   0.3780   1.5593
     1.5675   1.5701   1.5727   1.5749   1.5811   1.6255   1.6365   1.6457
     1.6529   1.6547   1.8073   2.4072   2.4080   2.4316   3.0342   3.3285
     3.3304   3.3398   4.1700   4.1792   4.2106   4.5842   4.7613   4.8374
     4.8701   4.8771   4.9637   5.0277   5.2970   5.4444   5.4708   5.4825
     5.4964   5.4983   5.5653   5.5880   5.5906   5.5911   5.5927   5.5933
     5.6274   5.7563   5.7572   5.7602   5.7608   5.7626   5.7634   6.0671
     6.3656   6.4694   6.5346   6.5984   6.6277   6.6882   6.8078   6.8843
     6.9026   6.9534   7.0948   7.1096   7.1168   7.1199   7.1223   7.1240
     7.1257   7.1268   7.1402   7.1471   7.1510   7.1530   7.2770   7.2921
     7.2943   7.2988   7.2997   7.3289   7.8046   7.8082   7.9598   8.0128
     8.0241   8.0651   8.0769   8.0862   8.1086   8.1385   8.1699   8.1810
     8.1866   8.2077   8.2180   8.2299   8.2330   8.2668   8.3263   8.3643
     8.4038   8.4081   8.5217   9.1299   9.3666

     occupation numbers 
     1.0000   1.0000   1.0000   1.0000   1.0000   1.0000   1.0000   1.0000
     1.0000   1.0000   1.0000   1.0000   1.0000   1.0000   1.0000   1.0000
     1.0000   1.0000   1.0000   1.0000   1.0000   1.0000   1.0000   1.0000
     1.0000   1.0000   1.0000   1.0000   1.0000   1.0000   1.0000   1.0000
     1.0000   1.0000   1.0000   1.0000   1.0000   1.0000   1.0000   1.0000
     1.0000   1.0000   1.0000   1.0000   1.0000   1.0000   1.0000   1.0000
     1.0000   1.0000   1.0000   1.0000   1.0000   1.0000   1.0000   1.0000
     1.0000   1.0000   1.0000   1.0000   1.0000   1.0000   1.0000   1.0000
     1.0000   1.0000   1.0000   1.0000   1.0000   1.0000   1.0000   1.0000
     1.0000   1.0000   1.0000   1.0000   1.0000   1.0000   1.0000   1.0000
     1.0000   1.0000   1.0000   1.0000   1.0000   1.0000   1.0000   1.0000
     1.0000   1.0000   1.0000   1.0000   1.0000   1.0000   1.0000   1.0000
     1.0000   1.0000   1.0000   1.0000   1.0000   1.0000   1.0000   1.0000
     1.0000   1.0000   1.0000   1.0000   1.0000   1.0000   1.0000   1.0000
     1.0000   1.0000   1.0000   1.0000   1.0000   1.0000   1.0000   1.0000
     1.0000   1.0000   1.0000   1.0000   1.0000   1.0000   1.0000   1.0000
     1.0000   1.0000   1.0000   1.0000   1.0000   1.0000   1.0000   1.0000
     1.0000   1.0000   1.0000   1.0000   1.0000   1.0000   1.0000   1.0000
     1.0000   1.0000   1.0000   1.0000   1.0000   1.0000   1.0000   1.0000
     1.0000   1.0000   1.0000   1.0000   1.0000   1.0000   1.0000   1.0000
     1.0000   1.0000   1.0000   1.0000   1.0000   1.0000   1.0000   1.0000
     1.0000   1.0000   1.0000   1.0000   1.0000   1.0000   1.0000   1.0000
     1.0000   1.0000   1.0000   1.0000   1.0000   1.0000   1.0000   1.0000
     1.0000   1.0000   1.0000   1.0000   1.0000   1.0000   1.0000   1.0000
     1.0000   1.0000   1.0000   1.0000   1.0000   1.0000   1.0000   1.0000
     1.0000   1.0000   1.0000   1.0000   1.0000   1.0000   1.0000   1.0000
     1.0000   1.0000   1.0000   1.0000   1.0000   1.0000   1.0000   1.0000
     1.0000   1.0000   1.0000   1.0000   1.0000   1.0000   1.0000   1.0000
     1.0000   1.0000   1.0000   1.0000   1.0000   1.0000   1.0000   1.0000
     1.0000   1.0000   1.0000   1.0000   1.0000   1.0000   1.0000   1.0000
     1.0000   1.0000   1.0000   1.0000   1.0000   1.0000   1.0000   1.0000
     1.0000   1.0000   1.0000   1.0000   1.0000   1.0000   1.0000   1.0000
     1.0000   1.0000   1.0000   1.0000   1.0000   1.0000   1.0000   1.0000
     1.0000   1.0000   1.0000   1.0000   1.0000   1.0000   1.0000   1.0000
     1.0000   1.0000   1.0000   1.0000   1.0000   1.0000   1.0000   1.0000
     1.0000   1.0000   1.0000   1.0000   1.0000   1.0000   1.0000   1.0000
     1.0000   1.0000   1.0000   1.0000   1.0000   1.0000   1.0000   1.0000
     1.0000   1.0000   1.0000   1.0000   1.0000   1.0000   1.0000   1.0000
     1.0000   1.0000   1.0000   1.0000   1.0000   1.0000   1.0000   1.0000
     1.0000   1.0000   1.0000   1.0000   1.0000   1.0000   1.0000   1.0000
     1.0000   1.0000   1.0000   1.0000   1.0000   1.0000   1.0000   1.0000
     1.0000   1.0000   1.0000   1.0000   1.0000   1.0000   1.0000   1.0000
     1.0000   1.0000   1.0000   1.0000   1.0000   1.0000   1.0000   1.0000
     1.0000   1.0000   1.0000   1.0000   1.0000   1.0000   1.0000   1.0000
     1.0000   1.0000   1.0000   1.0000   1.0000   1.0000   1.0000   1.0000
     1.0000   1.0000   1.0000   1.0000   1.0000   1.0000   1.0000   1.0000
     1.0000   1.0000   1.0000   1.0000   1.0000   1.0000   1.0000   1.0000
     1.0000   1.0000   1.0000   1.0000   1.0000   1.0000   1.0000   1.0000
     1.0000   1.0000   1.0000   1.0000   1.0000   1.0000   1.0000   1.0000
     1.0000   1.0000   1.0000   1.0000   1.0000   1.0000   1.0000   1.0000
     1.0000   1.0000   1.0000   1.0000   1.0000   1.0000   1.0000   1.0000
     1.0000   1.0000   1.0000   1.0000   1.0000   1.0000   1.0000   1.0000
     1.0000   1.0000   1.0000   1.0000   1.0000   1.0000   1.0000   1.0000
     1.0000   1.0000   1.0000   1.0000   1.0000   1.0000   1.0000   1.0000
     1.0000   1.0000   1.0000   1.0000   1.0000   1.0000   1.0000   1.0000
     1.0000   1.0000   1.0000   1.0000   1.0000   1.0000   1.0000   1.0000
     1.0000   1.0000   1.0000   1.0000   1.0000   1.0000   1.0000   1.0000
     1.0000   1.0000   1.0000   1.0000   1.0000   1.0000   1.0000   1.0000
     1.0000   1.0000   1.0000   1.0000   1.0000   1.0000   1.0000   1.0000
     1.0000   1.0000   1.0000   1.0000   1.0000   1.0000   1.0000   0.5173
     0.4950   0.4880   0.4811   0.4751   0.4588   0.3471   0.3218   0.3012
     0.2856   0.2818   0.0677   0.0000   0.0000   0.0000   0.0000   0.0000
     0.0000   0.0000   0.0000   0.0000   0.0000   0.0000   0.0000   0.0000
     0.0000   0.0000   0.0000   0.0000   0.0000   0.0000   0.0000   0.0000
     0.0000   0.0000   0.0000   0.0000   0.0000   0.0000   0.0000   0.0000
     0.0000   0.0000   0.0000   0.0000   0.0000   0.0000   0.0000   0.0000
     0.0000   0.0000   0.0000   0.0000   0.0000   0.0000   0.0000   0.0000
     0.0000   0.0000   0.0000   0.0000   0.0000   0.0000   0.0000   0.0000
     0.0000   0.0000   0.0000   0.0000   0.0000   0.0000   0.0000   0.0000
     0.0000   0.0000   0.0000   0.0000   0.0000   0.0000   0.0000   0.0000
     0.0000   0.0000   0.0000   0.0000   0.0000   0.0000   0.0000   0.0000
     0.0000   0.0000   0.0000   0.0000   0.0000   0.0000   0.0000   0.0000
     0.0000   0.0000   0.0000   0.0000   0.0000

          k = 0.0000 0.3849 0.0000 ( 64840 PWs)   bands (ev):

  -124.9659-124.9643-124.9633-124.9630-124.9625-124.9622-124.9613-124.9610
  -124.9606-124.9603-124.9599-124.9594-124.9592-124.9584-124.9578-124.9569
  -124.7755-124.7738-124.7671-124.7624-124.7617-124.7602-124.7597-124.7588
  -124.7585-124.7581-124.7580-124.7575-124.7574-124.7571-124.7560-124.7559
  -124.7557-124.7554-124.7548-124.7545-124.7544-124.7543-124.7540-124.7539
  -124.7536-124.7534-124.7529-124.7527-124.7526-124.7477-124.7451-124.7348
   -79.1310 -79.1308 -79.1296 -79.1272 -79.1265 -79.1259 -79.1252 -79.1230
   -79.1226 -79.1220 -79.1186 -79.1185 -79.1154 -79.1150 -79.1115 -79.1108
   -79.1105 -79.1098 -79.1097 -79.1091 -79.1085 -79.1082 -79.1077 -79.1071
   -79.1068 -79.1067 -79.1060 -79.1058 -79.1058 -79.1055 -79.1052 -79.1049
   -79.1047 -79.1046 -79.1044 -79.1038 -79.1036 -79.1030 -79.1026 -79.1023
   -79.1023 -79.1018 -79.1015 -79.0996 -79.0991 -79.0980 -79.0974 -79.0953
   -78.9334 -78.9310 -78.9303 -78.9287 -78.9265 -78.9244 -78.9229 -78.9225
   -78.9203 -78.9199 -78.9197 -78.9189 -78.9187 -78.9180 -78.9171 -78.9170
   -78.9167 -78.9165 -78.9161 -78.9158 -78.9154 -78.9153 -78.9152 -78.9144
   -78.9144 -78.9143 -78.9140 -78.9134 -78.9132 -78.9130 -78.9128 -78.9126
   -78.9124 -78.9121 -78.9117 -78.9115 -78.9114 -78.9113 -78.9110 -78.9104
   -78.9103 -78.9100 -78.9098 -78.9098 -78.9095 -78.9094 -78.9092 -78.9090
   -78.9088 -78.9088 -78.9083 -78.9081 -78.9080 -78.9079 -78.9079 -78.9072
   -78.9053 -78.9051 -78.9045 -78.9037 -78.9025 -78.9015 -78.9014 -78.9011
   -78.9003 -78.8998 -78.8994 -78.8991 -78.8990 -78.8988 -78.8984 -78.8979
   -78.8963 -78.8962 -78.8960 -78.8958 -78.8956 -78.8943 -78.8939 -78.8938
   -78.8935 -78.8926 -78.8921 -78.8919 -78.8917 -78.8906 -78.8895 -78.8888
   -78.8884 -78.8873 -78.8873 -78.8857 -78.8855 -78.8830 -78.8826 -78.8810
   -20.2208  -8.2396  -7.9779  -7.6402  -7.1161  -7.1144  -7.1058  -6.8723
    -6.7727  -6.7264  -6.7262  -6.7210  -6.6761  -6.6413  -6.6411  -6.6178
    -6.5712  -6.5437  -6.5433  -6.5368  -6.5185  -6.5183  -6.4933  -6.4932
    -6.4853  -6.4794  -6.4495  -6.4489  -6.4269  -6.4269  -6.4166  -6.4162
    -6.4007  -6.4002  -6.3985  -6.3974  -6.3873  -6.3775  -6.3771  -6.3752
    -6.3750  -6.3578  -6.3575  -6.3261  -6.3256  -6.3139  -6.3137  -6.3103
    -6.3098  -6.2917  -6.2729  -6.2726  -6.2189  -6.2187  -6.2058  -6.2056
    -6.1951  -6.1882  -6.1872  -6.1819  -6.1815  -6.1574  -6.1569  -6.1488
    -6.1466  -6.1330  -6.1328  -6.1205  -6.1127  -6.1117  -6.1113  -6.1102
    -6.0974  -6.0971  -6.0919  -6.0914  -6.0747  -6.0743  -6.0734  -6.0587
    -6.0586  -6.0441  -6.0043  -6.0035  -6.0001  -5.9997  -5.9907  -5.9803
    -5.9790  -5.9751  -5.9746  -5.9662  -5.9578  -5.9532  -5.9529  -5.9356
    -5.9352  -5.9235  -5.9227  -5.8975  -5.8970  -5.8813  -5.8810  -5.8610
    -5.8513  -5.8489  -5.8458  -5.8456  -5.8413  -5.8258  -5.8248  -5.8231
    -5.8195  -5.7940  -5.7938  -5.7669  -5.7665  -5.7608  -5.7549  -5.7547
    -5.7423  -5.7413  -5.7376  -5.7373  -5.7245  -5.7239  -5.7215  -5.7006
    -5.6879  -5.6876  -5.6870  -5.6865  -5.6767  -5.6760  -5.6756  -5.6750
    -5.6699  -5.6696  -5.6677  -5.6532  -5.6529  -5.6500  -5.6494  -5.6442
    -5.6287  -5.6286  -5.6196  -5.6174  -5.6172  -5.5996  -5.5847  -5.5843
    -5.5806  -5.5799  -5.5715  -5.5709  -5.5610  -5.5595  -5.5551  -5.5538
    -5.5350  -5.5334  -5.5319  -5.5239  -5.5208  -5.5192  -5.5154  -5.5128
    -5.5112  -5.5107  -5.4675  -5.4673  -5.4658  -5.4647  -5.4643  -5.4523
    -5.4515  -5.4473  -5.4464  -5.4404  -5.4360  -5.4334  -5.4325  -5.4294
    -5.4289  -5.4279  -5.4268  -5.4257  -5.4253  -5.4221  -5.4163  -5.4058
    -5.4055  -5.3987  -5.3983  -5.3856  -5.3806  -5.3801  -5.3790  -5.3786
    -5.3700  -5.3693  -5.3527  -5.3411  -5.3377  -5.3369  -5.3356  -5.3348
    -5.3329  -5.3315  -5.3302  -5.3299  -5.3191  -5.3145  -5.3136  -5.3116
    -5.3068  -5.3063  -5.2915  -5.2899  -5.2877  -5.2785  -5.2779  -5.2774
    -5.2651  -5.2647  -5.2642  -5.2456  -5.2454  -5.2408  -5.2365  -5.2120
    -5.2100  -5.2064  -5.2057  -5.2037  -5.2032  -5.1880  -5.1822  -5.1767
    -5.1764  -5.0670  -5.0664  -5.0577  -5.0574  -5.0291  -5.0253  -4.9707
    -4.8163  -4.8138  -4.5970  -4.5799  -4.4387  -4.2743  -3.6287  -3.6228
    -3.5531  -3.5220  -3.3084  -3.0058  -2.8706  -2.6017  -2.5316  -2.3186
    -2.2670  -2.2473  -2.0116  -1.8013  -1.7953  -1.3129  -1.3120  -1.2634
    -1.2139  -1.1521  -0.7156  -0.3823  -0.3791  -0.3165  -0.0729  -0.0423
     0.0271   0.0326   0.1411   0.1423   0.4621   0.8002   0.9983   0.9992
     1.1727   1.2215   1.5556   1.5606   1.6022   1.6127   2.5266   2.5278
     2.5472   2.5895   2.8981   2.9073   3.1116   3.1904   3.2015   3.2075
     3.2617   3.6067   3.6102   3.8142   3.8628   3.8936   3.9222   3.9461
     4.2476   4.3050   4.3103   4.4016   4.4912   4.8560   4.8617   5.0486
     5.1891   5.1981   5.2258   5.2272   5.2403   5.4973   5.5825   5.6352
     5.7252   5.8159   5.8261   5.8763   6.1085   6.1946   6.2177   6.2477
     6.3137   6.3510   6.3935   6.4032   6.4291   6.4344   6.4611   6.4861
     6.5982   6.7019   6.7063   6.7222   6.7304   6.8440   6.9147   6.9297
     6.9753   7.0179   7.1892   7.3191   7.4399   7.5044   7.5336   7.5762
     7.6254   7.6840   7.7726   7.7942   7.7957   7.8251   7.9530   7.9621
     7.9661   7.9962   8.1552   8.2244   8.2318   8.2778   8.3427   8.5248
     8.5606   8.6134   8.7679   8.7925   8.8064   8.8155   8.8444   8.8551
     8.8855   8.9007   8.9182   8.9187   8.9559

     occupation numbers 
     1.0000   1.0000   1.0000   1.0000   1.0000   1.0000   1.0000   1.0000
     1.0000   1.0000   1.0000   1.0000   1.0000   1.0000   1.0000   1.0000
     1.0000   1.0000   1.0000   1.0000   1.0000   1.0000   1.0000   1.0000
     1.0000   1.0000   1.0000   1.0000   1.0000   1.0000   1.0000   1.0000
     1.0000   1.0000   1.0000   1.0000   1.0000   1.0000   1.0000   1.0000
     1.0000   1.0000   1.0000   1.0000   1.0000   1.0000   1.0000   1.0000
     1.0000   1.0000   1.0000   1.0000   1.0000   1.0000   1.0000   1.0000
     1.0000   1.0000   1.0000   1.0000   1.0000   1.0000   1.0000   1.0000
     1.0000   1.0000   1.0000   1.0000   1.0000   1.0000   1.0000   1.0000
     1.0000   1.0000   1.0000   1.0000   1.0000   1.0000   1.0000   1.0000
     1.0000   1.0000   1.0000   1.0000   1.0000   1.0000   1.0000   1.0000
     1.0000   1.0000   1.0000   1.0000   1.0000   1.0000   1.0000   1.0000
     1.0000   1.0000   1.0000   1.0000   1.0000   1.0000   1.0000   1.0000
     1.0000   1.0000   1.0000   1.0000   1.0000   1.0000   1.0000   1.0000
     1.0000   1.0000   1.0000   1.0000   1.0000   1.0000   1.0000   1.0000
     1.0000   1.0000   1.0000   1.0000   1.0000   1.0000   1.0000   1.0000
     1.0000   1.0000   1.0000   1.0000   1.0000   1.0000   1.0000   1.0000
     1.0000   1.0000   1.0000   1.0000   1.0000   1.0000   1.0000   1.0000
     1.0000   1.0000   1.0000   1.0000   1.0000   1.0000   1.0000   1.0000
     1.0000   1.0000   1.0000   1.0000   1.0000   1.0000   1.0000   1.0000
     1.0000   1.0000   1.0000   1.0000   1.0000   1.0000   1.0000   1.0000
     1.0000   1.0000   1.0000   1.0000   1.0000   1.0000   1.0000   1.0000
     1.0000   1.0000   1.0000   1.0000   1.0000   1.0000   1.0000   1.0000
     1.0000   1.0000   1.0000   1.0000   1.0000   1.0000   1.0000   1.0000
     1.0000   1.0000   1.0000   1.0000   1.0000   1.0000   1.0000   1.0000
     1.0000   1.0000   1.0000   1.0000   1.0000   1.0000   1.0000   1.0000
     1.0000   1.0000   1.0000   1.0000   1.0000   1.0000   1.0000   1.0000
     1.0000   1.0000   1.0000   1.0000   1.0000   1.0000   1.0000   1.0000
     1.0000   1.0000   1.0000   1.0000   1.0000   1.0000   1.0000   1.0000
     1.0000   1.0000   1.0000   1.0000   1.0000   1.0000   1.0000   1.0000
     1.0000   1.0000   1.0000   1.0000   1.0000   1.0000   1.0000   1.0000
     1.0000   1.0000   1.0000   1.0000   1.0000   1.0000   1.0000   1.0000
     1.0000   1.0000   1.0000   1.0000   1.0000   1.0000   1.0000   1.0000
     1.0000   1.0000   1.0000   1.0000   1.0000   1.0000   1.0000   1.0000
     1.0000   1.0000   1.0000   1.0000   1.0000   1.0000   1.0000   1.0000
     1.0000   1.0000   1.0000   1.0000   1.0000   1.0000   1.0000   1.0000
     1.0000   1.0000   1.0000   1.0000   1.0000   1.0000   1.0000   1.0000
     1.0000   1.0000   1.0000   1.0000   1.0000   1.0000   1.0000   1.0000
     1.0000   1.0000   1.0000   1.0000   1.0000   1.0000   1.0000   1.0000
     1.0000   1.0000   1.0000   1.0000   1.0000   1.0000   1.0000   1.0000
     1.0000   1.0000   1.0000   1.0000   1.0000   1.0000   1.0000   1.0000
     1.0000   1.0000   1.0000   1.0000   1.0000   1.0000   1.0000   1.0000
     1.0000   1.0000   1.0000   1.0000   1.0000   1.0000   1.0000   1.0000
     1.0000   1.0000   1.0000   1.0000   1.0000   1.0000   1.0000   1.0000
     1.0000   1.0000   1.0000   1.0000   1.0000   1.0000   1.0000   1.0000
     1.0000   1.0000   1.0000   1.0000   1.0000   1.0000   1.0000   1.0000
     1.0000   1.0000   1.0000   1.0000   1.0000   1.0000   1.0000   1.0000
     1.0000   1.0000   1.0000   1.0000   1.0000   1.0000   1.0000   1.0000
     1.0000   1.0000   1.0000   1.0000   1.0000   1.0000   1.0000   1.0000
     1.0000   1.0000   1.0000   1.0000   1.0000   1.0000   1.0000   1.0000
     1.0000   1.0000   1.0000   1.0000   1.0000   1.0000   1.0000   1.0000
     1.0000   1.0000   1.0000   1.0000   1.0000   1.0000   1.0000   1.0000
     1.0000   1.0000   1.0000   1.0000   1.0000   1.0000   1.0000   1.0000
     1.0000   1.0000   1.0000   1.0000   1.0000   1.0000   1.0000   1.0000
     1.0000   1.0000   1.0000   1.0000   1.0000   1.0000   1.0000   1.0000
     1.0000   1.0000   1.0000   1.0000   1.0000   1.0000   1.0000   1.0000
     1.0000   1.0000   1.0000   1.0000   1.0000   1.0000   1.0000   1.0000
     1.0000   1.0000   1.0000   1.0000   1.0000   1.0000   1.0000   1.0000
     1.0000   1.0000   1.0000   1.0000   1.0000   1.0000   1.0000   1.0000
     1.0000   1.0000   1.0000   1.0000   1.0000   1.0018   1.0240   1.0242
     1.0775   1.0833   0.5273   0.5138   0.4042   0.3780   0.0000   0.0000
     0.0000   0.0000   0.0000   0.0000   0.0000   0.0000   0.0000   0.0000
     0.0000   0.0000   0.0000   0.0000   0.0000   0.0000   0.0000   0.0000
     0.0000   0.0000   0.0000   0.0000   0.0000   0.0000   0.0000   0.0000
     0.0000   0.0000   0.0000   0.0000   0.0000   0.0000   0.0000   0.0000
     0.0000   0.0000   0.0000   0.0000   0.0000   0.0000   0.0000   0.0000
     0.0000   0.0000   0.0000   0.0000   0.0000   0.0000   0.0000   0.0000
     0.0000   0.0000   0.0000   0.0000   0.0000   0.0000   0.0000   0.0000
     0.0000   0.0000   0.0000   0.0000   0.0000   0.0000   0.0000   0.0000
     0.0000   0.0000   0.0000   0.0000   0.0000   0.0000   0.0000   0.0000
     0.0000   0.0000   0.0000   0.0000   0.0000   0.0000   0.0000   0.0000
     0.0000   0.0000   0.0000   0.0000   0.0000   0.0000   0.0000   0.0000
     0.0000   0.0000   0.0000   0.0000   0.0000

          k = 0.3333 0.1925 0.0000 ( 64840 PWs)   bands (ev):

  -124.9659-124.9643-124.9634-124.9628-124.9625-124.9622-124.9613-124.9612
  -124.9605-124.9603-124.9598-124.9594-124.9593-124.9584-124.9578-124.9569
  -124.7755-124.7738-124.7671-124.7624-124.7617-124.7602-124.7596-124.7588
  -124.7586-124.7581-124.7579-124.7575-124.7574-124.7570-124.7560-124.7560
  -124.7556-124.7553-124.7548-124.7547-124.7544-124.7543-124.7539-124.7538
  -124.7537-124.7534-124.7530-124.7527-124.7526-124.7477-124.7451-124.7348
   -79.1310 -79.1305 -79.1297 -79.1273 -79.1272 -79.1258 -79.1250 -79.1229
   -79.1225 -79.1220 -79.1186 -79.1182 -79.1157 -79.1149 -79.1115 -79.1107
   -79.1103 -79.1099 -79.1096 -79.1091 -79.1087 -79.1081 -79.1077 -79.1073
   -79.1071 -79.1068 -79.1062 -79.1060 -79.1059 -79.1055 -79.1052 -79.1048
   -79.1045 -79.1044 -79.1040 -79.1039 -79.1036 -79.1030 -79.1028 -79.1023
   -79.1022 -79.1015 -79.1014 -79.1001 -79.0992 -79.0976 -79.0971 -79.0957
   -78.9334 -78.9309 -78.9302 -78.9284 -78.9267 -78.9245 -78.9232 -78.9225
   -78.9215 -78.9199 -78.9198 -78.9189 -78.9187 -78.9179 -78.9171 -78.9167
   -78.9166 -78.9165 -78.9159 -78.9156 -78.9153 -78.9151 -78.9145 -78.9143
   -78.9143 -78.9141 -78.9139 -78.9133 -78.9132 -78.9130 -78.9128 -78.9126
   -78.9121 -78.9120 -78.9116 -78.9116 -78.9115 -78.9112 -78.9109 -78.9106
   -78.9103 -78.9102 -78.9098 -78.9098 -78.9094 -78.9094 -78.9092 -78.9092
   -78.9091 -78.9088 -78.9084 -78.9081 -78.9080 -78.9080 -78.9079 -78.9071
   -78.9061 -78.9050 -78.9045 -78.9037 -78.9029 -78.9021 -78.9011 -78.9010
   -78.9009 -78.8998 -78.8997 -78.8992 -78.8989 -78.8988 -78.8982 -78.8971
   -78.8963 -78.8963 -78.8958 -78.8957 -78.8956 -78.8945 -78.8940 -78.8937
   -78.8931 -78.8928 -78.8921 -78.8918 -78.8917 -78.8903 -78.8895 -78.8889
   -78.8886 -78.8873 -78.8872 -78.8858 -78.8856 -78.8833 -78.8822 -78.8810
   -20.2208  -8.2397  -7.9779  -7.6401  -7.1164  -7.1147  -7.1053  -6.8723
    -6.7726  -6.7264  -6.7263  -6.7210  -6.6760  -6.6413  -6.6410  -6.6178
    -6.5713  -6.5436  -6.5432  -6.5368  -6.5185  -6.5184  -6.4933  -6.4932
    -6.4854  -6.4794  -6.4496  -6.4487  -6.4269  -6.4269  -6.4166  -6.4163
    -6.4005  -6.3999  -6.3988  -6.3976  -6.3873  -6.3775  -6.3771  -6.3752
    -6.3749  -6.3577  -6.3574  -6.3264  -6.3255  -6.3140  -6.3138  -6.3104
    -6.3097  -6.2918  -6.2730  -6.2725  -6.2190  -6.2189  -6.2057  -6.2055
    -6.1950  -6.1881  -6.1875  -6.1818  -6.1813  -6.1575  -6.1569  -6.1485
    -6.1468  -6.1329  -6.1327  -6.1206  -6.1130  -6.1125  -6.1104  -6.1100
    -6.0973  -6.0969  -6.0921  -6.0913  -6.0748  -6.0742  -6.0734  -6.0587
    -6.0586  -6.0441  -6.0045  -6.0032  -6.0002  -5.9997  -5.9907  -5.9799
    -5.9792  -5.9756  -5.9751  -5.9661  -5.9574  -5.9533  -5.9528  -5.9356
    -5.9351  -5.9235  -5.9227  -5.8976  -5.8970  -5.8813  -5.8810  -5.8607
    -5.8508  -5.8493  -5.8458  -5.8455  -5.8414  -5.8258  -5.8250  -5.8231
    -5.8196  -5.7941  -5.7937  -5.7669  -5.7666  -5.7607  -5.7549  -5.7547
    -5.7422  -5.7412  -5.7376  -5.7374  -5.7246  -5.7237  -5.7218  -5.7006
    -5.6879  -5.6878  -5.6868  -5.6866  -5.6768  -5.6759  -5.6754  -5.6750
    -5.6699  -5.6696  -5.6677  -5.6533  -5.6527  -5.6501  -5.6493  -5.6442
    -5.6288  -5.6285  -5.6200  -5.6174  -5.6170  -5.5996  -5.5847  -5.5843
    -5.5806  -5.5798  -5.5715  -5.5708  -5.5610  -5.5601  -5.5548  -5.5538
    -5.5349  -5.5335  -5.5318  -5.5238  -5.5210  -5.5195  -5.5151  -5.5128
    -5.5113  -5.5106  -5.4674  -5.4668  -5.4658  -5.4648  -5.4643  -5.4524
    -5.4517  -5.4474  -5.4465  -5.4401  -5.4360  -5.4335  -5.4329  -5.4294
    -5.4291  -5.4276  -5.4268  -5.4259  -5.4251  -5.4220  -5.4163  -5.4057
    -5.4055  -5.3989  -5.3984  -5.3851  -5.3806  -5.3804  -5.3791  -5.3786
    -5.3701  -5.3693  -5.3527  -5.3412  -5.3380  -5.3367  -5.3356  -5.3347
    -5.3328  -5.3313  -5.3303  -5.3297  -5.3191  -5.3147  -5.3135  -5.3115
    -5.3069  -5.3062  -5.2915  -5.2896  -5.2877  -5.2785  -5.2779  -5.2774
    -5.2652  -5.2647  -5.2642  -5.2457  -5.2453  -5.2407  -5.2365  -5.2118
    -5.2100  -5.2064  -5.2057  -5.2038  -5.2033  -5.1880  -5.1822  -5.1767
    -5.1765  -5.0671  -5.0665  -5.0577  -5.0574  -5.0291  -5.0253  -4.9702
    -4.8161  -4.8140  -4.5986  -4.5819  -4.4380  -4.2708  -3.6288  -3.6226
    -3.5552  -3.5206  -3.3080  -3.0050  -2.8734  -2.5997  -2.5325  -2.3166
    -2.2682  -2.2467  -2.0139  -1.8012  -1.7945  -1.3131  -1.3117  -1.2626
    -1.2144  -1.1528  -0.7159  -0.3820  -0.3784  -0.3173  -0.0725  -0.0422
     0.0273   0.0328   0.1412   0.1419   0.4623   0.7999   0.9977   0.9999
     1.1729   1.2209   1.5556   1.5602   1.6026   1.6128   2.5261   2.5276
     2.5468   2.5899   2.8975   2.9084   3.1116   3.1935   3.2001   3.2073
     3.2617   3.6063   3.6108   3.8122   3.8638   3.8946   3.9230   3.9454
     4.2480   4.3034   4.3110   4.3894   4.5000   4.8541   4.8637   5.0531
     5.1878   5.1982   5.2261   5.2271   5.2403   5.4977   5.5809   5.6413
     5.7140   5.8204   5.8266   5.8692   6.1084   6.1968   6.2156   6.2470
     6.3123   6.3459   6.3965   6.4045   6.4287   6.4381   6.4686   6.4927
     6.6010   6.7008   6.7080   6.7232   6.7317   6.8333   6.9198   6.9284
     6.9725   7.0176   7.1887   7.3064   7.4311   7.5104   7.5429   7.5904
     7.6223   7.6757   7.7697   7.7939   7.7958   7.8336   7.9508   7.9554
     7.9666   7.9951   8.1741   8.2236   8.2318   8.2764   8.3428   8.5293
     8.5587   8.5974   8.7636   8.7876   8.8091   8.8196   8.8468   8.8547
     8.8836   8.9021   8.9176   8.9216   8.9577

     occupation numbers 
     1.0000   1.0000   1.0000   1.0000   1.0000   1.0000   1.0000   1.0000
     1.0000   1.0000   1.0000   1.0000   1.0000   1.0000   1.0000   1.0000
     1.0000   1.0000   1.0000   1.0000   1.0000   1.0000   1.0000   1.0000
     1.0000   1.0000   1.0000   1.0000   1.0000   1.0000   1.0000   1.0000
     1.0000   1.0000   1.0000   1.0000   1.0000   1.0000   1.0000   1.0000
     1.0000   1.0000   1.0000   1.0000   1.0000   1.0000   1.0000   1.0000
     1.0000   1.0000   1.0000   1.0000   1.0000   1.0000   1.0000   1.0000
     1.0000   1.0000   1.0000   1.0000   1.0000   1.0000   1.0000   1.0000
     1.0000   1.0000   1.0000   1.0000   1.0000   1.0000   1.0000   1.0000
     1.0000   1.0000   1.0000   1.0000   1.0000   1.0000   1.0000   1.0000
     1.0000   1.0000   1.0000   1.0000   1.0000   1.0000   1.0000   1.0000
     1.0000   1.0000   1.0000   1.0000   1.0000   1.0000   1.0000   1.0000
     1.0000   1.0000   1.0000   1.0000   1.0000   1.0000   1.0000   1.0000
     1.0000   1.0000   1.0000   1.0000   1.0000   1.0000   1.0000   1.0000
     1.0000   1.0000   1.0000   1.0000   1.0000   1.0000   1.0000   1.0000
     1.0000   1.0000   1.0000   1.0000   1.0000   1.0000   1.0000   1.0000
     1.0000   1.0000   1.0000   1.0000   1.0000   1.0000   1.0000   1.0000
     1.0000   1.0000   1.0000   1.0000   1.0000   1.0000   1.0000   1.0000
     1.0000   1.0000   1.0000   1.0000   1.0000   1.0000   1.0000   1.0000
     1.0000   1.0000   1.0000   1.0000   1.0000   1.0000   1.0000   1.0000
     1.0000   1.0000   1.0000   1.0000   1.0000   1.0000   1.0000   1.0000
     1.0000   1.0000   1.0000   1.0000   1.0000   1.0000   1.0000   1.0000
     1.0000   1.0000   1.0000   1.0000   1.0000   1.0000   1.0000   1.0000
     1.0000   1.0000   1.0000   1.0000   1.0000   1.0000   1.0000   1.0000
     1.0000   1.0000   1.0000   1.0000   1.0000   1.0000   1.0000   1.0000
     1.0000   1.0000   1.0000   1.0000   1.0000   1.0000   1.0000   1.0000
     1.0000   1.0000   1.0000   1.0000   1.0000   1.0000   1.0000   1.0000
     1.0000   1.0000   1.0000   1.0000   1.0000   1.0000   1.0000   1.0000
     1.0000   1.0000   1.0000   1.0000   1.0000   1.0000   1.0000   1.0000
     1.0000   1.0000   1.0000   1.0000   1.0000   1.0000   1.0000   1.0000
     1.0000   1.0000   1.0000   1.0000   1.0000   1.0000   1.0000   1.0000
     1.0000   1.0000   1.0000   1.0000   1.0000   1.0000   1.0000   1.0000
     1.0000   1.0000   1.0000   1.0000   1.0000   1.0000   1.0000   1.0000
     1.0000   1.0000   1.0000   1.0000   1.0000   1.0000   1.0000   1.0000
     1.0000   1.0000   1.0000   1.0000   1.0000   1.0000   1.0000   1.0000
     1.0000   1.0000   1.0000   1.0000   1.0000   1.0000   1.0000   1.0000
     1.0000   1.0000   1.0000   1.0000   1.0000   1.0000   1.0000   1.0000
     1.0000   1.0000   1.0000   1.0000   1.0000   1.0000   1.0000   1.0000
     1.0000   1.0000   1.0000   1.0000   1.0000   1.0000   1.0000   1.0000
     1.0000   1.0000   1.0000   1.0000   1.0000   1.0000   1.0000   1.0000
     1.0000   1.0000   1.0000   1.0000   1.0000   1.0000   1.0000   1.0000
     1.0000   1.0000   1.0000   1.0000   1.0000   1.0000   1.0000   1.0000
     1.0000   1.0000   1.0000   1.0000   1.0000   1.0000   1.0000   1.0000
     1.0000   1.0000   1.0000   1.0000   1.0000   1.0000   1.0000   1.0000
     1.0000   1.0000   1.0000   1.0000   1.0000   1.0000   1.0000   1.0000
     1.0000   1.0000   1.0000   1.0000   1.0000   1.0000   1.0000   1.0000
     1.0000   1.0000   1.0000   1.0000   1.0000   1.0000   1.0000   1.0000
     1.0000   1.0000   1.0000   1.0000   1.0000   1.0000   1.0000   1.0000
     1.0000   1.0000   1.0000   1.0000   1.0000   1.0000   1.0000   1.0000
     1.0000   1.0000   1.0000   1.0000   1.0000   1.0000   1.0000   1.0000
     1.0000   1.0000   1.0000   1.0000   1.0000   1.0000   1.0000   1.0000
     1.0000   1.0000   1.0000   1.0000   1.0000   1.0000   1.0000   1.0000
     1.0000   1.0000   1.0000   1.0000   1.0000   1.0000   1.0000   1.0000
     1.0000   1.0000   1.0000   1.0000   1.0000   1.0000   1.0000   1.0000
     1.0000   1.0000   1.0000   1.0000   1.0000   1.0000   1.0000   1.0000
     1.0000   1.0000   1.0000   1.0000   1.0000   1.0000   1.0000   1.0000
     1.0000   1.0000   1.0000   1.0000   1.0000   1.0000   1.0000   1.0000
     1.0000   1.0000   1.0000   1.0000   1.0000   1.0000   1.0000   1.0000
     1.0000   1.0000   1.0000   1.0000   1.0000   1.0000   1.0000   1.0000
     1.0000   1.0000   1.0000   1.0000   1.0000   1.0018   1.0238   1.0244
     1.0775   1.0833   0.5273   0.5147   0.4030   0.3778   0.0000   0.0000
     0.0000   0.0000   0.0000   0.0000   0.0000   0.0000   0.0000   0.0000
     0.0000   0.0000   0.0000   0.0000   0.0000   0.0000   0.0000   0.0000
     0.0000   0.0000   0.0000   0.0000   0.0000   0.0000   0.0000   0.0000
     0.0000   0.0000   0.0000   0.0000   0.0000   0.0000   0.0000   0.0000
     0.0000   0.0000   0.0000   0.0000   0.0000   0.0000   0.0000   0.0000
     0.0000   0.0000   0.0000   0.0000   0.0000   0.0000   0.0000   0.0000
     0.0000   0.0000   0.0000   0.0000   0.0000   0.0000   0.0000   0.0000
     0.0000   0.0000   0.0000   0.0000   0.0000   0.0000   0.0000   0.0000
     0.0000   0.0000   0.0000   0.0000   0.0000   0.0000   0.0000   0.0000
     0.0000   0.0000   0.0000   0.0000   0.0000   0.0000   0.0000   0.0000
     0.0000   0.0000   0.0000   0.0000   0.0000   0.0000   0.0000   0.0000
     0.0000   0.0000   0.0000   0.0000   0.0000

          k = 0.3333 0.5774 0.0000 ( 64848 PWs)   bands (ev):

  -124.9659-124.9643-124.9634-124.9628-124.9625-124.9622-124.9613-124.9610
  -124.9607-124.9603-124.9598-124.9594-124.9593-124.9584-124.9578-124.9569
  -124.7755-124.7738-124.7671-124.7624-124.7617-124.7602-124.7597-124.7588
  -124.7585-124.7580-124.7580-124.7575-124.7574-124.7571-124.7560-124.7559
  -124.7557-124.7553-124.7548-124.7545-124.7544-124.7543-124.7540-124.7539
  -124.7536-124.7534-124.7530-124.7527-124.7525-124.7477-124.7451-124.7348
   -79.1299 -79.1296 -79.1285 -79.1271 -79.1267 -79.1260 -79.1258 -79.1249
   -79.1248 -79.1209 -79.1208 -79.1167 -79.1164 -79.1163 -79.1116 -79.1112
   -79.1108 -79.1100 -79.1098 -79.1086 -79.1080 -79.1077 -79.1071 -79.1061
   -79.1060 -79.1058 -79.1057 -79.1053 -79.1051 -79.1049 -79.1048 -79.1045
   -79.1044 -79.1040 -79.1039 -79.1036 -79.1035 -79.1030 -79.1029 -79.1026
   -79.1023 -79.1021 -79.1015 -79.1014 -79.1011 -79.0976 -79.0970 -79.0964
   -78.9334 -78.9309 -78.9300 -78.9281 -78.9262 -78.9245 -78.9229 -78.9221
   -78.9215 -78.9187 -78.9184 -78.9183 -78.9181 -78.9180 -78.9178 -78.9175
   -78.9170 -78.9159 -78.9159 -78.9159 -78.9156 -78.9155 -78.9154 -78.9149
   -78.9149 -78.9144 -78.9143 -78.9140 -78.9134 -78.9132 -78.9132 -78.9130
   -78.9128 -78.9122 -78.9116 -78.9115 -78.9115 -78.9112 -78.9109 -78.9107
   -78.9105 -78.9105 -78.9103 -78.9099 -78.9098 -78.9098 -78.9095 -78.9094
   -78.9093 -78.9090 -78.9088 -78.9084 -78.9081 -78.9079 -78.9063 -78.9060
   -78.9059 -78.9059 -78.9051 -78.9037 -78.9027 -78.9020 -78.9013 -78.9011
   -78.9001 -78.9000 -78.8999 -78.8997 -78.8981 -78.8974 -78.8967 -78.8958
   -78.8950 -78.8949 -78.8947 -78.8946 -78.8946 -78.8940 -78.8940 -78.8939
   -78.8926 -78.8926 -78.8924 -78.8923 -78.8918 -78.8916 -78.8914 -78.8905
   -78.8891 -78.8870 -78.8868 -78.8866 -78.8858 -78.8833 -78.8825 -78.8810
   -20.2208  -7.9799  -7.8361  -7.8303  -7.8262  -6.7993  -6.7936  -6.7909
    -6.6859  -6.6830  -6.6809  -6.6710  -6.6704  -6.6697  -6.6686  -6.6680
    -6.6674  -6.5534  -6.5531  -6.5525  -6.4945  -6.4939  -6.4938  -6.4825
    -6.4818  -6.4809  -6.4804  -6.4796  -6.4787  -6.4445  -6.4444  -6.4433
    -6.4426  -6.4414  -6.4411  -6.4371  -6.4369  -6.4359  -6.3382  -6.3372
    -6.3362  -6.3143  -6.3139  -6.3128  -6.3125  -6.3115  -6.3111  -6.2975
    -6.2975  -6.2973  -6.2765  -6.2764  -6.2761  -6.2499  -6.2493  -6.2486
    -6.2353  -6.2343  -6.2341  -6.2341  -6.1589  -6.1587  -6.1581  -6.1567
    -6.1562  -6.1552  -6.1548  -6.1321  -6.1309  -6.1299  -6.1253  -6.1208
    -6.1195  -6.1187  -6.0961  -6.0933  -6.0781  -6.0774  -6.0766  -6.0267
    -6.0265  -6.0263  -5.9974  -5.9971  -5.9966  -5.9939  -5.9937  -5.9936
    -5.9921  -5.9916  -5.9902  -5.9475  -5.9465  -5.9462  -5.9259  -5.9248
    -5.9227  -5.9217  -5.9211  -5.9206  -5.9202  -5.9199  -5.9190  -5.8719
    -5.8710  -5.8699  -5.8563  -5.8553  -5.8534  -5.8469  -5.8460  -5.8457
    -5.8339  -5.8083  -5.8072  -5.8061  -5.7973  -5.7964  -5.7946  -5.7563
    -5.7525  -5.7512  -5.7477  -5.7116  -5.7061  -5.7051  -5.7043  -5.7039
    -5.7035  -5.7031  -5.7028  -5.7023  -5.7017  -5.7013  -5.7005  -5.7000
    -5.6898  -5.6887  -5.6881  -5.6713  -5.6699  -5.6689  -5.6356  -5.6341
    -5.6332  -5.6148  -5.6146  -5.6137  -5.5695  -5.5568  -5.5558  -5.5531
    -5.5457  -5.5449  -5.5436  -5.5420  -5.5412  -5.5403  -5.4995  -5.4982
    -5.4966  -5.4959  -5.4949  -5.4943  -5.4662  -5.4647  -5.4634  -5.4631
    -5.4615  -5.4603  -5.4560  -5.4550  -5.4535  -5.4411  -5.4405  -5.4389
    -5.4386  -5.4374  -5.4373  -5.4358  -5.4345  -5.4340  -5.4336  -5.4329
    -5.4321  -5.4313  -5.4306  -5.4302  -5.4118  -5.4087  -5.4078  -5.3826
    -5.3791  -5.3594  -5.3588  -5.3577  -5.3573  -5.3561  -5.3553  -5.3550
    -5.3540  -5.3533  -5.3414  -5.3410  -5.3405  -5.3402  -5.3399  -5.3396
    -5.3374  -5.3369  -5.3366  -5.3213  -5.3129  -5.3077  -5.3069  -5.3059
    -5.3050  -5.3048  -5.3045  -5.3039  -5.3036  -5.2854  -5.2842  -5.2838
    -5.2834  -5.2832  -5.2819  -5.2670  -5.2662  -5.2652  -5.2183  -5.2170
    -5.2164  -5.1572  -5.1561  -5.1542  -5.1537  -5.1526  -5.1522  -5.1422
    -5.1413  -5.1406  -5.1400  -5.1395  -5.1386  -5.0768  -5.0614  -5.0588
    -4.8413  -4.8409  -4.8388  -4.3068  -3.7092  -3.6756  -3.6604  -3.3650
    -3.3516  -3.3498  -3.3488  -3.3479  -3.3435  -3.1143  -2.9602  -2.9516
    -2.3479  -1.9249  -1.9215  -1.9196  -1.9174  -1.9109  -1.8164  -1.4307
    -1.4244  -1.3157   0.1691   0.1745   0.1993   0.2069   0.2082   0.2092
     0.2245   0.2285   0.2329   0.2355   0.2406   0.3739   0.7254   0.7275
     0.7284   1.3096   1.3142   1.3145   2.2796   2.3263   2.3354   2.3957
     2.5328   2.5905   2.8464   2.8476   2.8620   3.4604   3.5462   3.6599
     3.7063   3.9782   3.9850   3.9907   4.0030   4.1931   4.2106   4.2266
     4.2361   4.2379   4.3174   4.5408   4.5426   4.5444   4.5456   4.5473
     4.5533   4.5813   4.6772   4.6876   4.7237   5.1220   5.3965   5.4718
     5.5405   5.6378   5.7205   5.7776   5.8930   5.9129   5.9259   6.0318
     6.0438   6.0497   6.0522   6.0555   6.0833   6.2620   6.5036   6.6222
     6.7232   6.8443   6.8682   6.8999   6.9628   7.0276   7.0311   7.0344
     7.0443   7.0607   7.1427   7.2810   7.3043   7.3271   7.3767   7.4100
     7.5086   7.7321   7.7375   7.7535   8.0163   8.0178   8.0193   8.2675
     8.3423   8.4019   8.4254   8.4325   8.4393   8.4833   8.5215   8.6073
     8.6555   8.7118   8.7852   8.8211   8.8337   8.8449   8.8536   8.8663
     8.8781   8.8854   8.9237   8.9555   9.0043

     occupation numbers 
     1.0000   1.0000   1.0000   1.0000   1.0000   1.0000   1.0000   1.0000
     1.0000   1.0000   1.0000   1.0000   1.0000   1.0000   1.0000   1.0000
     1.0000   1.0000   1.0000   1.0000   1.0000   1.0000   1.0000   1.0000
     1.0000   1.0000   1.0000   1.0000   1.0000   1.0000   1.0000   1.0000
     1.0000   1.0000   1.0000   1.0000   1.0000   1.0000   1.0000   1.0000
     1.0000   1.0000   1.0000   1.0000   1.0000   1.0000   1.0000   1.0000
     1.0000   1.0000   1.0000   1.0000   1.0000   1.0000   1.0000   1.0000
     1.0000   1.0000   1.0000   1.0000   1.0000   1.0000   1.0000   1.0000
     1.0000   1.0000   1.0000   1.0000   1.0000   1.0000   1.0000   1.0000
     1.0000   1.0000   1.0000   1.0000   1.0000   1.0000   1.0000   1.0000
     1.0000   1.0000   1.0000   1.0000   1.0000   1.0000   1.0000   1.0000
     1.0000   1.0000   1.0000   1.0000   1.0000   1.0000   1.0000   1.0000
     1.0000   1.0000   1.0000   1.0000   1.0000   1.0000   1.0000   1.0000
     1.0000   1.0000   1.0000   1.0000   1.0000   1.0000   1.0000   1.0000
     1.0000   1.0000   1.0000   1.0000   1.0000   1.0000   1.0000   1.0000
     1.0000   1.0000   1.0000   1.0000   1.0000   1.0000   1.0000   1.0000
     1.0000   1.0000   1.0000   1.0000   1.0000   1.0000   1.0000   1.0000
     1.0000   1.0000   1.0000   1.0000   1.0000   1.0000   1.0000   1.0000
     1.0000   1.0000   1.0000   1.0000   1.0000   1.0000   1.0000   1.0000
     1.0000   1.0000   1.0000   1.0000   1.0000   1.0000   1.0000   1.0000
     1.0000   1.0000   1.0000   1.0000   1.0000   1.0000   1.0000   1.0000
     1.0000   1.0000   1.0000   1.0000   1.0000   1.0000   1.0000   1.0000
     1.0000   1.0000   1.0000   1.0000   1.0000   1.0000   1.0000   1.0000
     1.0000   1.0000   1.0000   1.0000   1.0000   1.0000   1.0000   1.0000
     1.0000   1.0000   1.0000   1.0000   1.0000   1.0000   1.0000   1.0000
     1.0000   1.0000   1.0000   1.0000   1.0000   1.0000   1.0000   1.0000
     1.0000   1.0000   1.0000   1.0000   1.0000   1.0000   1.0000   1.0000
     1.0000   1.0000   1.0000   1.0000   1.0000   1.0000   1.0000   1.0000
     1.0000   1.0000   1.0000   1.0000   1.0000   1.0000   1.0000   1.0000
     1.0000   1.0000   1.0000   1.0000   1.0000   1.0000   1.0000   1.0000
     1.0000   1.0000   1.0000   1.0000   1.0000   1.0000   1.0000   1.0000
     1.0000   1.0000   1.0000   1.0000   1.0000   1.0000   1.0000   1.0000
     1.0000   1.0000   1.0000   1.0000   1.0000   1.0000   1.0000   1.0000
     1.0000   1.0000   1.0000   1.0000   1.0000   1.0000   1.0000   1.0000
     1.0000   1.0000   1.0000   1.0000   1.0000   1.0000   1.0000   1.0000
     1.0000   1.0000   1.0000   1.0000   1.0000   1.0000   1.0000   1.0000
     1.0000   1.0000   1.0000   1.0000   1.0000   1.0000   1.0000   1.0000
     1.0000   1.0000   1.0000   1.0000   1.0000   1.0000   1.0000   1.0000
     1.0000   1.0000   1.0000   1.0000   1.0000   1.0000   1.0000   1.0000
     1.0000   1.0000   1.0000   1.0000   1.0000   1.0000   1.0000   1.0000
     1.0000   1.0000   1.0000   1.0000   1.0000   1.0000   1.0000   1.0000
     1.0000   1.0000   1.0000   1.0000   1.0000   1.0000   1.0000   1.0000
     1.0000   1.0000   1.0000   1.0000   1.0000   1.0000   1.0000   1.0000
     1.0000   1.0000   1.0000   1.0000   1.0000   1.0000   1.0000   1.0000
     1.0000   1.0000   1.0000   1.0000   1.0000   1.0000   1.0000   1.0000
     1.0000   1.0000   1.0000   1.0000   1.0000   1.0000   1.0000   1.0000
     1.0000   1.0000   1.0000   1.0000   1.0000   1.0000   1.0000   1.0000
     1.0000   1.0000   1.0000   1.0000   1.0000   1.0000   1.0000   1.0000
     1.0000   1.0000   1.0000   1.0000   1.0000   1.0000   1.0000   1.0000
     1.0000   1.0000   1.0000   1.0000   1.0000   1.0000   1.0000   1.0000
     1.0000   1.0000   1.0000   1.0000   1.0000   1.0000   1.0000   1.0000
     1.0000   1.0000   1.0000   1.0000   1.0000   1.0000   1.0000   1.0000
     1.0000   1.0000   1.0000   1.0000   1.0000   1.0000   1.0000   1.0000
     1.0000   1.0000   1.0000   1.0000   1.0000   1.0000   1.0000   1.0000
     1.0000   1.0000   1.0000   1.0000   1.0000   1.0000   1.0000   1.0000
     1.0000   1.0000   1.0000   1.0000   1.0000   1.0000   1.0000   1.0000
     1.0000   1.0000   1.0000   1.0000   1.0000   1.0000   1.0000   1.0000
     1.0000   1.0000   1.0000   1.0000   1.0000   1.0000   1.0000   1.0000
     1.0000   1.0000   1.0000   1.0000   1.0000   1.0000   1.0000   1.0000
     1.0000   1.0000   1.0000   1.0000   1.0000   1.0000   1.0005   1.0005
     1.0005   1.0482   1.0442   1.0439   0.0000   0.0000   0.0000   0.0000
     0.0000   0.0000   0.0000   0.0000   0.0000   0.0000   0.0000   0.0000
     0.0000   0.0000   0.0000   0.0000   0.0000   0.0000   0.0000   0.0000
     0.0000   0.0000   0.0000   0.0000   0.0000   0.0000   0.0000   0.0000
     0.0000   0.0000   0.0000   0.0000   0.0000   0.0000   0.0000   0.0000
     0.0000   0.0000   0.0000   0.0000   0.0000   0.0000   0.0000   0.0000
     0.0000   0.0000   0.0000   0.0000   0.0000   0.0000   0.0000   0.0000
     0.0000   0.0000   0.0000   0.0000   0.0000   0.0000   0.0000   0.0000
     0.0000   0.0000   0.0000   0.0000   0.0000   0.0000   0.0000   0.0000
     0.0000   0.0000   0.0000   0.0000   0.0000   0.0000   0.0000   0.0000
     0.0000   0.0000   0.0000   0.0000   0.0000   0.0000   0.0000   0.0000
     0.0000   0.0000   0.0000   0.0000   0.0000   0.0000   0.0000   0.0000
     0.0000   0.0000   0.0000   0.0000   0.0000

          k = 0.3333-0.1925 0.0000 ( 64840 PWs)   bands (ev):

  -124.9659-124.9643-124.9634-124.9629-124.9625-124.9622-124.9613-124.9611
  -124.9606-124.9603-124.9598-124.9594-124.9593-124.9584-124.9578-124.9569
  -124.7755-124.7738-124.7671-124.7624-124.7617-124.7602-124.7597-124.7588
  -124.7585-124.7581-124.7580-124.7575-124.7574-124.7570-124.7560-124.7560
  -124.7557-124.7552-124.7549-124.7546-124.7544-124.7542-124.7540-124.7539
  -124.7536-124.7533-124.7531-124.7527-124.7525-124.7477-124.7451-124.7348
   -79.1310 -79.1305 -79.1297 -79.1273 -79.1272 -79.1259 -79.1249 -79.1228
   -79.1224 -79.1221 -79.1185 -79.1182 -79.1157 -79.1149 -79.1115 -79.1107
   -79.1104 -79.1099 -79.1094 -79.1091 -79.1086 -79.1081 -79.1077 -79.1073
   -79.1071 -79.1068 -79.1063 -79.1060 -79.1058 -79.1056 -79.1053 -79.1049
   -79.1045 -79.1043 -79.1040 -79.1039 -79.1036 -79.1030 -79.1028 -79.1023
   -79.1022 -79.1015 -79.1014 -79.1001 -79.0992 -79.0976 -79.0970 -79.0957
   -78.9334 -78.9312 -78.9305 -78.9282 -78.9266 -78.9245 -78.9224 -78.9215
   -78.9199 -78.9199 -78.9197 -78.9196 -78.9188 -78.9188 -78.9179 -78.9171
   -78.9166 -78.9166 -78.9165 -78.9159 -78.9154 -78.9153 -78.9147 -78.9144
   -78.9143 -78.9143 -78.9140 -78.9134 -78.9133 -78.9130 -78.9127 -78.9126
   -78.9125 -78.9121 -78.9118 -78.9116 -78.9115 -78.9113 -78.9109 -78.9108
   -78.9105 -78.9100 -78.9098 -78.9097 -78.9095 -78.9094 -78.9091 -78.9090
   -78.9087 -78.9085 -78.9082 -78.9081 -78.9080 -78.9079 -78.9079 -78.9067
   -78.9052 -78.9047 -78.9043 -78.9036 -78.9034 -78.9026 -78.9011 -78.9009
   -78.9004 -78.8999 -78.8990 -78.8989 -78.8988 -78.8987 -78.8980 -78.8974
   -78.8965 -78.8964 -78.8963 -78.8958 -78.8956 -78.8954 -78.8938 -78.8938
   -78.8933 -78.8922 -78.8921 -78.8919 -78.8917 -78.8901 -78.8897 -78.8892
   -78.8887 -78.8873 -78.8873 -78.8857 -78.8855 -78.8831 -78.8822 -78.8810
   -20.2208  -8.2394  -7.9778  -7.6410  -7.1164  -7.1136  -7.1058  -6.8724
    -6.7727  -6.7264  -6.7262  -6.7210  -6.6765  -6.6414  -6.6410  -6.6179
    -6.5713  -6.5435  -6.5433  -6.5368  -6.5185  -6.5183  -6.4934  -6.4931
    -6.4854  -6.4793  -6.4496  -6.4485  -6.4270  -6.4269  -6.4165  -6.4163
    -6.4007  -6.3999  -6.3984  -6.3972  -6.3873  -6.3774  -6.3771  -6.3753
    -6.3750  -6.3578  -6.3574  -6.3265  -6.3254  -6.3140  -6.3136  -6.3106
    -6.3096  -6.2917  -6.2731  -6.2724  -6.2190  -6.2188  -6.2058  -6.2056
    -6.1957  -6.1878  -6.1870  -6.1820  -6.1814  -6.1575  -6.1568  -6.1488
    -6.1468  -6.1330  -6.1328  -6.1206  -6.1128  -6.1117  -6.1110  -6.1098
    -6.0976  -6.0970  -6.0921  -6.0912  -6.0748  -6.0744  -6.0734  -6.0588
    -6.0585  -6.0441  -6.0039  -6.0038  -6.0001  -5.9999  -5.9908  -5.9809
    -5.9784  -5.9742  -5.9739  -5.9661  -5.9586  -5.9534  -5.9527  -5.9358
    -5.9350  -5.9237  -5.9228  -5.8973  -5.8973  -5.8812  -5.8810  -5.8618
    -5.8519  -5.8485  -5.8457  -5.8455  -5.8413  -5.8259  -5.8246  -5.8232
    -5.8194  -5.7942  -5.7939  -5.7667  -5.7666  -5.7608  -5.7549  -5.7547
    -5.7423  -5.7414  -5.7375  -5.7374  -5.7243  -5.7241  -5.7216  -5.7005
    -5.6879  -5.6873  -5.6872  -5.6861  -5.6765  -5.6763  -5.6761  -5.6750
    -5.6698  -5.6696  -5.6678  -5.6532  -5.6529  -5.6501  -5.6491  -5.6442
    -5.6287  -5.6286  -5.6199  -5.6175  -5.6170  -5.5996  -5.5853  -5.5843
    -5.5805  -5.5798  -5.5716  -5.5706  -5.5604  -5.5598  -5.5555  -5.5534
    -5.5354  -5.5326  -5.5324  -5.5238  -5.5206  -5.5179  -5.5160  -5.5128
    -5.5111  -5.5106  -5.4676  -5.4673  -5.4657  -5.4645  -5.4644  -5.4519
    -5.4513  -5.4486  -5.4465  -5.4406  -5.4360  -5.4332  -5.4327  -5.4290
    -5.4285  -5.4282  -5.4269  -5.4255  -5.4253  -5.4219  -5.4163  -5.4060
    -5.4054  -5.3992  -5.3982  -5.3862  -5.3807  -5.3791  -5.3787  -5.3785
    -5.3699  -5.3695  -5.3527  -5.3412  -5.3374  -5.3371  -5.3351  -5.3348
    -5.3329  -5.3318  -5.3305  -5.3299  -5.3190  -5.3145  -5.3134  -5.3116
    -5.3067  -5.3064  -5.2917  -5.2902  -5.2876  -5.2788  -5.2780  -5.2772
    -5.2650  -5.2647  -5.2640  -5.2456  -5.2453  -5.2411  -5.2364  -5.2122
    -5.2100  -5.2065  -5.2056  -5.2035  -5.2030  -5.1881  -5.1822  -5.1766
    -5.1764  -5.0667  -5.0666  -5.0576  -5.0575  -5.0291  -5.0253  -4.9730
    -4.8170  -4.8128  -4.5917  -4.5701  -4.4468  -4.2828  -3.6283  -3.6238
    -3.5455  -3.5292  -3.3095  -3.0060  -2.8641  -2.6008  -2.5298  -2.3247
    -2.2646  -2.2494  -2.0107  -1.8020  -1.7952  -1.3131  -1.3121  -1.2665
    -1.2104  -1.1519  -0.7137  -0.3828  -0.3819  -0.3134  -0.0749  -0.0413
     0.0252   0.0336   0.1412   0.1423   0.4630   0.8016   0.9976   0.9991
     1.1683   1.2246   1.5555   1.5613   1.6001   1.6138   2.5261   2.5280
     2.5454   2.5924   2.8979   2.9067   3.1112   3.1782   3.2024   3.2115
     3.2663   3.6068   3.6106   3.8327   3.8462   3.8957   3.9209   3.9450
     4.2489   4.3070   4.3110   4.4376   4.4577   4.8572   4.8612   5.0329
     5.1853   5.2036   5.2260   5.2269   5.2448   5.4965   5.5693   5.6276
     5.7642   5.8138   5.8257   5.8860   6.1099   6.1946   6.2341   6.2616
     6.2996   6.3229   6.3914   6.4047   6.4133   6.4412   6.4509   6.4835
     6.5916   6.7031   6.7078   6.7186   6.7311   6.8459   6.9055   6.9257
     6.9793   7.0182   7.1895   7.3686   7.3908   7.5058   7.5338   7.5660
     7.6517   7.6962   7.7822   7.7940   7.7977   7.7997   7.9593   7.9608
     7.9656   7.9988   8.1780   8.2245   8.2276   8.2881   8.3900   8.5193
     8.5365   8.5654   8.7624   8.7909   8.7997   8.8297   8.8335   8.8706
     8.8880   8.8998   8.9145   8.9215   8.9513

     occupation numbers 
     1.0000   1.0000   1.0000   1.0000   1.0000   1.0000   1.0000   1.0000
     1.0000   1.0000   1.0000   1.0000   1.0000   1.0000   1.0000   1.0000
     1.0000   1.0000   1.0000   1.0000   1.0000   1.0000   1.0000   1.0000
     1.0000   1.0000   1.0000   1.0000   1.0000   1.0000   1.0000   1.0000
     1.0000   1.0000   1.0000   1.0000   1.0000   1.0000   1.0000   1.0000
     1.0000   1.0000   1.0000   1.0000   1.0000   1.0000   1.0000   1.0000
     1.0000   1.0000   1.0000   1.0000   1.0000   1.0000   1.0000   1.0000
     1.0000   1.0000   1.0000   1.0000   1.0000   1.0000   1.0000   1.0000
     1.0000   1.0000   1.0000   1.0000   1.0000   1.0000   1.0000   1.0000
     1.0000   1.0000   1.0000   1.0000   1.0000   1.0000   1.0000   1.0000
     1.0000   1.0000   1.0000   1.0000   1.0000   1.0000   1.0000   1.0000
     1.0000   1.0000   1.0000   1.0000   1.0000   1.0000   1.0000   1.0000
     1.0000   1.0000   1.0000   1.0000   1.0000   1.0000   1.0000   1.0000
     1.0000   1.0000   1.0000   1.0000   1.0000   1.0000   1.0000   1.0000
     1.0000   1.0000   1.0000   1.0000   1.0000   1.0000   1.0000   1.0000
     1.0000   1.0000   1.0000   1.0000   1.0000   1.0000   1.0000   1.0000
     1.0000   1.0000   1.0000   1.0000   1.0000   1.0000   1.0000   1.0000
     1.0000   1.0000   1.0000   1.0000   1.0000   1.0000   1.0000   1.0000
[...]
     atom    4 type  1   force =     0.00008111    0.00001248    0.00006719
     atom    5 type  1   force =    -0.00000000    0.00000000    0.00000000
     atom    6 type  1   force =     0.00000000    0.00000000   -0.00000000
     atom    7 type  1   force =    -0.00002269    0.00002277   -0.00002517
     atom    8 type  1   force =     0.00004212    0.00008376    0.00012574
     atom    9 type  1   force =     0.00000000   -0.00000000    0.00000000
     atom   10 type  1   force =    -0.00000000    0.00000000    0.00000000
     atom   11 type  1   force =     0.00000956   -0.00006008   -0.00002642
     atom   12 type  1   force =    -0.00002349    0.00004238   -0.00000167
     atom   13 type  1   force =    -0.00000000   -0.00000000    0.00000000
     atom   14 type  1   force =     0.00000000   -0.00000000    0.00000000
     atom   15 type  1   force =    -0.00004355   -0.00005642    0.00000919
     atom   16 type  1   force =     0.00005003   -0.00002695    0.00001427
     atom   17 type  1   force =    -0.00000000   -0.00000000   -0.00000000
     atom   18 type  1   force =     0.00000000    0.00000000    0.00000000
     atom   19 type  1   force =    -0.00007352    0.00000209    0.00006004
     atom   20 type  1   force =     0.00005843    0.00004018   -0.00000896
     atom   21 type  1   force =    -0.00000000    0.00000000    0.00000000
     atom   22 type  1   force =     0.00000000    0.00000000    0.00000000
     atom   23 type  1   force =    -0.00010933    0.00004553   -0.00001196
     atom   24 type  1   force =     0.00010443    0.00005009    0.00002747
     atom   25 type  1   force =    -0.00000000   -0.00000000    0.00000000
     atom   26 type  1   force =     0.00000000    0.00000000    0.00000000
     atom   27 type  1   force =    -0.00003458   -0.00005497   -0.00000056
     atom   28 type  1   force =     0.00004013    0.00003516    0.00002596
     atom   29 type  1   force =    -0.00000000   -0.00000000   -0.00000000
     atom   30 type  1   force =     0.00000000    0.00000000    0.00000000
     atom   31 type  1   force =    -0.00000687   -0.00010029    0.00003769
     atom   32 type  1   force =     0.00000205    0.00001414   -0.00001043
     atom   33 type  1   force =    -0.00011843   -0.00003671    0.00000204
     atom   34 type  1   force =     0.00011157    0.00001542    0.00000620
     atom   35 type  1   force =    -0.00013147    0.00005402   -0.00000285
     atom   36 type  1   force =     0.00012744    0.00009058   -0.00000673
     atom   37 type  1   force =    -0.00004866   -0.00005662   -0.00000178
     atom   38 type  1   force =     0.00003684    0.00009411    0.00000473
     atom   39 type  1   force =    -0.00004588   -0.00014097    0.00000341
     atom   40 type  1   force =     0.00003223    0.00000433    0.00001219
     atom   41 type  1   force =     0.00001513   -0.00004571    0.00000704
     atom   42 type  1   force =    -0.00002422    0.00002984   -0.00000272
     atom   43 type  1   force =    -0.00006958    0.00007930    0.00001096
     atom   44 type  1   force =     0.00005652    0.00006871    0.00000779
     atom   45 type  1   force =    -0.00006822    0.00002683    0.00001208
     atom   46 type  1   force =     0.00006244    0.00000581    0.00001423
     atom   47 type  1   force =     0.00001314   -0.00010044   -0.00000686
     atom   48 type  1   force =    -0.00001329   -0.00003397    0.00001605
     atom   49 type  2   force =     0.00000410    0.00003933    0.00001189
     atom   50 type  3   force =    -0.00000024    0.00000088   -0.00000105
     atom   51 type  3   force =     0.00000096    0.00000241    0.00000078

     DFT-D3 dispersion contribution to forces:
     atom    1 type  1   force =    -0.00000671    0.00000130    0.00272221
     atom    2 type  1   force =     0.00001068   -0.00002161    0.00266898
     atom    3 type  1   force =     0.00010266    0.00006333   -0.00256471
     atom    4 type  1   force =    -0.00019728    0.00031404   -0.00249224
     atom    5 type  1   force =    -0.00000501    0.00000901    0.00270958
     atom    6 type  1   force =    -0.00000474   -0.00000206    0.00265005
     atom    7 type  1   force =     0.00003800   -0.00000801   -0.00262134
     atom    8 type  1   force =     0.00002289   -0.00013341   -0.00161707
     atom    9 type  1   force =    -0.00000148    0.00000223    0.00271797
     atom   10 type  1   force =    -0.00002184    0.00002053    0.00267770
     atom   11 type  1   force =    -0.00007192   -0.00003358   -0.00260908
     atom   12 type  1   force =     0.00025911   -0.00047138   -0.00210745
     atom   13 type  1   force =     0.00000645   -0.00000569    0.00271501
     atom   14 type  1   force =    -0.00001263   -0.00000313    0.00271420
     atom   15 type  1   force =    -0.00002523   -0.00001777   -0.00262107
     atom   16 type  1   force =     0.00003657   -0.00005060   -0.00261026
     atom   17 type  1   force =    -0.00002329   -0.00001939    0.00266533
     atom   18 type  1   force =     0.00000149   -0.00000216    0.00271365
     atom   19 type  1   force =     0.00013631    0.00044655   -0.00234879
     atom   20 type  1   force =    -0.00004560    0.00002041   -0.00265083
     atom   21 type  1   force =    -0.00002523    0.00000679    0.00268269
     atom   22 type  1   force =     0.00001744    0.00000153    0.00267363
     atom   23 type  1   force =     0.00050203    0.00008687   -0.00219434
     atom   24 type  1   force =    -0.00040685    0.00007894   -0.00241674
     atom   25 type  1   force =     0.00000009   -0.00000462    0.00273074
     atom   26 type  1   force =     0.00000746    0.00002532    0.00265767
     atom   27 type  1   force =     0.00014682   -0.00008388   -0.00249111
     atom   28 type  1   force =    -0.00033193   -0.00034706   -0.00229492
     atom   29 type  1   force =    -0.00000444   -0.00000522    0.00271063
     atom   30 type  1   force =    -0.00000754   -0.00000460    0.00272773
     atom   31 type  1   force =     0.00000079    0.00004764   -0.00264434
     atom   32 type  1   force =    -0.00000039   -0.00018179   -0.00249282
     atom   33 type  1   force =    -0.00002074   -0.00004560    0.00000129
     atom   34 type  1   force =     0.00002591   -0.00002340    0.00001403
     atom   35 type  1   force =    -0.00002240   -0.00000011    0.00005455
     atom   36 type  1   force =     0.00007102   -0.00004611   -0.00032871
     atom   37 type  1   force =    -0.00001494    0.00004495   -0.00005738
     atom   38 type  1   force =     0.00001729    0.00010621   -0.00017651
     atom   39 type  1   force =     0.00004127   -0.00000941   -0.00004489
     atom   40 type  1   force =    -0.00001842    0.00002841    0.00003551
     atom   41 type  1   force =    -0.00000171    0.00004594    0.00014455
     atom   42 type  1   force =     0.00000870   -0.00000253   -0.00004407
     atom   43 type  1   force =    -0.00007522   -0.00005685   -0.00023873
     atom   44 type  1   force =     0.00003712   -0.00000503    0.00001688
     atom   45 type  1   force =     0.00003616   -0.00001587    0.00017116
     atom   46 type  1   force =    -0.00004050   -0.00001363    0.00015339
     atom   47 type  1   force =    -0.00004315    0.00000044   -0.00005495
     atom   48 type  1   force =     0.00003368    0.00004600    0.00002003
     atom   49 type  2   force =    -0.00000995    0.00003158   -0.00119113
     atom   50 type  3   force =     0.00000332    0.00021277   -0.00137328
     atom   51 type  3   force =    -0.00012411   -0.00002628   -0.00146239

     Total force =     0.001567     Total SCF correction =     0.000529

     DFT-D3 dispersion Force =     0.014787
     SCF correction compared to forces is large: reduce conv_thr to get better values


     Computing stress (Cartesian axis) and pressure


     negative rho (up, down):  5.638E-03 0.000E+00
          total   stress  (Ry/bohr**3)                   (kbar)     P=       -8.79
  -0.00008846   0.00000024  -0.00000070          -13.01        0.04       -0.10
   0.00000024  -0.00008838   0.00000020            0.04      -13.00        0.03
  -0.00000070   0.00000020  -0.00000249           -0.10        0.03       -0.37

     kinetic stress (kbar)  12571.84     -5.85      3.07
                               -5.85  12569.83     -0.44
                                3.07     -0.44  12667.81

     local   stress (kbar)**********    -17.20     51.89
                              -17.20**********    -50.14
                               51.89    -50.141238805.62

     nonloc. stress (kbar)  -1286.11      0.03      0.09
                                0.03  -1286.16      0.03
                                0.09      0.03  -1328.94

     hartree stress (kbar) 639187.10      3.73    -20.30
                                3.73 639186.49     21.26
                              -20.30     21.26-583263.48

     exc-cor stress (kbar)  -6304.39      0.07     -0.04
                                0.07  -6304.37      0.01
                               -0.04      0.01  -6313.68

     corecor stress (kbar)     -4.11      0.01     -0.01
                                0.01     -4.11      0.00
                               -0.01      0.00     -4.15

     ewald   stress (kbar) 580715.90     19.24    -34.81
                               19.24 580719.86     29.30
                              -34.81     29.30-660559.41

     hubbard stress (kbar)      0.00      0.00      0.00
                                0.00      0.00      0.00
                                0.00      0.00      0.00

     DFT-D   stress (kbar)    -10.26     -0.00     -0.00
                               -0.00    -10.25      0.01
                               -0.00      0.01     -4.13

     XDM     stress (kbar)      0.00      0.00      0.00
                                0.00      0.00      0.00
                                0.00      0.00      0.00

     dft-nl  stress (kbar)      0.00      0.00      0.00
                                0.00      0.00      0.00
                                0.00      0.00      0.00

     TS-vdW  stress (kbar)      0.00      0.00      0.00
                                0.00      0.00      0.00
                                0.00      0.00      0.00

     MDB     stress (kbar)      0.00      0.00      0.00
                                0.00      0.00      0.00
                                0.00      0.00      0.00

     3D-RISM stress (kbar)      0.00      0.00      0.00
                                0.00      0.00      0.00
                                0.00      0.00      0.00

     Energy error            =      6.0E-06 Ry
     Gradient error          =      4.9E-04 Ry/Bohr

     bfgs converged in  40 scf cycles and  39 bfgs steps
     (criteria: energy <  1.0E-05 Ry, force <  5.0E-04 Ry/Bohr)

     End of BFGS Geometry Optimization

     Final energy             =  -22199.1088874439 Ry

     File ./tmp/Zn002_3layer_H2O_relax.bfgs deleted, as requested
Begin final coordinates

ATOMIC_POSITIONS (angstrom)
Zn               0.0000000000        1.5094010000        1.2182900000    0   0   0
Zn               5.2287200000        1.5094010000        1.2182900000    0   0   0
Zn               0.0075036383        1.5067951176        6.1586864631
Zn               5.2318949636        1.5148688368        6.1424062686
Zn              -1.3071800000        3.7735030000        1.2182900000    0   0   0
Zn               3.9215400000        3.7735030000        1.2182900000    0   0   0
Zn              -1.3016252462        3.7708573389        6.1553674123
Zn               3.9323899395        3.7638878802        6.4633565027
Zn              -2.6143600000        6.0376050000        1.2182900000    0   0   0
Zn               2.6143600000        6.0376050000        1.2182900000    0   0   0
Zn              -2.6076856131        6.0352391644        6.1543632528
Zn               2.6241167666        6.0319913511        6.1074632336
Zn              -3.9215400000        8.3017080000        1.2182900000    0   0   0
Zn               1.3071800000        8.3017080000        1.2182900000    0   0   0
Zn              -3.9144680299        8.2991961769        6.1551158382
Zn               1.3135062338        8.2992922187        6.1559861849
Zn               2.6143600000        1.5094010000        1.2182900000    0   0   0
Zn               7.8430800000        1.5094010000        1.2182900000    0   0   0
Zn               2.6243834575        1.5140055024        6.1345415449
Zn               7.8482689405        1.5072747373        6.1549100666
Zn               1.3071800000        3.7735030000        1.2182900000    0   0   0
Zn               6.5359000000        3.7735030000        1.2182900000    0   0   0
Zn               1.3193316576        3.7716877449        6.1101038681
Zn               6.5341240580        3.7720391762        6.1424770568
Zn               0.0000000000        6.0376050000        1.2182900000    0   0   0
Zn               5.2287200000        6.0376050000        1.2182900000    0   0   0
Zn               0.0063585033        6.0351101690        6.1605537464
Zn               5.2319856509        6.0294944118        6.1202367203
Zn              -1.3071800000        8.3017080000        1.2182900000    0   0   0
Zn               3.9215400000        8.3017080000        1.2182900000    0   0   0
Zn              -1.2999997132        8.3000402272        6.1539296330
Zn               3.9287360317        8.2991660371        6.1618376920
Zn               1.3124146954        0.7566157350        3.6881833632
Zn               6.5398679892        0.7570306829        3.6872677459
Zn               0.0057883854        3.0167958959        3.6892514337
Zn               5.2285353198        3.0214213029        3.6854563217
Zn              -1.3023517587        5.2849426400        3.6819880003
Zn               3.9270759593        5.2755458326        3.6960718188
Zn              -2.6080292643        7.5465442454        3.6817899625
Zn               2.6212885509        7.5477049367        3.6873135992
Zn               3.9265137649        0.7569428180        3.6918901230
Zn               9.1555727558        0.7546053670        3.6810999752
Zn               2.6255595373        3.0209127969        3.6898684977
Zn               7.8456213612        3.0181286456        3.6882413739
Zn               1.3122779121        5.2830096208        3.6837092420
Zn               6.5392234403        5.2818476734        3.6904228095
Zn               0.0032888654        7.5465594037        3.6827430617
Zn               5.2321049678        7.5470273925        3.6900147947
O                3.7829416667        3.9945320299        8.9180088483
H                3.8371926765        4.9686367919        8.9361929752
H                2.8349119282        3.8029029795        9.0417607180
End final coordinates



     Writing all to output data dir ./tmp/Zn002_3layer_H2O_relax.save/ :
     XML data file, charge density, pseudopotentials, collected wavefunctions

     init_run     :     57.84s CPU     58.55s WALL (       1 calls)
     electrons    :  84316.84s CPU  85055.32s WALL (      40 calls)
     update_pot   :      5.06s CPU      5.27s WALL (      39 calls)
     forces       :   2141.68s CPU   2161.86s WALL (      40 calls)
     force_dftd3  :      3.67s CPU      4.08s WALL (      40 calls)
     stress       :   5278.15s CPU   5318.07s WALL (      40 calls)
     stres_dftd3  :      3.71s CPU      4.07s WALL (      40 calls)

     Called by init_run:
     wfcinit      :     56.46s CPU     57.06s WALL (       1 calls)
     wfcinit:atom :      0.03s CPU      0.07s WALL (       5 calls)
     wfcinit:wfcr :     55.93s CPU     56.32s WALL (       5 calls)
     potinit      :      0.11s CPU      0.12s WALL (       1 calls)
     hinit0       :      0.06s CPU      0.07s WALL (       1 calls)

     Called by electrons:
     c_bands      :  79090.55s CPU  79752.70s WALL (     330 calls)
     sum_band     :   4795.33s CPU   4846.32s WALL (     330 calls)
     v_of_rho     :     22.55s CPU     23.56s WALL (     330 calls)
     v_h          :      1.50s CPU      1.63s WALL (     330 calls)
     v_xc         :     26.15s CPU     27.36s WALL (     410 calls)
     newd         :    441.36s CPU    464.99s WALL (     330 calls)
     PAW_pot      :     12.60s CPU     12.67s WALL (     369 calls)
     mix_rho      :      2.54s CPU      2.88s WALL (     330 calls)
     energy_dftd3 :      2.03s CPU      2.03s WALL (      40 calls)

     Called by c_bands:
     init_us_2    :     75.84s CPU     76.82s WALL (    3900 calls)
     cegterg      :  78940.94s CPU  79595.39s WALL (    1650 calls)

     Called by sum_band:
     sum_band:wei :      0.77s CPU      0.80s WALL (     330 calls)
     sum_band:loo :   4510.83s CPU   4537.66s WALL (     330 calls)
     sum_band:buf :     12.21s CPU     15.28s WALL (    1650 calls)
     sum_band:ini :     32.86s CPU     33.06s WALL (    1650 calls)
     sum_band:cal :   4314.12s CPU   4335.03s WALL (    1845 calls)
     sum_band:bec :     38.30s CPU     38.41s WALL (    1845 calls)
     addusdens    :    265.84s CPU    289.36s WALL (     330 calls)
                                        0.00s GPU  (     330 calls)
     addusd:skk   :      2.51s CPU      3.61s WALL (     990 calls)
                                        0.00s GPU  (     990 calls)

     Called by *egterg:
     cdiaghg      :   3178.18s CPU   3306.99s WALL (    5757 calls)
     cegterg:over :  13828.77s CPU  13880.90s WALL (    4502 calls)
     cegterg:upda :   4254.27s CPU   4296.02s WALL (    4502 calls)
     cegterg:last :  28243.19s CPU  28372.27s WALL (    3398 calls)
     cdiaghg:chol :    233.03s CPU    233.67s WALL (    5757 calls)
     cdiaghg:inve :     34.10s CPU     34.20s WALL (    5757 calls)
     cdiaghg:para :    866.53s CPU    883.68s WALL (   11514 calls)
     h_psi        :  18957.35s CPU  19101.25s WALL (    6157 calls)
     s_psi        :   7919.16s CPU   7939.23s WALL (    6157 calls)
     g_psi        :     13.43s CPU     13.57s WALL (    4502 calls)

     Called by h_psi:
     h_psi:calbec :   8580.71s CPU   8625.07s WALL (    6157 calls)
     vloc_psi     :   2396.69s CPU   2416.48s WALL (    6157 calls)
     add_vuspsi   :   7964.64s CPU   7986.34s WALL (    6157 calls)

     General routines
     calbec       :  15276.56s CPU  15353.52s WALL (    9002 calls)
     fft          :     28.92s CPU     30.86s WALL (    5289 calls)
     ffts         :      0.68s CPU      0.76s WALL (     660 calls)
     fftw         :   2591.62s CPU   2612.29s WALL ( 5216532 calls)
     interpolate  :      1.38s CPU      1.51s WALL (     330 calls)

     Parallel routines

     PAW routines
     PAW_pot      :     12.60s CPU     12.67s WALL (     369 calls)

     PWSCF        :   1d 1h38m CPU   1d 1h52m WALL


   This run was terminated on:   4:34: 3  30Mar2025            

=------------------------------------------------------------------------------=
   JOB DONE.
=------------------------------------------------------------------------------=
Note: The following floating-point exceptions are signalling: IEEE_DENORMAL
Note: The following floating-point exceptions are signalling: IEEE_DENORMAL
Note: The following floating-point exceptions are signalling: IEEE_DENORMAL
Note: The following floating-point exceptions are signalling: IEEE_DENORMAL
Note: The following floating-point exceptions are signalling: IEEE_DENORMAL
Note: The following floating-point exceptions are signalling: IEEE_DENORMAL
Note: The following floating-point exceptions are signalling: IEEE_DENORMAL
Note: The following floating-point exceptions are signalling: IEEE_DENORMAL
Note: The following floating-point exceptions are signalling: IEEE_DENORMAL
Note: The following floating-point exceptions are signalling: IEEE_DENORMAL
Note: The following floating-point exceptions are signalling: IEEE_DENORMAL
Note: The following floating-point exceptions are signalling: IEEE_DENORMAL
