
     Program PWSCF v.7.3.1 starts on  5Apr2025 at 15:13: 7 

     This program is part of the open-source Quantum ESPRESSO suite
     for quantum simulation of materials; please cite
         "P. Giannozzi et al., J. Phys.:Condens. Matter 21 395502 (2009);
         "P. Giannozzi et al., J. Phys.:Condens. Matter 29 465901 (2017);
         "P. Giannozzi et al., J. Chem. Phys. 152 154105 (2020);
          URL http://www.quantum-espresso.org", 
     in publications or presentations arising from this work. More details at
     http://www.quantum-espresso.org/quote

     Parallel version (MPI), running on    29 processors

     MPI processes distributed on     1 nodes
     186345 MiB available memory on the printing compute node when the environment starts

     Waiting for input...
     Reading input from standard input
Warning: card &CELL ignored
Warning: card   CELL_DOFREE = 'ALL' ignored
Warning: card / ignored

     Current dimensions of program PWSCF are:
     Max number of different atomic species (ntypx) = 10
     Max number of k-points (npk) =  40000
     Max angular momentum in pseudopotentials (lmaxx) =  4
     file C.pbe-n-kjpaw_psl.1.0.0.UPF: wavefunction(s)  2S 2P renormalized

     R & G space division:  proc/nbgrp/npool/nimage =      29
     Subspace diagonalization in iterative solution of the eigenvalue problem:
     one sub-group per band group will be used
     custom distributed-memory algorithm (size of sub-group:  5*  5 procs)


     Parallelization info
     --------------------
     sticks:   dense  smooth     PW     G-vecs:    dense   smooth      PW
     Min         308     176     48                45962    19855    2880
     Max         309     177     49                45970    19862    2886
     Sum        8941    5109   1411              1332973   575857   83601

     Using Slab Decomposition



     bravais-lattice index     =            0
     lattice parameter (alat)  =      20.9009  a.u.
     unit-cell volume          =   16846.7507 (a.u.)^3
     number of atoms/cell      =           63
     number of atomic types    =            4
     number of electrons       =      1004.00
     number of Kohn-Sham states=          602
     kinetic-energy cutoff     =      40.0000  Ry
     charge density cutoff     =     280.0000  Ry
     scf convergence threshold =      1.0E-06
     mixing beta               =       0.4000
     number of iterations used =            8  plain     mixing
     energy convergence thresh.=      1.0E-05
     force convergence thresh. =      5.0E-04
     Exchange-correlation= PBE
                           (   1   4   3   4   0   0   0)
     nstep                     =          500


     celldm(1)=  20.900943  celldm(2)=   0.000000  celldm(3)=   0.000000
     celldm(4)=   0.000000  celldm(5)=   0.000000  celldm(6)=   0.000000

     crystal axes: (cart. coord. in units of alat)
               a(1) = (   1.000000   0.000000   0.000000 )  
               a(2) = (  -0.223489   0.918700   0.000000 )  
               a(3) = (  -4.200249  -1.021781   2.008375 )  

     reciprocal axes: (cart. coord. in units 2 pi/alat)
               b(1) = (  1.000000  0.243267  2.215131 )  
               b(2) = ( -0.000000  1.088495  0.553783 )  
               b(3) = (  0.000000 -0.000000  0.497915 )  


     PseudoPot. # 1 for Zn read from file:
     /home/yongsang/Research/PSID_server_room/qe/[00]QE/qepseudo/SSSP_1.3.0_PBE_efficiency/Zn_pbe_v1.uspp.F.UPF
     MD5 check sum: df62231357ef9e81f77b2b3087fa5675
     Pseudo is Ultrasoft, Zval = 20.0
     Generated by new atomic code, or converted to UPF format
     Using radial grid of  943 points,  6 beta functions with: 
                l(1) =   0
                l(2) =   0
                l(3) =   1
                l(4) =   1
                l(5) =   2
                l(6) =   2
     Q(r) pseudized with  8 coefficients,  rinner =    1.100   1.100   1.100
                                                       1.100   1.100

     PseudoPot. # 2 for N  read from file:
     /home/yongsang/Research/PSID_server_room/qe/[00]QE/qepseudo/SSSP_1.3.0_PBE_efficiency/N.pbe-n-radius_5.UPF
     MD5 check sum: 16739722b17309cd8fe442a2ace49922
     Pseudo is Ultrasoft + core correction, Zval =  5.0
     Generated using "atomic" code by A. Dal Corso  v.5.1
     Using radial grid of 1085 points,  4 beta functions with: 
                l(1) =   0
                l(2) =   0
                l(3) =   1
                l(4) =   1
     Q(r) pseudized with 0 coefficients 


     PseudoPot. # 3 for C  read from file:
     /home/yongsang/Research/PSID_server_room/qe/[00]QE/qepseudo/SSSP_1.3.0_PBE_efficiency/C.pbe-n-kjpaw_psl.1.0.0.UPF
     MD5 check sum: 5d2aebdfa2cae82b50a7e79e9516da0f
     Pseudo is Projector augmented-wave + core cor, Zval =  4.0
     Generated using "atomic" code by A. Dal Corso  v.5.1
     Shape of augmentation charge: PSQ
     Using radial grid of 1073 points,  4 beta functions with: 
                l(1) =   0
                l(2) =   0
                l(3) =   1
                l(4) =   1
     Q(r) pseudized with 0 coefficients 


     PseudoPot. # 4 for H  read from file:
     /home/yongsang/Research/PSID_server_room/qe/[00]QE/qepseudo/SSSP_1.3.0_PBE_efficiency/H.pbe-rrkjus_psl.1.0.0.UPF
     MD5 check sum: f52b6d4d1c606e5624b1dc7b2218f220
     Pseudo is Ultrasoft, Zval =  1.0
     Generated using "atomic" code by A. Dal Corso  v.5.1
     Using radial grid of  929 points,  2 beta functions with: 
                l(1) =   0
                l(2) =   0
     Q(r) pseudized with 0 coefficients 


     atomic species   valence    mass     pseudopotential
     Zn               20.00    65.38000     Zn( 1.00)
     N                 5.00    14.00674     N ( 1.00)
     C                 4.00    12.01070     C ( 1.00)
     H                 1.00     1.00794     H ( 1.00)

     No symmetry found


                                    s                        frac. trans.

      isym =  1     identity                                     

 cryst.   s( 1) = (     1          0          0      )
                  (     0          1          0      )
                  (     0          0          1      )

 cart.    s( 1) = (  1.0000000  0.0000000  0.0000000 )
                  (  0.0000000  1.0000000  0.0000000 )
                  (  0.0000000  0.0000000  1.0000000 )


   Cartesian axes

     site n.     atom                  positions (alat units)
         1        Zn     tau(   1) = (  -0.0970639   0.0980210   0.1082940  )
         2        Zn     tau(   2) = (  -0.2088085   0.5573710   0.1082940  )
         3        Zn     tau(   3) = (  -0.3755428   0.0313803   0.3994112  )
         4        Zn     tau(   4) = (  -0.4874335   0.4909554   0.3993048  )
         5        Zn     tau(   5) = (  -0.7310165  -0.0569216   0.5258765  )
         6        Zn     tau(   6) = (  -0.8402682   0.4022544   0.5198314  )
         7        Zn     tau(   7) = (  -0.1529361   0.3276960   0.1082940  )
         8        Zn     tau(   8) = (  -0.2646808   0.7870460   0.1082940  )
         9        Zn     tau(   9) = (  -0.4309953   0.2604094   0.3990378  )
        10        Zn     tau(  10) = (  -0.5434552   0.7208798   0.3990255  )
        11        Zn     tau(  11) = (  -0.7874468   0.1725031   0.5229950  )
        12        Zn     tau(  12) = (  -0.8988218   0.6316900   0.5234978  )
        13        Zn     tau(  13) = (   0.4029362   0.0980210   0.1082940  )
        14        Zn     tau(  14) = (   0.2911915   0.5573710   0.1082940  )
        15        Zn     tau(  15) = (   0.0408973   0.0117898   0.3132286  )
        16        Zn     tau(  16) = (  -0.0711541   0.4703837   0.3132041  )
        17        Zn     tau(  17) = (  -0.1795908  -0.0413597   0.5136007  )
        18        Zn     tau(  18) = (  -0.2909523   0.4177831   0.5150482  )
        19        Zn     tau(  19) = (   0.3470638   0.3276960   0.1082940  )
        20        Zn     tau(  20) = (   0.2353192   0.7870460   0.1082940  )
        21        Zn     tau(  21) = (  -0.0144976   0.2412762   0.3139748  )
        22        Zn     tau(  22) = (  -0.1267099   0.7000113   0.3129515  )
        23        Zn     tau(  23) = (  -0.2352224   0.1889857   0.5143626  )
        24        Zn     tau(  24) = (  -0.3471889   0.6474389   0.5140231  )
        25        Zn     tau(  25) = (   0.1529361   0.0372043   0.0773528  )
        26        Zn     tau(  26) = (   0.0411915   0.4965543   0.0773528  )
        27        Zn     tau(  27) = (  -0.1999821  -0.0475518   0.2608211  )
        28        Zn     tau(  28) = (  -0.3102254   0.4119502   0.2615781  )
        29        Zn     tau(  29) = (  -0.5414036  -0.1310145   0.3967984  )
        30        Zn     tau(  30) = (  -0.6514989   0.3283890   0.3944881  )
        31        Zn     tau(  31) = (   0.0970639   0.2668793   0.0773528  )
        32        Zn     tau(  32) = (  -0.0146808   0.7262293   0.0773528  )
        33        Zn     tau(  33) = (  -0.2547119   0.1819625   0.2612391  )
        34        Zn     tau(  34) = (  -0.3672547   0.6409159   0.2611367  )
        35        Zn     tau(  35) = (  -0.5965019   0.0987542   0.3968866  )
        36        Zn     tau(  36) = (  -0.7081454   0.5586817   0.3942567  )
        37        Zn     tau(  37) = (   0.6529362   0.0372043   0.0773528  )
        38        Zn     tau(  38) = (   0.5411915   0.4965543   0.0773528  )
        39        Zn     tau(  39) = (   0.2748146  -0.0538375   0.2643429  )
        40        Zn     tau(  40) = (   0.1628907   0.4052612   0.2630847  )
        41        Zn     tau(  41) = (   0.0444747  -0.1076655   0.5243443  )
        42        Zn     tau(  42) = (  -0.0657421   0.3518185   0.5260707  )
        43        Zn     tau(  43) = (   0.5970639   0.2668793   0.0773528  )
        44        Zn     tau(  44) = (   0.4853193   0.7262293   0.0773528  )
        45        Zn     tau(  45) = (   0.2194359   0.1756938   0.2639111  )
        46        Zn     tau(  46) = (   0.1072650   0.6348911   0.2642678  )
        47        Zn     tau(  47) = (  -0.0115370   0.1219806   0.5276578  )
        48        Zn     tau(  48) = (  -0.1225585   0.5813336   0.5290637  )
        49        C      tau(  49) = (  -0.9712834   0.4370872   1.3152984  )
        50        C      tau(  50) = (  -0.9507921   0.4287984   1.1884011  )
        51        C      tau(  51) = (  -0.9691450   0.5297977   1.1128635  )
        52        C      tau(  52) = (  -0.9119443   0.3193066   1.1360073  )
        53        C      tau(  53) = (  -0.9505962   0.5213739   0.9892224  )
        54        C      tau(  54) = (  -0.8934047   0.3107155   1.0123225  )
        55        C      tau(  55) = (  -0.9135023   0.4113143   0.9362437  )
        56        N      tau(  56) = (  -0.9886091   0.4436982   1.4193005  )
        57        N      tau(  57) = (  -0.8936206   0.4036878   0.8136105  )
        58        H      tau(  58) = (  -0.8899524   0.3205349   0.7749067  )
        59        H      tau(  59) = (  -0.9305587   0.4674594   0.7587154  )
        60        H      tau(  60) = (  -0.8972749   0.2407835   1.1938072  )
        61        H      tau(  61) = (  -0.9991823   0.6149721   1.1523696  )
        62        H      tau(  62) = (  -0.8635319   0.2250727   0.9732132  )
        63        H      tau(  63) = (  -0.9652399   0.6003673   0.9317589  )

     --------------------------------------------
     DFT-D3 Dispersion Correction (3-body terms):
     --------------------------------------------
       Reference C6 values for interpolation: 

         atom   Coordination number   C6
         H          0.912             6.05
         H          0.000            15.18
         C          0.000            98.23
         C          0.987            86.49
         C          1.998            58.72
         C          2.999            51.56
         C          3.984            36.41
         N          0.000            50.54
         N          0.994            44.25
         N          2.014            39.35
         N          2.990            31.16
         Zn         0.000           681.04
         Zn         1.942           306.91

       Values used:

         atom   Coordination number  R0_AB[au]  C6      C8
         Zn         6.214            3.053    306.91  23930.67
         Zn         6.231            3.053    306.91  23930.67
         Zn         7.006            3.053    306.91  23930.67
         Zn         6.988            3.053    306.91  23930.67
         Zn         4.988            3.053    306.91  23930.67
         Zn         5.155            3.053    306.91  23930.67
         Zn         6.218            3.053    306.91  23930.67
         Zn         6.214            3.053    306.91  23930.67
         Zn         6.998            3.053    306.91  23930.67
         Zn         7.006            3.053    306.91  23930.67
         Zn         5.057            3.053    306.91  23930.67
         Zn         5.048            3.053    306.91  23930.67
         Zn         4.991            3.053    306.91  23930.67
         Zn         5.014            3.053    306.91  23930.67
         Zn         7.217            3.053    306.91  23930.67
         Zn         7.224            3.053    306.91  23930.67
         Zn         5.963            3.053    306.91  23930.67
         Zn         5.929            3.053    306.91  23930.67
         Zn         5.018            3.053    306.91  23930.67
         Zn         4.981            3.053    306.91  23930.67
         Zn         7.219            3.053    306.91  23930.67
         Zn         7.210            3.053    306.91  23930.67
         Zn         5.954            3.053    306.91  23930.67
         Zn         5.949            3.053    306.91  23930.67
         Zn         5.603            3.053    306.91  23930.67
         Zn         5.610            3.053    306.91  23930.67
         Zn         7.963            3.053    306.91  23930.67
         Zn         7.947            3.053    306.91  23930.67
         Zn         7.061            3.053    306.91  23930.67
         Zn         7.086            3.053    306.91  23930.67
         Zn         5.606            3.053    306.91  23930.67
         Zn         5.601            3.053    306.91  23930.67
         Zn         7.951            3.053    306.91  23930.67
         Zn         7.957            3.053    306.91  23930.67
         Zn         7.049            3.053    306.91  23930.67
         Zn         7.101            3.053    306.91  23930.67
         Zn         4.874            3.053    306.91  23930.67
         Zn         4.863            3.053    306.91  23930.67
         Zn         8.364            3.053    306.91  23930.67
         Zn         8.478            3.053    306.91  23930.67
         Zn         6.084            3.053    306.91  23930.67
         Zn         6.059            3.053    306.91  23930.67
         Zn         4.852            3.053    306.91  23930.67
         Zn         4.875            3.053    306.91  23930.67
         Zn         8.425            3.053    306.91  23930.67
         Zn         8.413            3.053    306.91  23930.67
         Zn         6.030            3.053    306.91  23930.67
         Zn         5.975            3.053    306.91  23930.67
         C          2.097            2.750     58.61   1695.17
         C          3.146            2.750     50.57   1462.53
         C          3.168            2.750     50.38   1456.97
         C          3.168            2.750     50.38   1457.01
         C          3.163            2.750     50.42   1458.24
         C          3.162            2.750     50.43   1458.58
         C          3.142            2.750     50.60   1463.39
         N          1.022            2.478     44.24    976.02
         N          3.098            2.478     31.24    689.09
         H          1.011            2.062      6.17     74.61
         H          1.013            2.062      6.17     74.58
         H          1.003            2.062      6.18     74.68
         H          1.003            2.062      6.18     74.68
         H          1.003            2.062      6.18     74.69
         H          1.003            2.062      6.18     74.68

         Molecular C6 ( Ry / a.u.^6 ) =    841004.94


   Crystallographic axes

     site n.     atom                  positions (cryst. coord.)
         1        Zn     tau(   1) = (  0.1666667  0.1666667  0.0539212  )
         2        Zn     tau(   2) = (  0.1666668  0.6666667  0.0539212  )
         3        Zn     tau(   3) = (  0.5168393  0.2553444  0.1988728  )
         4        Zn     tau(   4) = (  0.5165123  0.7555304  0.1988199  )
         5        Zn     tau(   5) = (  0.4200220  0.2292625  0.2618418  )
         6        Zn     tau(   6) = (  0.4090818  0.7257255  0.2588318  )
         7        Zn     tau(   7) = (  0.1666668  0.4166667  0.0539212  )
         8        Zn     tau(   8) = (  0.1666667  0.9166667  0.0539212  )
         9        Zn     tau(   9) = (  0.5162749  0.5044345  0.1986869  )
        10        Zn     tau(  10) = (  0.5158048  1.0056472  0.1986808  )
        11        Zn     tau(  11) = (  0.4130200  0.4773943  0.2604070  )
        12        Zn     tau(  12) = (  0.4144638  0.9774952  0.2606574  )
        13        Zn     tau(  13) = (  0.6666668  0.1666667  0.0539212  )
        14        Zn     tau(  14) = (  0.6666667  0.6666667  0.0539212  )
        15        Zn     tau(  15) = (  0.7376078  0.1862937  0.1559612  )
        16        Zn     tau(  16) = (  0.7370629  0.6854572  0.1559490  )
        17        Zn     tau(  17) = (  0.9480408  0.2394034  0.2557295  )
        18        Zn     tau(  18) = (  0.9515800  0.7399795  0.2564502  )
        19        Zn     tau(  19) = (  0.6666668  0.4166667  0.0539212  )
        20        Zn     tau(  20) = (  0.6666668  0.9166667  0.0539212  )
        21        Zn     tau(  21) = (  0.7396923  0.4365017  0.1563328  )
        22        Zn     tau(  22) = (  0.7368082  0.9352657  0.1558232  )
        23        Zn     tau(  23) = (  0.9501322  0.4905551  0.2561088  )
        24        Zn     tau(  24) = (  0.9489402  0.9893908  0.2559398  )
        25        Zn     tau(  25) = (  0.3333333  0.0833333  0.0385151  )
        26        Zn     tau(  26) = (  0.3333333  0.5833333  0.0385151  )
        27        Zn     tau(  27) = (  0.3662030  0.0926784  0.1298667  )
        28        Zn     tau(  28) = (  0.3694184  0.5932631  0.1302437  )
        29        Zn     tau(  29) = (  0.3056855  0.0771315  0.1975719  )
        30        Zn     tau(  30) = (  0.3022302  0.5759104  0.1964215  )
        31        Zn     tau(  31) = (  0.3333333  0.3333333  0.0385151  )
        32        Zn     tau(  32) = (  0.3333333  0.8333333  0.0385151  )
        33        Zn     tau(  33) = (  0.3682324  0.3427349  0.1300748  )
        34        Zn     tau(  34) = (  0.3671109  0.8422465  0.1300239  )
        35        Zn     tau(  35) = (  0.3066777  0.3272824  0.1976158  )
        36        Zn     tau(  36) = (  0.3010937  0.8264547  0.1963063  )
        37        Zn     tau(  37) = (  0.8333333  0.0833333  0.0385151  )
        38        Zn     tau(  38) = (  0.8333333  0.5833333  0.0385151  )
        39        Zn     tau(  39) = (  0.8472718  0.0877867  0.1316203  )
        40        Zn     tau(  40) = (  0.8442445  0.5868164  0.1309938  )
        41        Zn     tau(  41) = (  1.1797748  0.1731795  0.2610789  )
        42        Zn     tau(  42) = (  1.1851593  0.6742814  0.2619385  )
        43        Zn     tau(  43) = (  0.8333333  0.3333333  0.0385151  )
        44        Zn     tau(  44) = (  0.8333333  0.8333333  0.0385151  )
        45        Zn     tau(  45) = (  0.8467741  0.3373912  0.1314053  )
        46        Zn     tau(  46) = (  0.8471009  0.8374225  0.1315829  )
        47        Zn     tau(  47) = (  1.1869681  0.4249831  0.2627287  )
        48        Zn     tau(  48) = (  1.1908063  0.9257648  0.2634287  )
        49        C      tau(  49) = (  2.0486041  1.2041567  0.6549068  )
        50        C      tau(  50) = (  1.7859848  1.1248608  0.5917227  )
        51        C      tau(  51) = (  1.6248759  1.1929666  0.5541114  )
        52        C      tau(  52) = (  1.6821378  0.9766649  0.5656351  )
        53        C      tau(  53) = (  1.3674943  1.1153270  0.4925486  )
        54        C      tau(  54) = (  1.4246094  0.8988189  0.5040506  )
        55        C      tau(  55) = (  1.2604596  0.9661890  0.4661698  )
        56        N      tau(  56) = (  2.2632649  1.2689473  0.7066910  )
        57        N      tau(  57) = (  1.0068373  0.8899755  0.4051089  )
        58        H      tau(  58) = (  0.9045433  0.7780305  0.3858377  )
        59        H      tau(  59) = (  0.8638131  0.9289906  0.3777758  )
        60        H      tau(  60) = (  1.8057395  0.9232015  0.5944145  )
        61        H      tau(  61) = (  1.7030701  1.3075563  0.5737821  )
        62        H      tau(  62) = (  1.3470160  0.7839392  0.4845775  )
        63        H      tau(  63) = (  1.2447779  1.1694886  0.4639367  )

     number of k points=     5  Marzari-Vanderbilt smearing, width (Ry)=  0.0200
                       cart. coord. in units 2pi/alat
        k(    1) = (   0.0000000   0.0000000   0.0000000), wk =   0.2222222
        k(    2) = (   0.0000000   0.3628315   0.1845943), wk =   0.4444444
        k(    3) = (   0.3333333   0.0810890   0.7383771), wk =   0.4444444
        k(    4) = (   0.3333333   0.4439205   0.9229714), wk =   0.4444444
        k(    5) = (   0.3333333  -0.2817426   0.5537829), wk =   0.4444444

                       cryst. coord.
        k(    1) = (   0.0000000   0.0000000   0.0000000), wk =   0.2222222
        k(    2) = (   0.0000000   0.3333333   0.0000000), wk =   0.4444444
        k(    3) = (   0.3333333   0.0000000   0.0000000), wk =   0.4444444
        k(    4) = (   0.3333333   0.3333333   0.0000000), wk =   0.4444444
        k(    5) = (   0.3333333  -0.3333333   0.0000000), wk =   0.4444444

     Dense  grid:  1332973 G-vectors     FFT dimensions: ( 120, 108, 540)

     Smooth grid:   575857 G-vectors     FFT dimensions: (  90,  80, 405)

     Dynamical RAM for                 wfc:      22.79 MB

     Dynamical RAM for     wfc (w. buffer):     136.74 MB

     Dynamical RAM for           str. fact:       2.81 MB

     Dynamical RAM for           local pot:       0.00 MB

     Dynamical RAM for          nlocal pot:      35.89 MB

     Dynamical RAM for                qrad:       5.37 MB

     Dynamical RAM for          rho,v,vnew:       7.74 MB

     Dynamical RAM for               rhoin:       2.58 MB

     Dynamical RAM for            rho*nmix:      11.22 MB

     Dynamical RAM for           G-vectors:       2.78 MB

     Dynamical RAM for          h,s,v(r/c):       2.64 MB

     Dynamical RAM for          <psi|beta>:       8.71 MB

     Dynamical RAM for                 psi:      45.58 MB

     Dynamical RAM for                hpsi:      45.58 MB

     Dynamical RAM for                spsi:      45.58 MB

     Dynamical RAM for      wfcinit/wfcrot:      60.58 MB

     Dynamical RAM for           addusdens:     164.12 MB

     Dynamical RAM for          addusforce:     230.58 MB

     Dynamical RAM for         addusstress:     140.97 MB

     Estimated static dynamical RAM per process >     206.81 MB

     Estimated max dynamical RAM per process >     448.61 MB

     Estimated total dynamical RAM >      12.70 GB

     Initial potential from superposition of free atoms

     starting charge    1003.9929, renormalised to    1004.0000

     negative rho (up, down):  1.916E-03 0.000E+00
     Starting wfcs are  666 randomized atomic wfcs
     Checking if some PAW data can be deallocated... 
       PAW data deallocated on   25 nodes for type:  3

     total cpu time spent up to now is       40.4 secs

     Self-consistent Calculation

     iteration #  1     ecut=    40.00 Ry     beta= 0.40
     Davidson diagonalization with overlap

---- Real-time Memory Report at c_bands before calling an iterative solver
           432 MiB given to the printing process from OS
             0 MiB allocation reported by mallinfo(arena+hblkhd)
        179479 MiB available memory on the node where the printing process lives
------------------
     ethr =  1.00E-02,  avg # of iterations =  7.8

     negative rho (up, down):  2.409E-03 0.000E+00

     total cpu time spent up to now is      190.4 secs

     total energy              =  -22326.29007038 Ry
     estimated scf accuracy    <      10.45021270 Ry

     iteration #  2     ecut=    40.00 Ry     beta= 0.40
     Davidson diagonalization with overlap

---- Real-time Memory Report at c_bands before calling an iterative solver
           589 MiB given to the printing process from OS
             0 MiB allocation reported by mallinfo(arena+hblkhd)
        178459 MiB available memory on the node where the printing process lives
------------------
     ethr =  1.04E-03,  avg # of iterations =  9.8

     negative rho (up, down):  3.705E-03 0.000E+00

     total cpu time spent up to now is      341.6 secs

     total energy              =  -22311.53096663 Ry
     estimated scf accuracy    <     275.19487457 Ry

     iteration #  3     ecut=    40.00 Ry     beta= 0.40
     Davidson diagonalization with overlap

---- Real-time Memory Report at c_bands before calling an iterative solver
           599 MiB given to the printing process from OS
             0 MiB allocation reported by mallinfo(arena+hblkhd)
        178357 MiB available memory on the node where the printing process lives
------------------
     ethr =  1.04E-03,  avg # of iterations =  8.0

     negative rho (up, down):  3.456E-03 0.000E+00

     total cpu time spent up to now is      523.1 secs

     total energy              =  -22330.48479944 Ry
     estimated scf accuracy    <       4.98273117 Ry

     iteration #  4     ecut=    40.00 Ry     beta= 0.40
     Davidson diagonalization with overlap

---- Real-time Memory Report at c_bands before calling an iterative solver
           604 MiB given to the printing process from OS
             0 MiB allocation reported by mallinfo(arena+hblkhd)
        178302 MiB available memory on the node where the printing process lives
------------------
     ethr =  4.96E-04,  avg # of iterations =  4.4

     negative rho (up, down):  3.420E-03 0.000E+00

     total cpu time spent up to now is      646.3 secs

     total energy              =  -22330.65002661 Ry
     estimated scf accuracy    <       6.50139357 Ry

     iteration #  5     ecut=    40.00 Ry     beta= 0.40
     Davidson diagonalization with overlap

---- Real-time Memory Report at c_bands before calling an iterative solver
           608 MiB given to the printing process from OS
             0 MiB allocation reported by mallinfo(arena+hblkhd)
        178286 MiB available memory on the node where the printing process lives
------------------
     ethr =  4.96E-04,  avg # of iterations =  2.6

     negative rho (up, down):  3.405E-03 0.000E+00

     total cpu time spent up to now is      766.0 secs

     total energy              =  -22331.05103458 Ry
     estimated scf accuracy    <       0.38482020 Ry

     iteration #  6     ecut=    40.00 Ry     beta= 0.40
     Davidson diagonalization with overlap

---- Real-time Memory Report at c_bands before calling an iterative solver
           613 MiB given to the printing process from OS
             0 MiB allocation reported by mallinfo(arena+hblkhd)
        178257 MiB available memory on the node where the printing process lives
------------------
     ethr =  3.83E-05,  avg # of iterations =  8.4

     negative rho (up, down):  3.492E-03 0.000E+00

     total cpu time spent up to now is      898.7 secs

     total energy              =  -22331.05427412 Ry
     estimated scf accuracy    <       0.16707824 Ry

     iteration #  7     ecut=    40.00 Ry     beta= 0.40
     Davidson diagonalization with overlap

---- Real-time Memory Report at c_bands before calling an iterative solver
           613 MiB given to the printing process from OS
             0 MiB allocation reported by mallinfo(arena+hblkhd)
        178230 MiB available memory on the node where the printing process lives
------------------
     ethr =  1.66E-05,  avg # of iterations = 12.4

     negative rho (up, down):  3.567E-03 0.000E+00

     total cpu time spent up to now is     1034.0 secs

     total energy              =  -22331.05333525 Ry
     estimated scf accuracy    <       0.08026819 Ry

     iteration #  8     ecut=    40.00 Ry     beta= 0.40
     Davidson diagonalization with overlap

---- Real-time Memory Report at c_bands before calling an iterative solver
           614 MiB given to the printing process from OS
             0 MiB allocation reported by mallinfo(arena+hblkhd)
        178200 MiB available memory on the node where the printing process lives
------------------
     ethr =  7.99E-06,  avg # of iterations =  5.4

     negative rho (up, down):  3.626E-03 0.000E+00

     total cpu time spent up to now is     1159.4 secs

     total energy              =  -22331.05391003 Ry
     estimated scf accuracy    <       0.06119324 Ry

     iteration #  9     ecut=    40.00 Ry     beta= 0.40
     Davidson diagonalization with overlap

---- Real-time Memory Report at c_bands before calling an iterative solver
           615 MiB given to the printing process from OS
             0 MiB allocation reported by mallinfo(arena+hblkhd)
        178166 MiB available memory on the node where the printing process lives
------------------
     c_bands:  1 eigenvalues not converged
     ethr =  6.09E-06,  avg # of iterations = 12.8

     negative rho (up, down):  3.661E-03 0.000E+00

     total cpu time spent up to now is     1291.4 secs

     total energy              =  -22331.05378680 Ry
     estimated scf accuracy    <       0.03136821 Ry

     iteration # 10     ecut=    40.00 Ry     beta= 0.40
     Davidson diagonalization with overlap

---- Real-time Memory Report at c_bands before calling an iterative solver
           617 MiB given to the printing process from OS
             0 MiB allocation reported by mallinfo(arena+hblkhd)
        178139 MiB available memory on the node where the printing process lives
------------------
     ethr =  3.12E-06,  avg # of iterations = 14.0

     negative rho (up, down):  3.696E-03 0.000E+00

     total cpu time spent up to now is     1427.0 secs

     total energy              =  -22331.05035231 Ry
     estimated scf accuracy    <       0.02616401 Ry

     iteration # 11     ecut=    40.00 Ry     beta= 0.40
     Davidson diagonalization with overlap

---- Real-time Memory Report at c_bands before calling an iterative solver
           618 MiB given to the printing process from OS
             0 MiB allocation reported by mallinfo(arena+hblkhd)
        178113 MiB available memory on the node where the printing process lives
------------------
     ethr =  2.61E-06,  avg # of iterations = 14.0

     negative rho (up, down):  3.846E-03 0.000E+00

     total cpu time spent up to now is     1563.9 secs

     total energy              =  -22331.03647524 Ry
     estimated scf accuracy    <       0.02007508 Ry

     iteration # 12     ecut=    40.00 Ry     beta= 0.40
     Davidson diagonalization with overlap

---- Real-time Memory Report at c_bands before calling an iterative solver
           618 MiB given to the printing process from OS
             0 MiB allocation reported by mallinfo(arena+hblkhd)
        178105 MiB available memory on the node where the printing process lives
------------------
     ethr =  2.00E-06,  avg # of iterations = 17.2

     negative rho (up, down):  3.808E-03 0.000E+00

     total cpu time spent up to now is     1736.9 secs

     total energy              =  -22331.03882880 Ry
     estimated scf accuracy    <       0.00329363 Ry

     iteration # 13     ecut=    40.00 Ry     beta= 0.40
     Davidson diagonalization with overlap

---- Real-time Memory Report at c_bands before calling an iterative solver
           618 MiB given to the printing process from OS
             0 MiB allocation reported by mallinfo(arena+hblkhd)
        178101 MiB available memory on the node where the printing process lives
------------------
     c_bands:  1 eigenvalues not converged
     c_bands:  1 eigenvalues not converged
     ethr =  3.28E-07,  avg # of iterations =  9.8

     negative rho (up, down):  3.778E-03 0.000E+00

     total cpu time spent up to now is     1867.6 secs

     total energy              =  -22331.03916081 Ry
     estimated scf accuracy    <       0.00060077 Ry

     iteration # 14     ecut=    40.00 Ry     beta= 0.40
     Davidson diagonalization with overlap

---- Real-time Memory Report at c_bands before calling an iterative solver
           618 MiB given to the printing process from OS
             0 MiB allocation reported by mallinfo(arena+hblkhd)
        178092 MiB available memory on the node where the printing process lives
------------------
     c_bands:  1 eigenvalues not converged
     ethr =  5.98E-08,  avg # of iterations =  7.2

     negative rho (up, down):  3.777E-03 0.000E+00

     total cpu time spent up to now is     1991.6 secs

     total energy              =  -22331.03909534 Ry
     estimated scf accuracy    <       0.00219640 Ry

     iteration # 15     ecut=    40.00 Ry     beta= 0.40
     Davidson diagonalization with overlap

---- Real-time Memory Report at c_bands before calling an iterative solver
           618 MiB given to the printing process from OS
             0 MiB allocation reported by mallinfo(arena+hblkhd)
        178087 MiB available memory on the node where the printing process lives
------------------
     ethr =  5.98E-08,  avg # of iterations =  2.4

     negative rho (up, down):  3.763E-03 0.000E+00

     total cpu time spent up to now is     2109.8 secs

     total energy              =  -22331.03926283 Ry
     estimated scf accuracy    <       0.00021288 Ry

     iteration # 16     ecut=    40.00 Ry     beta= 0.40
     Davidson diagonalization with overlap

---- Real-time Memory Report at c_bands before calling an iterative solver
           618 MiB given to the printing process from OS
             0 MiB allocation reported by mallinfo(arena+hblkhd)
        178086 MiB available memory on the node where the printing process lives
------------------
     ethr =  2.12E-08,  avg # of iterations =  2.0

     negative rho (up, down):  3.758E-03 0.000E+00

     total cpu time spent up to now is     2228.0 secs

     total energy              =  -22331.03927537 Ry
     estimated scf accuracy    <       0.00006163 Ry

     iteration # 17     ecut=    40.00 Ry     beta= 0.40
     Davidson diagonalization with overlap

---- Real-time Memory Report at c_bands before calling an iterative solver
           618 MiB given to the printing process from OS
             0 MiB allocation reported by mallinfo(arena+hblkhd)
        178083 MiB available memory on the node where the printing process lives
------------------
     ethr =  6.14E-09,  avg # of iterations =  2.2

     negative rho (up, down):  3.755E-03 0.000E+00

     total cpu time spent up to now is     2347.2 secs

     total energy              =  -22331.03928221 Ry
     estimated scf accuracy    <       0.00001067 Ry

     iteration # 18     ecut=    40.00 Ry     beta= 0.40
     Davidson diagonalization with overlap

---- Real-time Memory Report at c_bands before calling an iterative solver
           618 MiB given to the printing process from OS
             0 MiB allocation reported by mallinfo(arena+hblkhd)
        178071 MiB available memory on the node where the printing process lives
------------------
     ethr =  1.06E-09,  avg # of iterations =  2.0

     negative rho (up, down):  3.754E-03 0.000E+00

     total cpu time spent up to now is     2465.8 secs

     total energy              =  -22331.03928292 Ry
     estimated scf accuracy    <       0.00000475 Ry

     iteration # 19     ecut=    40.00 Ry     beta= 0.40
     Davidson diagonalization with overlap

---- Real-time Memory Report at c_bands before calling an iterative solver
           618 MiB given to the printing process from OS
             0 MiB allocation reported by mallinfo(arena+hblkhd)
        178071 MiB available memory on the node where the printing process lives
------------------
     ethr =  4.73E-10,  avg # of iterations =  2.0

     negative rho (up, down):  3.754E-03 0.000E+00

     total cpu time spent up to now is     2584.6 secs

     total energy              =  -22331.03928337 Ry
     estimated scf accuracy    <       0.00000238 Ry

     iteration # 20     ecut=    40.00 Ry     beta= 0.40
     Davidson diagonalization with overlap

---- Real-time Memory Report at c_bands before calling an iterative solver
           618 MiB given to the printing process from OS
             0 MiB allocation reported by mallinfo(arena+hblkhd)
        178067 MiB available memory on the node where the printing process lives
------------------
     ethr =  2.37E-10,  avg # of iterations =  2.0

     negative rho (up, down):  3.753E-03 0.000E+00

     total cpu time spent up to now is     2700.9 secs

     total energy              =  -22331.03928363 Ry
     estimated scf accuracy    <       0.00000119 Ry

     iteration # 21     ecut=    40.00 Ry     beta= 0.40
     Davidson diagonalization with overlap

---- Real-time Memory Report at c_bands before calling an iterative solver
           618 MiB given to the printing process from OS
             0 MiB allocation reported by mallinfo(arena+hblkhd)
        178058 MiB available memory on the node where the printing process lives
------------------
     ethr =  1.19E-10,  avg # of iterations =  2.0

     negative rho (up, down):  3.753E-03 0.000E+00

     total cpu time spent up to now is     2818.1 secs

     End of self-consistent calculation

          k = 0.0000 0.0000 0.0000 ( 71933 PWs)   bands (ev):

  -125.3630-125.3555-125.3538-125.3441-125.3316-125.3301-125.3288-125.3272
  -125.2510-125.2494-125.2417-125.2401-125.2395-125.2391-125.2375-125.2356
  -125.1620-125.1567-125.1565-125.1540-125.1535-125.1534-125.1533-125.1520
  -125.1517-125.1508-125.1485-125.1440-125.1046-125.1026-125.0997-125.0954
  -125.0646-125.0630-125.0621-125.0601-125.0548-125.0529-125.0522-125.0513
  -125.0248-125.0235-125.0216-125.0206-125.0197-124.9961-124.9941-124.9785
   -79.5205 -79.5168 -79.5125 -79.5110 -79.5069 -79.5023 -79.5011 -79.5008
   -79.4997 -79.4979 -79.4931 -79.4913 -79.4902 -79.4884 -79.4884 -79.4860
   -79.4857 -79.4779 -79.4762 -79.4753 -79.4736 -79.4734 -79.4731 -79.4605
   -79.4112 -79.4072 -79.4062 -79.4026 -79.4012 -79.3985 -79.3969 -79.3958
   -79.3953 -79.3891 -79.3883 -79.3874 -79.3865 -79.3862 -79.3855 -79.3852
   -79.3846 -79.3843 -79.3817 -79.3813 -79.3792 -79.3786 -79.3780 -79.3735
   -79.3225 -79.3178 -79.3150 -79.3143 -79.3140 -79.3129 -79.3128 -79.3117
   -79.3116 -79.3110 -79.3104 -79.3097 -79.3093 -79.3071 -79.3066 -79.3061
   -79.3060 -79.3055 -79.3046 -79.3045 -79.3034 -79.3033 -79.3020 -79.3014
   -79.3008 -79.3003 -79.2995 -79.2990 -79.2979 -79.2979 -79.2969 -79.2965
   -79.2919 -79.2917 -79.2870 -79.2862 -79.2733 -79.2714 -79.2686 -79.2645
   -79.2529 -79.2510 -79.2489 -79.2481 -79.2436 -79.2374 -79.2356 -79.2326
   -79.2312 -79.2300 -79.2285 -79.2280 -79.2263 -79.2257 -79.2255 -79.2246
   -79.2234 -79.2130 -79.2127 -79.2114 -79.2108 -79.2093 -79.2087 -79.2062
   -79.2004 -79.2002 -79.1985 -79.1982 -79.1978 -79.1971 -79.1969 -79.1917
   -79.1904 -79.1883 -79.1879 -79.1864 -79.1853 -79.1788 -79.1746 -79.1733
   -79.1716 -79.1709 -79.1697 -79.1665 -79.1660 -79.1651 -79.1648 -79.1625
   -79.1537 -79.1477 -79.1442 -79.1422 -79.1386 -79.1369 -79.1272 -79.1171
   -17.9828 -16.6423 -15.7845 -13.4009 -13.3104 -10.3874 -10.1147  -8.3291
    -8.2373  -7.6328  -7.6107  -7.5574  -7.2951  -7.1213  -7.1121  -7.1105
    -7.0794  -7.0340  -7.0189  -7.0016  -6.9546  -6.9543  -6.9103  -6.8976
    -6.8780  -6.8515  -6.8312  -6.8150  -6.7936  -6.7850  -6.7839  -6.7808
    -6.7644  -6.7288  -6.7061  -6.7043  -6.6984  -6.6840  -6.6807  -6.6648
    -6.6614  -6.6344  -6.6315  -6.6302  -6.6198  -6.6169  -6.6153  -6.6141
    -6.6005  -6.5986  -6.5970  -6.5917  -6.5898  -6.5760  -6.5742  -6.5636
    -6.5608  -6.5595  -6.5549  -6.5480  -6.5362  -6.5237  -6.5219  -6.5077
    -6.5039  -6.4864  -6.4810  -6.4783  -6.4744  -6.4434  -6.4396  -6.4375
    -6.4318  -6.4140  -6.4132  -6.4063  -6.4039  -6.3959  -6.3864  -6.3719
    -6.3707  -6.3563  -6.3515  -6.3466  -6.3450  -6.3313  -6.3191  -6.3073
    -6.3040  -6.2934  -6.2922  -6.2893  -6.2860  -6.2757  -6.2734  -6.2648
    -6.2582  -6.2566  -6.2523  -6.2511  -6.2336  -6.2324  -6.2316  -6.2230
    -6.2221  -6.2199  -6.1952  -6.1886  -6.1874  -6.1767  -6.1550  -6.1535
    -6.1525  -6.1340  -6.1290  -6.1289  -6.1261  -6.1109  -6.1103  -6.1069
    -6.0996  -6.0976  -6.0964  -6.0893  -6.0891  -6.0878  -6.0869  -6.0829
    -6.0774  -6.0635  -6.0588  -6.0526  -6.0430  -6.0365  -6.0341  -6.0287
    -6.0255  -6.0246  -6.0227  -6.0090  -6.0074  -6.0068  -6.0055  -6.0036
    -6.0000  -5.9960  -5.9892  -5.9882  -5.9825  -5.9818  -5.9684  -5.9649
    -5.9627  -5.9464  -5.9446  -5.9399  -5.9296  -5.9285  -5.9182  -5.9135
    -5.9134  -5.9023  -5.8994  -5.8979  -5.8938  -5.8923  -5.8901  -5.8875
    -5.8833  -5.8820  -5.8654  -5.8647  -5.8622  -5.8614  -5.8612  -5.8564
    -5.8540  -5.8456  -5.8412  -5.8358  -5.8346  -5.8320  -5.8234  -5.8218
    -5.8100  -5.8097  -5.8019  -5.8014  -5.8003  -5.7964  -5.7943  -5.7925
    -5.7764  -5.7710  -5.7697  -5.7623  -5.7588  -5.7572  -5.7549  -5.7548
    -5.7445  -5.7381  -5.7353  -5.7324  -5.7248  -5.7231  -5.7216  -5.7207
    -5.7111  -5.7069  -5.7056  -5.7015  -5.6923  -5.6910  -5.6888  -5.6885
    -5.6860  -5.6836  -5.6792  -5.6786  -5.6615  -5.6595  -5.6581  -5.6566
    -5.6475  -5.6469  -5.6461  -5.6434  -5.6416  -5.6383  -5.6309  -5.6261
    -5.6228  -5.6226  -5.6192  -5.6145  -5.6116  -5.6081  -5.5973  -5.5764
    -5.5710  -5.5701  -5.5616  -5.5572  -5.5538  -5.5470  -5.5385  -5.5344
    -5.5333  -5.5208  -5.5068  -5.5032  -5.4917  -5.4589  -5.4567  -5.4091
    -5.4010  -5.3195  -5.2819  -5.2804  -5.0976  -4.7426  -4.5750  -4.5264
    -4.5246  -4.3557  -4.2969  -4.0587  -4.0556  -3.7720  -3.7672  -3.4093
    -3.2348  -2.9276  -2.5987  -2.5969  -2.5908  -2.4652  -2.2242  -2.2173
    -2.0180  -2.0175  -1.9806  -1.8481  -1.7867  -1.7791  -1.6275  -1.6224
    -1.5303  -1.4878  -1.4634  -1.2316  -1.0576  -1.0499  -0.5114  -0.3035
    -0.2351  -0.1745  -0.1005  -0.0967  -0.0560   0.0433   0.0883   0.1113
     0.3889   0.5080   0.5108   0.6067   0.8720   0.8789   1.4207   1.6734
     1.6973   1.7021   1.8281   1.9408   2.0270   2.0624   2.0937   2.2153
     2.2323   2.3398   2.6082   2.6782   2.6792   3.1200   3.1248   3.1402
     3.1635   3.3336   3.6636   3.7709   3.8433   3.8640   3.8675   3.9533
     3.9696   4.0373   4.1454   4.1535   4.4879   4.6783   4.7009   4.8540
     4.8975   5.1285   5.2039   5.2180   5.2593   5.3551   5.3586   5.3896
     5.4355   5.5390   5.6630   5.6924   5.7683   5.7774   5.8174   5.8591
     5.8819   5.9158   5.9439   6.0624   6.0882   6.1085   6.1088   6.1177
     6.1474   6.1650   6.2475   6.3216   6.4479   6.4848   6.5112   6.5603
     6.5917   6.6058   6.6613   6.7267   6.7784   6.8501   6.8941   6.9151
     7.0576   7.0650   7.0780   7.0964   7.1175   7.1760   7.2036   7.2235
     7.2689   7.3085   7.3485   7.4136   7.4329   7.4596   7.5638   7.6093
     7.6410   7.6894   7.7304   7.7554   7.8014   7.8575   7.8965   7.9289
     7.9557   8.0110

     occupation numbers 
     1.0000   1.0000   1.0000   1.0000   1.0000   1.0000   1.0000   1.0000
     1.0000   1.0000   1.0000   1.0000   1.0000   1.0000   1.0000   1.0000
     1.0000   1.0000   1.0000   1.0000   1.0000   1.0000   1.0000   1.0000
     1.0000   1.0000   1.0000   1.0000   1.0000   1.0000   1.0000   1.0000
     1.0000   1.0000   1.0000   1.0000   1.0000   1.0000   1.0000   1.0000
     1.0000   1.0000   1.0000   1.0000   1.0000   1.0000   1.0000   1.0000
     1.0000   1.0000   1.0000   1.0000   1.0000   1.0000   1.0000   1.0000
     1.0000   1.0000   1.0000   1.0000   1.0000   1.0000   1.0000   1.0000
     1.0000   1.0000   1.0000   1.0000   1.0000   1.0000   1.0000   1.0000
     1.0000   1.0000   1.0000   1.0000   1.0000   1.0000   1.0000   1.0000
     1.0000   1.0000   1.0000   1.0000   1.0000   1.0000   1.0000   1.0000
     1.0000   1.0000   1.0000   1.0000   1.0000   1.0000   1.0000   1.0000
     1.0000   1.0000   1.0000   1.0000   1.0000   1.0000   1.0000   1.0000
     1.0000   1.0000   1.0000   1.0000   1.0000   1.0000   1.0000   1.0000
     1.0000   1.0000   1.0000   1.0000   1.0000   1.0000   1.0000   1.0000
     1.0000   1.0000   1.0000   1.0000   1.0000   1.0000   1.0000   1.0000
     1.0000   1.0000   1.0000   1.0000   1.0000   1.0000   1.0000   1.0000
     1.0000   1.0000   1.0000   1.0000   1.0000   1.0000   1.0000   1.0000
     1.0000   1.0000   1.0000   1.0000   1.0000   1.0000   1.0000   1.0000
     1.0000   1.0000   1.0000   1.0000   1.0000   1.0000   1.0000   1.0000
     1.0000   1.0000   1.0000   1.0000   1.0000   1.0000   1.0000   1.0000
     1.0000   1.0000   1.0000   1.0000   1.0000   1.0000   1.0000   1.0000
     1.0000   1.0000   1.0000   1.0000   1.0000   1.0000   1.0000   1.0000
     1.0000   1.0000   1.0000   1.0000   1.0000   1.0000   1.0000   1.0000
     1.0000   1.0000   1.0000   1.0000   1.0000   1.0000   1.0000   1.0000
     1.0000   1.0000   1.0000   1.0000   1.0000   1.0000   1.0000   1.0000
     1.0000   1.0000   1.0000   1.0000   1.0000   1.0000   1.0000   1.0000
     1.0000   1.0000   1.0000   1.0000   1.0000   1.0000   1.0000   1.0000
     1.0000   1.0000   1.0000   1.0000   1.0000   1.0000   1.0000   1.0000
     1.0000   1.0000   1.0000   1.0000   1.0000   1.0000   1.0000   1.0000
     1.0000   1.0000   1.0000   1.0000   1.0000   1.0000   1.0000   1.0000
     1.0000   1.0000   1.0000   1.0000   1.0000   1.0000   1.0000   1.0000
     1.0000   1.0000   1.0000   1.0000   1.0000   1.0000   1.0000   1.0000
     1.0000   1.0000   1.0000   1.0000   1.0000   1.0000   1.0000   1.0000
     1.0000   1.0000   1.0000   1.0000   1.0000   1.0000   1.0000   1.0000
     1.0000   1.0000   1.0000   1.0000   1.0000   1.0000   1.0000   1.0000
     1.0000   1.0000   1.0000   1.0000   1.0000   1.0000   1.0000   1.0000
     1.0000   1.0000   1.0000   1.0000   1.0000   1.0000   1.0000   1.0000
     1.0000   1.0000   1.0000   1.0000   1.0000   1.0000   1.0000   1.0000
     1.0000   1.0000   1.0000   1.0000   1.0000   1.0000   1.0000   1.0000
     1.0000   1.0000   1.0000   1.0000   1.0000   1.0000   1.0000   1.0000
     1.0000   1.0000   1.0000   1.0000   1.0000   1.0000   1.0000   1.0000
     1.0000   1.0000   1.0000   1.0000   1.0000   1.0000   1.0000   1.0000
     1.0000   1.0000   1.0000   1.0000   1.0000   1.0000   1.0000   1.0000
     1.0000   1.0000   1.0000   1.0000   1.0000   1.0000   1.0000   1.0000
     1.0000   1.0000   1.0000   1.0000   1.0000   1.0000   1.0000   1.0000
     1.0000   1.0000   1.0000   1.0000   1.0000   1.0000   1.0000   1.0000
     1.0000   1.0000   1.0000   1.0000   1.0000   1.0000   1.0000   1.0000
     1.0000   1.0000   1.0000   1.0000   1.0000   1.0000   1.0000   1.0000
     1.0000   1.0000   1.0000   1.0000   1.0000   1.0000   1.0000   1.0000
     1.0000   1.0000   1.0000   1.0000   1.0000   1.0000   1.0000   1.0000
     1.0000   1.0000   1.0000   1.0000   1.0000   1.0000   1.0000   1.0000
     1.0000   1.0000   1.0000   1.0000   1.0000   1.0000   1.0000   1.0000
     1.0000   1.0000   1.0000   1.0000   1.0000   1.0000   1.0000   1.0000
     1.0000   1.0000   1.0000   1.0000   1.0000   1.0000   1.0000   1.0000
     1.0000   1.0000   1.0000   1.0000   1.0000   1.0000   1.0000   1.0000
     1.0000   1.0000   1.0000   1.0000   1.0000   1.0000   1.0000   1.0000
     1.0000   1.0000   1.0000   1.0000   1.0000   1.0000   1.0000   1.0000
     1.0000   1.0000   1.0000   1.0000   1.0000   1.0000   1.0000   1.0000
     1.0000   1.0000   1.0000   1.0000   1.0000   1.0000   1.0000   1.0000
     1.0000   1.0000   1.0000   1.0000   1.0000   1.0000   1.0000   1.0000
     1.0000   1.0000   1.0000   1.0000   1.0000   1.0000   1.0000   1.0000
     1.0026   1.0129   1.0134   1.0352   1.0517   1.0459   0.0389   0.0007
     0.0005   0.0004   0.0000   0.0000   0.0000   0.0000   0.0000   0.0000
     0.0000   0.0000   0.0000   0.0000   0.0000   0.0000   0.0000   0.0000
     0.0000   0.0000   0.0000   0.0000   0.0000   0.0000   0.0000   0.0000
     0.0000   0.0000   0.0000   0.0000   0.0000   0.0000   0.0000   0.0000
     0.0000   0.0000   0.0000   0.0000   0.0000   0.0000   0.0000   0.0000
     0.0000   0.0000   0.0000   0.0000   0.0000   0.0000   0.0000   0.0000
     0.0000   0.0000   0.0000   0.0000   0.0000   0.0000   0.0000   0.0000
     0.0000   0.0000   0.0000   0.0000   0.0000   0.0000   0.0000   0.0000
     0.0000   0.0000   0.0000   0.0000   0.0000   0.0000   0.0000   0.0000
     0.0000   0.0000   0.0000   0.0000   0.0000   0.0000   0.0000   0.0000
     0.0000   0.0000   0.0000   0.0000   0.0000   0.0000   0.0000   0.0000
     0.0000   0.0000   0.0000   0.0000   0.0000   0.0000   0.0000   0.0000
     0.0000   0.0000

          k = 0.0000 0.3628 0.1846 ( 71963 PWs)   bands (ev):

  -125.3630-125.3555-125.3538-125.3441-125.3316-125.3301-125.3288-125.3273
  -125.2510-125.2494-125.2417-125.2401-125.2395-125.2390-125.2375-125.2356
  -125.1620-125.1567-125.1565-125.1540-125.1535-125.1534-125.1534-125.1519
  -125.1517-125.1508-125.1485-125.1440-125.1046-125.1026-125.0997-125.0954
  -125.0646-125.0630-125.0621-125.0601-125.0548-125.0529-125.0521-125.0514
  -125.0248-125.0235-125.0216-125.0206-125.0197-124.9961-124.9941-124.9785
   -79.5205 -79.5161 -79.5125 -79.5110 -79.5069 -79.5062 -79.5011 -79.4997
   -79.4979 -79.4970 -79.4931 -79.4914 -79.4901 -79.4884 -79.4884 -79.4863
   -79.4844 -79.4794 -79.4779 -79.4762 -79.4752 -79.4735 -79.4672 -79.4621
   -79.4103 -79.4072 -79.4060 -79.4034 -79.4019 -79.4007 -79.3968 -79.3954
   -79.3923 -79.3900 -79.3886 -79.3877 -79.3873 -79.3861 -79.3855 -79.3853
   -79.3845 -79.3834 -79.3818 -79.3800 -79.3791 -79.3783 -79.3777 -79.3748
   -79.3215 -79.3177 -79.3162 -79.3142 -79.3139 -79.3132 -79.3127 -79.3117
   -79.3111 -79.3107 -79.3102 -79.3096 -79.3091 -79.3072 -79.3066 -79.3062
   -79.3061 -79.3057 -79.3053 -79.3047 -79.3045 -79.3043 -79.3033 -79.3019
   -79.3015 -79.3002 -79.2997 -79.2996 -79.2971 -79.2966 -79.2940 -79.2927
   -79.2926 -79.2916 -79.2885 -79.2875 -79.2732 -79.2714 -79.2686 -79.2645
   -79.2529 -79.2510 -79.2481 -79.2477 -79.2436 -79.2420 -79.2326 -79.2312
   -79.2311 -79.2300 -79.2285 -79.2280 -79.2264 -79.2256 -79.2250 -79.2245
   -79.2237 -79.2188 -79.2114 -79.2100 -79.2092 -79.2083 -79.2069 -79.2061
   -79.2034 -79.2019 -79.2002 -79.1985 -79.1979 -79.1971 -79.1917 -79.1915
   -79.1904 -79.1883 -79.1879 -79.1868 -79.1864 -79.1774 -79.1746 -79.1733
   -79.1722 -79.1715 -79.1709 -79.1697 -79.1650 -79.1647 -79.1625 -79.1604
   -79.1552 -79.1477 -79.1442 -79.1422 -79.1405 -79.1348 -79.1272 -79.1173
   -17.9828 -16.6423 -15.7845 -13.4009 -13.3104 -10.3874 -10.1147  -8.2374
    -8.1653  -7.7061  -7.6253  -7.6094  -7.4604  -7.1943  -7.1683  -7.0203
    -7.0166  -7.0068  -6.9840  -6.9784  -6.9246  -6.8945  -6.8929  -6.8910
    -6.8548  -6.8343  -6.8167  -6.8090  -6.8010  -6.7916  -6.7867  -6.7807
    -6.7695  -6.7659  -6.7525  -6.7438  -6.7277  -6.7244  -6.6984  -6.6864
    -6.6842  -6.6746  -6.6626  -6.6593  -6.6555  -6.6372  -6.6357  -6.6223
    -6.6190  -6.6120  -6.6029  -6.5880  -6.5794  -6.5730  -6.5695  -6.5552
    -6.5473  -6.5348  -6.5328  -6.5305  -6.5297  -6.5259  -6.5239  -6.5069
    -6.4991  -6.4867  -6.4657  -6.4642  -6.4617  -6.4536  -6.4475  -6.4363
    -6.4302  -6.4278  -6.4088  -6.4029  -6.3972  -6.3949  -6.3860  -6.3784
    -6.3766  -6.3707  -6.3679  -6.3647  -6.3517  -6.3468  -6.3298  -6.3273
    -6.3185  -6.3057  -6.3048  -6.3028  -6.2896  -6.2874  -6.2857  -6.2744
    -6.2710  -6.2695  -6.2534  -6.2519  -6.2447  -6.2308  -6.2267  -6.2261
    -6.2249  -6.2155  -6.2120  -6.2067  -6.2027  -6.1971  -6.1912  -6.1837
    -6.1704  -6.1676  -6.1657  -6.1550  -6.1512  -6.1450  -6.1328  -6.1311
    -6.1258  -6.1213  -6.1193  -6.1091  -6.1066  -6.1030  -6.0905  -6.0867
    -6.0822  -6.0769  -6.0652  -6.0617  -6.0575  -6.0483  -6.0467  -6.0412
    -6.0319  -6.0292  -6.0279  -6.0178  -6.0164  -6.0133  -6.0105  -5.9995
    -5.9892  -5.9862  -5.9787  -5.9718  -5.9707  -5.9692  -5.9646  -5.9564
    -5.9425  -5.9374  -5.9286  -5.9254  -5.9235  -5.9176  -5.9076  -5.8993
    -5.8960  -5.8939  -5.8856  -5.8837  -5.8804  -5.8788  -5.8773  -5.8747
    -5.8614  -5.8561  -5.8552  -5.8515  -5.8409  -5.8391  -5.8335  -5.8325
    -5.8239  -5.8216  -5.8144  -5.8128  -5.8065  -5.8055  -5.7981  -5.7971
    -5.7955  -5.7875  -5.7837  -5.7787  -5.7767  -5.7753  -5.7700  -5.7682
    -5.7672  -5.7594  -5.7547  -5.7495  -5.7487  -5.7442  -5.7410  -5.7397
    -5.7330  -5.7241  -5.7196  -5.7158  -5.7123  -5.7092  -5.7069  -5.7056
    -5.7018  -5.7010  -5.6995  -5.6919  -5.6883  -5.6844  -5.6775  -5.6742
    -5.6716  -5.6671  -5.6663  -5.6623  -5.6571  -5.6542  -5.6538  -5.6522
    -5.6513  -5.6483  -5.6456  -5.6418  -5.6386  -5.6369  -5.6359  -5.6322
    -5.6212  -5.6192  -5.6140  -5.6118  -5.6076  -5.6040  -5.6027  -5.6007
    -5.5915  -5.5903  -5.5746  -5.5632  -5.5585  -5.5529  -5.5522  -5.5397
    -5.5151  -5.5124  -5.5048  -5.5032  -5.4952  -5.4825  -5.4624  -5.4030
    -5.3784  -5.3708  -5.1143  -5.0982  -4.9550  -4.8967  -4.6378  -4.5732
    -4.5306  -4.3463  -4.2909  -4.1294  -3.5429  -3.5288  -3.4853  -3.4083
    -3.2365  -3.2239  -2.9529  -2.7930  -2.7153  -2.5924  -2.5383  -2.4658
    -2.3031  -2.2171  -2.0385  -1.9919  -1.9491  -1.6282  -1.6196  -1.6172
    -1.4422  -1.2596  -1.2316  -1.1966  -1.1752  -0.8937  -0.6206  -0.5695
    -0.3820  -0.3692  -0.2121  -0.0299   0.1048   0.1364   0.2085   0.3406
     0.4012   0.5424   0.7108   0.7554   0.8502   1.0032   1.2272   1.5242
     1.7289   1.7807   1.8838   2.0935   2.1312   2.2856   2.3597   2.4243
     2.4666   2.5415   2.9267   2.9424   2.9571   3.2096   3.3515   3.3870
     3.4283   3.6943   3.7904   3.8675   3.8804   3.9028   3.9263   3.9488
     3.9736   4.0722   4.0909   4.1743   4.4324   4.4966   4.5532   4.5637
     4.5796   4.6665   4.8974   4.9181   4.9305   4.9549   5.0787   5.0981
     5.1459   5.3499   5.3642   5.4193   5.4537   5.5097   5.5318   5.6042
     5.6867   5.7680   5.8397   5.8849   5.9030   5.9569   6.0220   6.0532
     6.0950   6.1794   6.1998   6.2413   6.3483   6.3720   6.4031   6.4263
     6.4563   6.5273   6.6160   6.6744   6.7323   6.8076   6.8573   6.8810
     6.9337   6.9529   6.9883   7.0260   7.1309   7.1720   7.1997   7.3201
     7.3633   7.3901   7.4217   7.4870   7.5256   7.5550   7.6021   7.6469
     7.7137   7.7668   7.8363   7.8725   7.9668   8.0051   8.0277   8.0714
     8.1206   8.1558

     occupation numbers 
     1.0000   1.0000   1.0000   1.0000   1.0000   1.0000   1.0000   1.0000
     1.0000   1.0000   1.0000   1.0000   1.0000   1.0000   1.0000   1.0000
     1.0000   1.0000   1.0000   1.0000   1.0000   1.0000   1.0000   1.0000
     1.0000   1.0000   1.0000   1.0000   1.0000   1.0000   1.0000   1.0000
     1.0000   1.0000   1.0000   1.0000   1.0000   1.0000   1.0000   1.0000
     1.0000   1.0000   1.0000   1.0000   1.0000   1.0000   1.0000   1.0000
     1.0000   1.0000   1.0000   1.0000   1.0000   1.0000   1.0000   1.0000
     1.0000   1.0000   1.0000   1.0000   1.0000   1.0000   1.0000   1.0000
     1.0000   1.0000   1.0000   1.0000   1.0000   1.0000   1.0000   1.0000
     1.0000   1.0000   1.0000   1.0000   1.0000   1.0000   1.0000   1.0000
     1.0000   1.0000   1.0000   1.0000   1.0000   1.0000   1.0000   1.0000
     1.0000   1.0000   1.0000   1.0000   1.0000   1.0000   1.0000   1.0000
     1.0000   1.0000   1.0000   1.0000   1.0000   1.0000   1.0000   1.0000
     1.0000   1.0000   1.0000   1.0000   1.0000   1.0000   1.0000   1.0000
     1.0000   1.0000   1.0000   1.0000   1.0000   1.0000   1.0000   1.0000
     1.0000   1.0000   1.0000   1.0000   1.0000   1.0000   1.0000   1.0000
     1.0000   1.0000   1.0000   1.0000   1.0000   1.0000   1.0000   1.0000
     1.0000   1.0000   1.0000   1.0000   1.0000   1.0000   1.0000   1.0000
     1.0000   1.0000   1.0000   1.0000   1.0000   1.0000   1.0000   1.0000
     1.0000   1.0000   1.0000   1.0000   1.0000   1.0000   1.0000   1.0000
     1.0000   1.0000   1.0000   1.0000   1.0000   1.0000   1.0000   1.0000
     1.0000   1.0000   1.0000   1.0000   1.0000   1.0000   1.0000   1.0000
     1.0000   1.0000   1.0000   1.0000   1.0000   1.0000   1.0000   1.0000
     1.0000   1.0000   1.0000   1.0000   1.0000   1.0000   1.0000   1.0000
     1.0000   1.0000   1.0000   1.0000   1.0000   1.0000   1.0000   1.0000
     1.0000   1.0000   1.0000   1.0000   1.0000   1.0000   1.0000   1.0000
     1.0000   1.0000   1.0000   1.0000   1.0000   1.0000   1.0000   1.0000
     1.0000   1.0000   1.0000   1.0000   1.0000   1.0000   1.0000   1.0000
     1.0000   1.0000   1.0000   1.0000   1.0000   1.0000   1.0000   1.0000
     1.0000   1.0000   1.0000   1.0000   1.0000   1.0000   1.0000   1.0000
     1.0000   1.0000   1.0000   1.0000   1.0000   1.0000   1.0000   1.0000
     1.0000   1.0000   1.0000   1.0000   1.0000   1.0000   1.0000   1.0000
     1.0000   1.0000   1.0000   1.0000   1.0000   1.0000   1.0000   1.0000
     1.0000   1.0000   1.0000   1.0000   1.0000   1.0000   1.0000   1.0000
     1.0000   1.0000   1.0000   1.0000   1.0000   1.0000   1.0000   1.0000
     1.0000   1.0000   1.0000   1.0000   1.0000   1.0000   1.0000   1.0000
     1.0000   1.0000   1.0000   1.0000   1.0000   1.0000   1.0000   1.0000
     1.0000   1.0000   1.0000   1.0000   1.0000   1.0000   1.0000   1.0000
     1.0000   1.0000   1.0000   1.0000   1.0000   1.0000   1.0000   1.0000
     1.0000   1.0000   1.0000   1.0000   1.0000   1.0000   1.0000   1.0000
     1.0000   1.0000   1.0000   1.0000   1.0000   1.0000   1.0000   1.0000
     1.0000   1.0000   1.0000   1.0000   1.0000   1.0000   1.0000   1.0000
     1.0000   1.0000   1.0000   1.0000   1.0000   1.0000   1.0000   1.0000
     1.0000   1.0000   1.0000   1.0000   1.0000   1.0000   1.0000   1.0000
     1.0000   1.0000   1.0000   1.0000   1.0000   1.0000   1.0000   1.0000
     1.0000   1.0000   1.0000   1.0000   1.0000   1.0000   1.0000   1.0000
     1.0000   1.0000   1.0000   1.0000   1.0000   1.0000   1.0000   1.0000
     1.0000   1.0000   1.0000   1.0000   1.0000   1.0000   1.0000   1.0000
     1.0000   1.0000   1.0000   1.0000   1.0000   1.0000   1.0000   1.0000
     1.0000   1.0000   1.0000   1.0000   1.0000   1.0000   1.0000   1.0000
     1.0000   1.0000   1.0000   1.0000   1.0000   1.0000   1.0000   1.0000
     1.0000   1.0000   1.0000   1.0000   1.0000   1.0000   1.0000   1.0000
     1.0000   1.0000   1.0000   1.0000   1.0000   1.0000   1.0000   1.0000
     1.0000   1.0000   1.0000   1.0000   1.0000   1.0000   1.0000   1.0000
     1.0000   1.0000   1.0000   1.0000   1.0000   1.0000   1.0000   1.0000
     1.0000   1.0000   1.0000   1.0000   1.0000   1.0000   1.0000   1.0000
     1.0000   1.0000   1.0000   1.0000   1.0000   1.0000   1.0000   1.0000
     1.0000   1.0000   1.0000   1.0000   1.0000   1.0000   1.0000   1.0000
     1.0000   1.0000   1.0000   1.0000   1.0000   1.0000   1.0000   1.0000
     1.0000   1.0000   1.0000   1.0000   1.0000   1.0000   1.0000   1.0000
     1.0000   1.0000   1.0000   1.0000   1.0000   1.0000   1.0000   1.0000
     1.0000   1.0000   1.0000   1.0000   1.0000   1.0000   1.0001   1.0012
     1.0031   1.0190   1.0697   1.0807   1.0666   0.8428   0.2695   0.0093
     0.0002   0.0001   0.0000   0.0000   0.0000   0.0000   0.0000   0.0000
     0.0000   0.0000   0.0000   0.0000   0.0000   0.0000   0.0000   0.0000
     0.0000   0.0000   0.0000   0.0000   0.0000   0.0000   0.0000   0.0000
     0.0000   0.0000   0.0000   0.0000   0.0000   0.0000   0.0000   0.0000
     0.0000   0.0000   0.0000   0.0000   0.0000   0.0000   0.0000   0.0000
     0.0000   0.0000   0.0000   0.0000   0.0000   0.0000   0.0000   0.0000
     0.0000   0.0000   0.0000   0.0000   0.0000   0.0000   0.0000   0.0000
     0.0000   0.0000   0.0000   0.0000   0.0000   0.0000   0.0000   0.0000
     0.0000   0.0000   0.0000   0.0000   0.0000   0.0000   0.0000   0.0000
     0.0000   0.0000   0.0000   0.0000   0.0000   0.0000   0.0000   0.0000
     0.0000   0.0000   0.0000   0.0000   0.0000   0.0000   0.0000   0.0000
     0.0000   0.0000   0.0000   0.0000   0.0000   0.0000   0.0000   0.0000
     0.0000   0.0000

          k = 0.3333 0.0811 0.7384 ( 72005 PWs)   bands (ev):

  -125.3630-125.3555-125.3538-125.3441-125.3316-125.3301-125.3288-125.3272
  -125.2510-125.2494-125.2417-125.2401-125.2395-125.2391-125.2375-125.2356
  -125.1620-125.1567-125.1565-125.1540-125.1535-125.1534-125.1533-125.1520
  -125.1517-125.1508-125.1485-125.1440-125.1046-125.1026-125.0997-125.0954
  -125.0646-125.0630-125.0621-125.0601-125.0548-125.0529-125.0522-125.0513
  -125.0248-125.0235-125.0216-125.0206-125.0197-124.9961-124.9941-124.9785
   -79.5205 -79.5168 -79.5125 -79.5110 -79.5069 -79.5023 -79.5011 -79.5008
   -79.4997 -79.4979 -79.4931 -79.4913 -79.4902 -79.4884 -79.4884 -79.4860
   -79.4857 -79.4779 -79.4762 -79.4753 -79.4736 -79.4734 -79.4731 -79.4605
   -79.4112 -79.4072 -79.4062 -79.4026 -79.4012 -79.3985 -79.3969 -79.3958
   -79.3953 -79.3891 -79.3883 -79.3874 -79.3865 -79.3862 -79.3855 -79.3852
   -79.3846 -79.3843 -79.3817 -79.3813 -79.3792 -79.3786 -79.3780 -79.3735
   -79.3225 -79.3178 -79.3150 -79.3143 -79.3140 -79.3129 -79.3128 -79.3117
   -79.3116 -79.3110 -79.3104 -79.3097 -79.3093 -79.3071 -79.3066 -79.3061
   -79.3060 -79.3055 -79.3046 -79.3045 -79.3034 -79.3033 -79.3020 -79.3014
   -79.3008 -79.3003 -79.2995 -79.2990 -79.2979 -79.2979 -79.2969 -79.2965
   -79.2919 -79.2917 -79.2870 -79.2862 -79.2733 -79.2714 -79.2686 -79.2645
   -79.2529 -79.2510 -79.2489 -79.2481 -79.2436 -79.2374 -79.2356 -79.2326
   -79.2312 -79.2300 -79.2285 -79.2281 -79.2263 -79.2257 -79.2255 -79.2246
   -79.2234 -79.2130 -79.2127 -79.2114 -79.2108 -79.2093 -79.2087 -79.2062
   -79.2004 -79.2002 -79.1985 -79.1982 -79.1978 -79.1971 -79.1969 -79.1917
   -79.1904 -79.1883 -79.1879 -79.1864 -79.1853 -79.1788 -79.1746 -79.1733
   -79.1716 -79.1709 -79.1697 -79.1665 -79.1660 -79.1651 -79.1648 -79.1625
   -79.1537 -79.1477 -79.1442 -79.1422 -79.1386 -79.1369 -79.1272 -79.1171
   -17.9828 -16.6423 -15.7845 -13.4009 -13.3104 -10.3874 -10.1147  -8.2377
    -8.2111  -7.8541  -7.6295  -7.6104  -7.1866  -7.1293  -7.1089  -7.0876
    -7.0579  -7.0303  -7.0201  -6.9913  -6.9721  -6.9444  -6.9115  -6.9021
    -6.8956  -6.8524  -6.8389  -6.8372  -6.7942  -6.7886  -6.7782  -6.7672
    -6.7517  -6.7423  -6.7162  -6.7100  -6.6996  -6.6808  -6.6648  -6.6611
    -6.6554  -6.6448  -6.6322  -6.6298  -6.6275  -6.6230  -6.6196  -6.6153
    -6.6084  -6.5988  -6.5960  -6.5934  -6.5888  -6.5802  -6.5779  -6.5593
    -6.5576  -6.5560  -6.5535  -6.5395  -6.5278  -6.5206  -6.5105  -6.5048
    -6.5009  -6.4909  -6.4799  -6.4714  -6.4695  -6.4528  -6.4410  -6.4371
    -6.4244  -6.4141  -6.4120  -6.4048  -6.4045  -6.3930  -6.3859  -6.3778
    -6.3543  -6.3512  -6.3493  -6.3470  -6.3443  -6.3428  -6.3320  -6.3130
    -6.3050  -6.3028  -6.2942  -6.2895  -6.2856  -6.2790  -6.2776  -6.2687
    -6.2596  -6.2543  -6.2485  -6.2389  -6.2298  -6.2244  -6.2228  -6.2195
    -6.2116  -6.2038  -6.2002  -6.1875  -6.1772  -6.1730  -6.1600  -6.1567
    -6.1516  -6.1489  -6.1441  -6.1348  -6.1338  -6.1329  -6.1170  -6.1123
    -6.1104  -6.1038  -6.1029  -6.1002  -6.0978  -6.0941  -6.0829  -6.0722
    -6.0677  -6.0622  -6.0597  -6.0529  -6.0468  -6.0441  -6.0415  -6.0341
    -6.0267  -6.0212  -6.0145  -6.0111  -6.0068  -6.0027  -5.9969  -5.9929
    -5.9907  -5.9873  -5.9838  -5.9776  -5.9772  -5.9743  -5.9689  -5.9677
    -5.9539  -5.9481  -5.9440  -5.9434  -5.9372  -5.9306  -5.9277  -5.9210
    -5.9185  -5.9164  -5.9107  -5.9097  -5.9004  -5.8959  -5.8881  -5.8858
    -5.8837  -5.8820  -5.8773  -5.8721  -5.8704  -5.8671  -5.8641  -5.8526
    -5.8510  -5.8452  -5.8442  -5.8353  -5.8321  -5.8233  -5.8223  -5.8209
    -5.8190  -5.8180  -5.8131  -5.8064  -5.8013  -5.7978  -5.7945  -5.7827
    -5.7776  -5.7739  -5.7723  -5.7710  -5.7597  -5.7590  -5.7575  -5.7558
    -5.7526  -5.7443  -5.7432  -5.7400  -5.7334  -5.7236  -5.7217  -5.7200
    -5.7163  -5.7126  -5.7076  -5.7059  -5.6951  -5.6944  -5.6905  -5.6839
    -5.6832  -5.6824  -5.6752  -5.6711  -5.6661  -5.6595  -5.6580  -5.6492
    -5.6481  -5.6477  -5.6368  -5.6357  -5.6353  -5.6287  -5.6236  -5.6216
    -5.6149  -5.6141  -5.6084  -5.6051  -5.5999  -5.5985  -5.5858  -5.5723
    -5.5656  -5.5621  -5.5572  -5.5505  -5.5446  -5.5411  -5.5374  -5.5253
    -5.5120  -5.5042  -5.5012  -5.4867  -5.4483  -5.4444  -5.4331  -5.4306
    -5.3956  -5.3393  -5.0977  -5.0696  -5.0510  -5.0425  -4.5890  -4.5735
    -4.4524  -4.4467  -4.3003  -4.0094  -3.8898  -3.6357  -3.5246  -3.4955
    -3.4070  -3.2348  -3.0069  -2.8407  -2.7161  -2.6389  -2.5910  -2.2173
    -2.0962  -1.9783  -1.9162  -1.8924  -1.6750  -1.6562  -1.6276  -1.4302
    -1.2589  -1.2316  -1.1954  -1.1246  -0.7437  -0.6331  -0.5891  -0.4408
    -0.3639  -0.3543  -0.2914  -0.2609  -0.1590   0.0086   0.0662   0.1260
     0.4618   0.4768   0.6271   0.9206   1.0421   1.3086   1.3168   1.3521
     1.4286   1.6104   1.6844   1.8123   1.8168   1.8961   2.3226   2.4565
     2.6113   2.6445   2.7855   2.7916   2.8038   2.8201   3.0641   3.3114
     3.3733   3.4136   3.4534   3.5963   3.6879   3.7396   3.7601   3.9162
     4.0133   4.0961   4.2806   4.2915   4.5621   4.5683   4.5843   4.6347
     4.7425   4.8724   4.9633   5.0598   5.0931   5.1499   5.1788   5.1857
     5.2053   5.3631   5.4696   5.4917   5.5333   5.5611   5.6670   5.7517
     5.7913   5.8459   5.9710   6.0463   6.0745   6.0863   6.1596   6.2014
     6.2297   6.3425   6.3897   6.4363   6.4982   6.5914   6.6674   6.7147
     6.7363   6.7646   6.8245   6.8631   6.8874   6.8995   6.9074   7.0093
     7.0236   7.0570   7.0802   7.1105   7.1531   7.2130   7.2694   7.3167
     7.3562   7.3904   7.4278   7.4767   7.4937   7.5348   7.5579   7.5760
     7.6323   7.6830   7.7313   7.7418   7.7937   7.8251   7.9256   7.9548
     7.9871   8.0501

     occupation numbers 
     1.0000   1.0000   1.0000   1.0000   1.0000   1.0000   1.0000   1.0000
     1.0000   1.0000   1.0000   1.0000   1.0000   1.0000   1.0000   1.0000
     1.0000   1.0000   1.0000   1.0000   1.0000   1.0000   1.0000   1.0000
     1.0000   1.0000   1.0000   1.0000   1.0000   1.0000   1.0000   1.0000
     1.0000   1.0000   1.0000   1.0000   1.0000   1.0000   1.0000   1.0000
     1.0000   1.0000   1.0000   1.0000   1.0000   1.0000   1.0000   1.0000
     1.0000   1.0000   1.0000   1.0000   1.0000   1.0000   1.0000   1.0000
     1.0000   1.0000   1.0000   1.0000   1.0000   1.0000   1.0000   1.0000
     1.0000   1.0000   1.0000   1.0000   1.0000   1.0000   1.0000   1.0000
     1.0000   1.0000   1.0000   1.0000   1.0000   1.0000   1.0000   1.0000
     1.0000   1.0000   1.0000   1.0000   1.0000   1.0000   1.0000   1.0000
     1.0000   1.0000   1.0000   1.0000   1.0000   1.0000   1.0000   1.0000
     1.0000   1.0000   1.0000   1.0000   1.0000   1.0000   1.0000   1.0000
     1.0000   1.0000   1.0000   1.0000   1.0000   1.0000   1.0000   1.0000
     1.0000   1.0000   1.0000   1.0000   1.0000   1.0000   1.0000   1.0000
     1.0000   1.0000   1.0000   1.0000   1.0000   1.0000   1.0000   1.0000
     1.0000   1.0000   1.0000   1.0000   1.0000   1.0000   1.0000   1.0000
     1.0000   1.0000   1.0000   1.0000   1.0000   1.0000   1.0000   1.0000
     1.0000   1.0000   1.0000   1.0000   1.0000   1.0000   1.0000   1.0000
     1.0000   1.0000   1.0000   1.0000   1.0000   1.0000   1.0000   1.0000
     1.0000   1.0000   1.0000   1.0000   1.0000   1.0000   1.0000   1.0000
     1.0000   1.0000   1.0000   1.0000   1.0000   1.0000   1.0000   1.0000
     1.0000   1.0000   1.0000   1.0000   1.0000   1.0000   1.0000   1.0000
     1.0000   1.0000   1.0000   1.0000   1.0000   1.0000   1.0000   1.0000
     1.0000   1.0000   1.0000   1.0000   1.0000   1.0000   1.0000   1.0000
     1.0000   1.0000   1.0000   1.0000   1.0000   1.0000   1.0000   1.0000
     1.0000   1.0000   1.0000   1.0000   1.0000   1.0000   1.0000   1.0000
     1.0000   1.0000   1.0000   1.0000   1.0000   1.0000   1.0000   1.0000
     1.0000   1.0000   1.0000   1.0000   1.0000   1.0000   1.0000   1.0000
     1.0000   1.0000   1.0000   1.0000   1.0000   1.0000   1.0000   1.0000
     1.0000   1.0000   1.0000   1.0000   1.0000   1.0000   1.0000   1.0000
     1.0000   1.0000   1.0000   1.0000   1.0000   1.0000   1.0000   1.0000
     1.0000   1.0000   1.0000   1.0000   1.0000   1.0000   1.0000   1.0000
     1.0000   1.0000   1.0000   1.0000   1.0000   1.0000   1.0000   1.0000
     1.0000   1.0000   1.0000   1.0000   1.0000   1.0000   1.0000   1.0000
     1.0000   1.0000   1.0000   1.0000   1.0000   1.0000   1.0000   1.0000
     1.0000   1.0000   1.0000   1.0000   1.0000   1.0000   1.0000   1.0000
     1.0000   1.0000   1.0000   1.0000   1.0000   1.0000   1.0000   1.0000
     1.0000   1.0000   1.0000   1.0000   1.0000   1.0000   1.0000   1.0000
     1.0000   1.0000   1.0000   1.0000   1.0000   1.0000   1.0000   1.0000
     1.0000   1.0000   1.0000   1.0000   1.0000   1.0000   1.0000   1.0000
     1.0000   1.0000   1.0000   1.0000   1.0000   1.0000   1.0000   1.0000
     1.0000   1.0000   1.0000   1.0000   1.0000   1.0000   1.0000   1.0000
     1.0000   1.0000   1.0000   1.0000   1.0000   1.0000   1.0000   1.0000
     1.0000   1.0000   1.0000   1.0000   1.0000   1.0000   1.0000   1.0000
     1.0000   1.0000   1.0000   1.0000   1.0000   1.0000   1.0000   1.0000
     1.0000   1.0000   1.0000   1.0000   1.0000   1.0000   1.0000   1.0000
     1.0000   1.0000   1.0000   1.0000   1.0000   1.0000   1.0000   1.0000
     1.0000   1.0000   1.0000   1.0000   1.0000   1.0000   1.0000   1.0000
     1.0000   1.0000   1.0000   1.0000   1.0000   1.0000   1.0000   1.0000
     1.0000   1.0000   1.0000   1.0000   1.0000   1.0000   1.0000   1.0000
     1.0000   1.0000   1.0000   1.0000   1.0000   1.0000   1.0000   1.0000
     1.0000   1.0000   1.0000   1.0000   1.0000   1.0000   1.0000   1.0000
     1.0000   1.0000   1.0000   1.0000   1.0000   1.0000   1.0000   1.0000
     1.0000   1.0000   1.0000   1.0000   1.0000   1.0000   1.0000   1.0000
     1.0000   1.0000   1.0000   1.0000   1.0000   1.0000   1.0000   1.0000
     1.0000   1.0000   1.0000   1.0000   1.0000   1.0000   1.0000   1.0000
     1.0000   1.0000   1.0000   1.0000   1.0000   1.0000   1.0000   1.0000
     1.0000   1.0000   1.0000   1.0000   1.0000   1.0000   1.0000   1.0000
     1.0000   1.0000   1.0000   1.0000   1.0000   1.0000   1.0000   1.0000
     1.0000   1.0000   1.0000   1.0000   1.0000   1.0000   1.0000   1.0000
     1.0000   1.0000   1.0000   1.0000   1.0000   1.0000   1.0000   1.0000
     1.0073   1.0088   1.0416   0.9986   0.7464   0.1338   0.1236   0.0860
     0.0352   0.0023   0.0006   0.0000   0.0000   0.0000   0.0000   0.0000
     0.0000   0.0000   0.0000   0.0000   0.0000   0.0000   0.0000   0.0000
     0.0000   0.0000   0.0000   0.0000   0.0000   0.0000   0.0000   0.0000
     0.0000   0.0000   0.0000   0.0000   0.0000   0.0000   0.0000   0.0000
     0.0000   0.0000   0.0000   0.0000   0.0000   0.0000   0.0000   0.0000
     0.0000   0.0000   0.0000   0.0000   0.0000   0.0000   0.0000   0.0000
     0.0000   0.0000   0.0000   0.0000   0.0000   0.0000   0.0000   0.0000
     0.0000   0.0000   0.0000   0.0000   0.0000   0.0000   0.0000   0.0000
     0.0000   0.0000   0.0000   0.0000   0.0000   0.0000   0.0000   0.0000
     0.0000   0.0000   0.0000   0.0000   0.0000   0.0000   0.0000   0.0000
     0.0000   0.0000   0.0000   0.0000   0.0000   0.0000   0.0000   0.0000
     0.0000   0.0000   0.0000   0.0000   0.0000   0.0000   0.0000   0.0000
     0.0000   0.0000

          k = 0.3333 0.4439 0.9230 ( 71974 PWs)   bands (ev):

  -125.3630-125.3555-125.3538-125.3441-125.3316-125.3301-125.3288-125.3273
  -125.2510-125.2494-125.2417-125.2401-125.2395-125.2390-125.2375-125.2356
  -125.1620-125.1567-125.1565-125.1540-125.1535-125.1534-125.1534-125.1519
  -125.1517-125.1508-125.1485-125.1440-125.1046-125.1026-125.0997-125.0954
  -125.0646-125.0630-125.0621-125.0601-125.0548-125.0529-125.0521-125.0514
  -125.0248-125.0235-125.0216-125.0206-125.0197-124.9961-124.9941-124.9785
   -79.5205 -79.5161 -79.5125 -79.5110 -79.5069 -79.5062 -79.5011 -79.4997
   -79.4979 -79.4970 -79.4931 -79.4914 -79.4901 -79.4884 -79.4884 -79.4863
   -79.4844 -79.4794 -79.4779 -79.4762 -79.4752 -79.4735 -79.4672 -79.4621
   -79.4103 -79.4072 -79.4060 -79.4034 -79.4019 -79.4007 -79.3968 -79.3954
   -79.3923 -79.3900 -79.3886 -79.3877 -79.3873 -79.3861 -79.3855 -79.3853
   -79.3845 -79.3834 -79.3818 -79.3800 -79.3791 -79.3783 -79.3777 -79.3748
   -79.3215 -79.3177 -79.3162 -79.3142 -79.3139 -79.3132 -79.3127 -79.3117
   -79.3111 -79.3107 -79.3102 -79.3096 -79.3091 -79.3072 -79.3066 -79.3062
   -79.3061 -79.3057 -79.3053 -79.3047 -79.3045 -79.3043 -79.3033 -79.3019
   -79.3015 -79.3002 -79.2997 -79.2996 -79.2971 -79.2966 -79.2940 -79.2927
   -79.2926 -79.2916 -79.2885 -79.2875 -79.2732 -79.2714 -79.2686 -79.2645
   -79.2529 -79.2510 -79.2481 -79.2477 -79.2436 -79.2420 -79.2326 -79.2312
   -79.2311 -79.2300 -79.2285 -79.2280 -79.2264 -79.2256 -79.2250 -79.2245
   -79.2237 -79.2188 -79.2114 -79.2100 -79.2092 -79.2083 -79.2069 -79.2061
   -79.2034 -79.2019 -79.2002 -79.1985 -79.1979 -79.1971 -79.1917 -79.1915
   -79.1904 -79.1883 -79.1879 -79.1868 -79.1864 -79.1774 -79.1746 -79.1733
   -79.1722 -79.1715 -79.1709 -79.1697 -79.1650 -79.1647 -79.1625 -79.1604
   -79.1552 -79.1477 -79.1442 -79.1422 -79.1405 -79.1348 -79.1272 -79.1173
   -17.9828 -16.6423 -15.7845 -13.4009 -13.3104 -10.3874 -10.1147  -8.2373
    -8.0015  -7.7963  -7.7041  -7.6234  -7.6091  -7.1951  -7.0731  -7.0273
    -7.0142  -6.9860  -6.9790  -6.9730  -6.8985  -6.8928  -6.8916  -6.8886
    -6.8612  -6.8347  -6.8309  -6.8179  -6.8166  -6.8008  -6.7894  -6.7814
    -6.7762  -6.7459  -6.7436  -6.7417  -6.7298  -6.7249  -6.7160  -6.6988
    -6.6867  -6.6748  -6.6613  -6.6480  -6.6393  -6.6366  -6.6353  -6.6234
    -6.6199  -6.6175  -6.6109  -6.6042  -6.5889  -6.5780  -6.5718  -6.5540
    -6.5458  -6.5410  -6.5332  -6.5293  -6.5224  -6.5142  -6.5068  -6.4981
    -6.4875  -6.4742  -6.4673  -6.4644  -6.4607  -6.4525  -6.4479  -6.4433
    -6.4361  -6.4263  -6.4098  -6.4079  -6.3987  -6.3945  -6.3914  -6.3840
    -6.3717  -6.3679  -6.3650  -6.3575  -6.3475  -6.3367  -6.3348  -6.3306
    -6.3260  -6.3250  -6.3050  -6.3033  -6.2889  -6.2876  -6.2821  -6.2746
    -6.2718  -6.2671  -6.2462  -6.2437  -6.2406  -6.2296  -6.2257  -6.2181
    -6.2125  -6.2087  -6.2073  -6.2044  -6.1951  -6.1909  -6.1900  -6.1827
    -6.1679  -6.1672  -6.1651  -6.1546  -6.1534  -6.1483  -6.1444  -6.1362
    -6.1314  -6.1298  -6.1271  -6.1200  -6.1161  -6.1084  -6.0962  -6.0844
    -6.0820  -6.0770  -6.0647  -6.0632  -6.0623  -6.0580  -6.0496  -6.0324
    -6.0306  -6.0282  -6.0166  -6.0128  -6.0118  -6.0102  -6.0047  -5.9993
    -5.9935  -5.9901  -5.9820  -5.9767  -5.9704  -5.9670  -5.9649  -5.9612
    -5.9581  -5.9442  -5.9416  -5.9365  -5.9260  -5.9193  -5.9097  -5.9075
    -5.8977  -5.8960  -5.8877  -5.8837  -5.8821  -5.8787  -5.8753  -5.8738
    -5.8701  -5.8590  -5.8558  -5.8522  -5.8470  -5.8411  -5.8345  -5.8326
    -5.8275  -5.8250  -5.8243  -5.8210  -5.8138  -5.8107  -5.8052  -5.7982
    -5.7963  -5.7947  -5.7922  -5.7843  -5.7832  -5.7773  -5.7732  -5.7700
    -5.7691  -5.7596  -5.7520  -5.7500  -5.7485  -5.7482  -5.7401  -5.7349
    -5.7303  -5.7238  -5.7229  -5.7206  -5.7184  -5.7160  -5.7088  -5.7076
    -5.7024  -5.6997  -5.6952  -5.6912  -5.6908  -5.6791  -5.6770  -5.6719
    -5.6713  -5.6662  -5.6625  -5.6611  -5.6606  -5.6557  -5.6537  -5.6499
    -5.6490  -5.6454  -5.6404  -5.6381  -5.6361  -5.6323  -5.6296  -5.6214
    -5.6200  -5.6175  -5.6138  -5.6105  -5.6047  -5.6031  -5.6013  -5.5969
    -5.5893  -5.5831  -5.5729  -5.5704  -5.5601  -5.5465  -5.5385  -5.5249
    -5.5120  -5.5084  -5.5048  -5.4989  -5.4939  -5.4887  -5.4509  -5.3896
    -5.3673  -5.1142  -5.0982  -4.9770  -4.9546  -4.8981  -4.6600  -4.5726
    -4.5299  -4.3459  -4.2907  -3.9850  -3.6716  -3.5304  -3.4853  -3.4106
    -3.2822  -3.2342  -2.9519  -2.7768  -2.7740  -2.7168  -2.6026  -2.5886
    -2.4660  -2.3032  -2.2175  -2.2144  -2.0367  -1.9805  -1.6219  -1.5884
    -1.4412  -1.2317  -1.1985  -1.0709  -0.8936  -0.6210  -0.6029  -0.5691
    -0.2128  -0.2015  -0.0360  -0.0234   0.1189   0.1731   0.3731   0.4196
     0.5089   0.7546   0.7712   0.8506   1.0052   1.2279   1.4096   1.4583
     1.7825   1.8181   1.8836   1.9601   2.1256   2.2482   2.3353   2.4657
     2.5364   2.5487   2.5870   2.8897   2.9251   2.9535   2.9715   3.2241
     3.2279   3.4197   3.4467   3.6692   3.7179   3.8786   3.8970   3.9019
     3.9197   3.9485   3.9626   4.0872   4.2443   4.3887   4.4675   4.4947
     4.5641   4.6692   4.9181   4.9329   4.9845   5.0442   5.1432   5.1628
     5.3664   5.4314   5.4829   5.5055   5.5333   5.5437   5.5587   5.6766
     5.7143   5.8183   5.8856   5.9268   5.9495   5.9670   5.9993   6.1073
     6.1256   6.1667   6.1985   6.2911   6.3445   6.4002   6.4218   6.4461
     6.5109   6.5494   6.5934   6.6275   6.6732   6.6939   6.7494   6.8723
     6.9606   6.9903   7.0299   7.1119   7.1768   7.1981   7.2274   7.3481
     7.4032   7.4883   7.5040   7.5823   7.6123   7.6488   7.7448   7.7909
     7.8430   7.9251   7.9402   7.9579   8.0315   8.0474   8.1026   8.1589
     8.1713   8.2375

     occupation numbers 
     1.0000   1.0000   1.0000   1.0000   1.0000   1.0000   1.0000   1.0000
     1.0000   1.0000   1.0000   1.0000   1.0000   1.0000   1.0000   1.0000
     1.0000   1.0000   1.0000   1.0000   1.0000   1.0000   1.0000   1.0000
     1.0000   1.0000   1.0000   1.0000   1.0000   1.0000   1.0000   1.0000
     1.0000   1.0000   1.0000   1.0000   1.0000   1.0000   1.0000   1.0000
     1.0000   1.0000   1.0000   1.0000   1.0000   1.0000   1.0000   1.0000
     1.0000   1.0000   1.0000   1.0000   1.0000   1.0000   1.0000   1.0000
     1.0000   1.0000   1.0000   1.0000   1.0000   1.0000   1.0000   1.0000
     1.0000   1.0000   1.0000   1.0000   1.0000   1.0000   1.0000   1.0000
     1.0000   1.0000   1.0000   1.0000   1.0000   1.0000   1.0000   1.0000
     1.0000   1.0000   1.0000   1.0000   1.0000   1.0000   1.0000   1.0000
     1.0000   1.0000   1.0000   1.0000   1.0000   1.0000   1.0000   1.0000
     1.0000   1.0000   1.0000   1.0000   1.0000   1.0000   1.0000   1.0000
     1.0000   1.0000   1.0000   1.0000   1.0000   1.0000   1.0000   1.0000
     1.0000   1.0000   1.0000   1.0000   1.0000   1.0000   1.0000   1.0000
     1.0000   1.0000   1.0000   1.0000   1.0000   1.0000   1.0000   1.0000
     1.0000   1.0000   1.0000   1.0000   1.0000   1.0000   1.0000   1.0000
     1.0000   1.0000   1.0000   1.0000   1.0000   1.0000   1.0000   1.0000
     1.0000   1.0000   1.0000   1.0000   1.0000   1.0000   1.0000   1.0000
     1.0000   1.0000   1.0000   1.0000   1.0000   1.0000   1.0000   1.0000
     1.0000   1.0000   1.0000   1.0000   1.0000   1.0000   1.0000   1.0000
     1.0000   1.0000   1.0000   1.0000   1.0000   1.0000   1.0000   1.0000
     1.0000   1.0000   1.0000   1.0000   1.0000   1.0000   1.0000   1.0000
     1.0000   1.0000   1.0000   1.0000   1.0000   1.0000   1.0000   1.0000
     1.0000   1.0000   1.0000   1.0000   1.0000   1.0000   1.0000   1.0000
     1.0000   1.0000   1.0000   1.0000   1.0000   1.0000   1.0000   1.0000
     1.0000   1.0000   1.0000   1.0000   1.0000   1.0000   1.0000   1.0000
     1.0000   1.0000   1.0000   1.0000   1.0000   1.0000   1.0000   1.0000
     1.0000   1.0000   1.0000   1.0000   1.0000   1.0000   1.0000   1.0000
[...]
     atom   40 type  1   force =    -0.00005717   -0.00000918    0.00000151
     atom   41 type  1   force =     0.00017295    0.00004490   -0.00004668
     atom   42 type  1   force =     0.00016172    0.00007018   -0.00012887
     atom   43 type  1   force =     0.00000000    0.00000000   -0.00000000
     atom   44 type  1   force =     0.00000000   -0.00000000   -0.00000000
     atom   45 type  1   force =    -0.00003424   -0.00000106   -0.00002175
     atom   46 type  1   force =    -0.00004854    0.00000403    0.00000391
     atom   47 type  1   force =     0.00016694    0.00005410   -0.00002361
     atom   48 type  1   force =     0.00016116    0.00006629   -0.00003465
     atom   49 type  3   force =     0.00000529    0.00000674    0.00003725
     atom   50 type  3   force =     0.00001456    0.00000469   -0.00000404
     atom   51 type  3   force =     0.00000681    0.00000674   -0.00002077
     atom   52 type  3   force =     0.00001270   -0.00000454   -0.00001516
     atom   53 type  3   force =     0.00000170    0.00000278   -0.00001703
     atom   54 type  3   force =     0.00000608    0.00000002   -0.00002383
     atom   55 type  3   force =     0.00000224   -0.00000176    0.00001396
     atom   56 type  2   force =     0.00000479    0.00000828    0.00004646
     atom   57 type  2   force =    -0.00004445   -0.00000839   -0.00001848
     atom   58 type  4   force =    -0.00000197   -0.00000247   -0.00000374
     atom   59 type  4   force =    -0.00000275    0.00000087   -0.00000415
     atom   60 type  4   force =     0.00000178   -0.00000347    0.00000031
     atom   61 type  4   force =    -0.00000084    0.00000377   -0.00000116
     atom   62 type  4   force =    -0.00000164    0.00000291   -0.00000112
     atom   63 type  4   force =    -0.00000046   -0.00000273    0.00000019

     DFT-D3 dispersion contribution to forces:
     atom    1 type  1   force =    -0.00081021   -0.00021877    0.00275646
     atom    2 type  1   force =    -0.00081871   -0.00023272    0.00274594
     atom    3 type  1   force =    -0.00112107   -0.00027297   -0.00281385
     atom    4 type  1   force =    -0.00112478   -0.00027518   -0.00279175
     atom    5 type  1   force =     0.00071543    0.00031429   -0.00185933
     atom    6 type  1   force =     0.00062194    0.00037061   -0.00056331
     atom    7 type  1   force =    -0.00080488   -0.00022605    0.00276038
     atom    8 type  1   force =    -0.00081985   -0.00022666    0.00274178
     atom    9 type  1   force =    -0.00110018   -0.00028679   -0.00281460
     atom   10 type  1   force =    -0.00111218   -0.00027042   -0.00279427
     atom   11 type  1   force =     0.00035434    0.00078068   -0.00130541
     atom   12 type  1   force =     0.00058307   -0.00023794   -0.00106636
     atom   13 type  1   force =     0.00053175    0.00013492    0.00297817
     atom   14 type  1   force =     0.00051797    0.00009334    0.00301488
     atom   15 type  1   force =    -0.00002514   -0.00001543   -0.00064406
     atom   16 type  1   force =    -0.00016694   -0.00001016   -0.00068408
     atom   17 type  1   force =    -0.00015751   -0.00003807   -0.00261980
     atom   18 type  1   force =    -0.00001427   -0.00004833   -0.00249297
     atom   19 type  1   force =     0.00050646    0.00014384    0.00301586
     atom   20 type  1   force =     0.00053640    0.00010895    0.00297866
     atom   21 type  1   force =    -0.00012218   -0.00012129   -0.00067586
     atom   22 type  1   force =    -0.00005778   -0.00004991   -0.00065572
     atom   23 type  1   force =    -0.00005142    0.00002230   -0.00252090
     atom   24 type  1   force =    -0.00015107   -0.00006064   -0.00259862
     atom   25 type  1   force =     0.00057817    0.00015032    0.00277672
     atom   26 type  1   force =     0.00058982    0.00013254    0.00280201
     atom   27 type  1   force =     0.00066844    0.00020841    0.00187153
     atom   28 type  1   force =     0.00067652    0.00021818    0.00184226
     atom   29 type  1   force =     0.00084674    0.00019526   -0.00205191
     atom   30 type  1   force =     0.00081421    0.00022910   -0.00198087
     atom   31 type  1   force =     0.00058549    0.00015841    0.00281077
     atom   32 type  1   force =     0.00058383    0.00013256    0.00276728
     atom   33 type  1   force =     0.00068912    0.00021388    0.00186275
     atom   34 type  1   force =     0.00068092    0.00018947    0.00185564
     atom   35 type  1   force =     0.00082883    0.00023499   -0.00206692
     atom   36 type  1   force =     0.00080666    0.00019936   -0.00194059
     atom   37 type  1   force =     0.00026104    0.00004929    0.00271779
     atom   38 type  1   force =     0.00024330    0.00005091    0.00273939
     atom   39 type  1   force =    -0.00108775   -0.00027012    0.00162421
     atom   40 type  1   force =    -0.00106080   -0.00026056    0.00171284
     atom   41 type  1   force =    -0.00028683   -0.00022529   -0.00429223
     atom   42 type  1   force =     0.00028379    0.00000114   -0.00320446
     atom   43 type  1   force =     0.00024789    0.00005705    0.00275474
     atom   44 type  1   force =     0.00025229    0.00004269    0.00271121
     atom   45 type  1   force =    -0.00110936   -0.00035242    0.00157803
     atom   46 type  1   force =    -0.00112232   -0.00023698    0.00160238
     atom   47 type  1   force =    -0.00014160    0.00023701   -0.00380225
     atom   48 type  1   force =     0.00011526   -0.00054637   -0.00366972
     atom   49 type  3   force =    -0.00003179    0.00001614    0.00011446
     atom   50 type  3   force =    -0.00000557    0.00002451   -0.00004515
     atom   51 type  3   force =    -0.00004709    0.00011775   -0.00012287
     atom   52 type  3   force =     0.00003364   -0.00016453   -0.00007455
     atom   53 type  3   force =    -0.00012278    0.00023901   -0.00029987
     atom   54 type  3   force =     0.00000465   -0.00019545   -0.00013972
     atom   55 type  3   force =    -0.00004210   -0.00003179   -0.00088391
     atom   56 type  2   force =     0.00008772   -0.00003438   -0.00030903
     atom   57 type  2   force =    -0.00026417   -0.00007234   -0.00149713
     atom   58 type  4   force =    -0.00019893   -0.00002073   -0.00167815
     atom   59 type  4   force =    -0.00021638   -0.00007712   -0.00173886
     atom   60 type  4   force =     0.00000276    0.00000535    0.00001595
     atom   61 type  4   force =    -0.00000272    0.00002012    0.00000812
     atom   62 type  4   force =    -0.00002079   -0.00000356   -0.00016381
     atom   63 type  4   force =    -0.00002929   -0.00000941   -0.00029732

     Total force =     0.004483     Total SCF correction =     0.000818

     DFT-D3 dispersion Force =     0.017999
     SCF correction compared to forces is large: reduce conv_thr to get better values


     Computing stress (Cartesian axis) and pressure


     negative rho (up, down):  3.737E-03 0.000E+00
          total   stress  (Ry/bohr**3)                   (kbar)     P=      -10.87
  -0.00012280  -0.00000391   0.00000043          -18.06       -0.58        0.06
  -0.00000391  -0.00009192  -0.00000051           -0.58      -13.52       -0.07
   0.00000043  -0.00000051  -0.00000689            0.06       -0.07       -1.01

     kinetic stress (kbar)  11739.80     19.47      8.59
                               19.47  11678.19      0.37
                                8.59      0.37  11712.33

     local   stress (kbar)-818649.69   4700.02     -0.08
                             4700.02-836105.51   -111.63
                               -0.08   -111.63 825807.45

     nonloc. stress (kbar)  -1086.71     -4.66     -1.97
                               -4.66  -1069.61     -0.13
                               -1.97     -0.13  -1105.70

     hartree stress (kbar) 434262.44  -2126.77     71.04
                            -2126.77 442185.63     64.01
                               71.04     64.01-381515.61

     exc-cor stress (kbar)  -5700.17     -1.30     -0.65
                               -1.30  -5695.73     -0.05
                               -0.65     -0.05  -5702.08

     corecor stress (kbar)    -74.52      0.24      0.16
                                0.24    -75.26      0.00
                                0.16      0.00    -75.69

     ewald   stress (kbar) 379498.28  -2587.78    -76.92
                            -2587.78 389076.91     47.36
                              -76.92     47.36-449117.52

     hubbard stress (kbar)      0.00      0.00      0.00
                                0.00      0.00      0.00
                                0.00      0.00      0.00

     DFT-D   stress (kbar)     -7.49      0.20     -0.11
                                0.20     -8.14     -0.02
                               -0.11     -0.02     -4.19

     XDM     stress (kbar)      0.00      0.00      0.00
                                0.00      0.00      0.00
                                0.00      0.00      0.00

     dft-nl  stress (kbar)      0.00      0.00      0.00
                                0.00      0.00      0.00
                                0.00      0.00      0.00

     TS-vdW  stress (kbar)      0.00      0.00      0.00
                                0.00      0.00      0.00
                                0.00      0.00      0.00

     MDB     stress (kbar)      0.00      0.00      0.00
                                0.00      0.00      0.00
                                0.00      0.00      0.00

     3D-RISM stress (kbar)      0.00      0.00      0.00
                                0.00      0.00      0.00
                                0.00      0.00      0.00

     Energy error            =      3.6E-05 Ry
     Gradient error          =      1.7E-03 Ry/Bohr

     number of scf cycles    =  14
     number of bfgs steps    =  13

     energy             old  =  -22331.0398477465 Ry
     energy             new  =  -22331.0398840811 Ry

     CASE: energy            _new < energy            _old

     new trust radius        =       0.0091669871 bohr
     new conv_thr            =       0.0000000341 Ry


ATOMIC_POSITIONS (angstrom)
Zn              -1.0735560000        1.0841420000        1.1977640000    0   0   0
Zn              -2.3094850000        6.1646920000        1.1977640000    0   0   0
Zn              -4.1693227424        0.3379576887        4.3950018339
Zn              -5.3992560243        5.4186286370        4.3997722148
Zn              -8.0892562941       -0.6370646191        5.8130918268
Zn              -9.3153688153        4.4461916111        5.7444368981
Zn              -1.6915200000        3.6244170000        1.1977640000    0   0   0
Zn              -2.9274500000        8.7049670000        1.1977640000    0   0   0
Zn              -4.7823956279        2.8774082498        4.4031762749
Zn              -6.0188230345        7.9615259884        4.3940103731
Zn              -8.6995006993        1.9083943681        5.8193955600
Zn              -9.9339491936        6.9859694920        5.8114631756
Zn               4.4565960000        1.0841420000        1.1977640000    0   0   0
Zn               3.2206660000        6.1646920000        1.1977640000    0   0   0
Zn               0.4406206114        0.1192900085        3.4700406088
Zn              -0.7942728436        5.2007423092        3.4685895922
Zn              -2.0022194659       -0.4654581003        5.6884426354
Zn              -3.2342354812        4.6127160559        5.6934206718
Zn               3.8386310000        3.6244170000        1.1977640000    0   0   0
Zn               2.6027020000        8.7049670000        1.1977640000    0   0   0
Zn              -0.1811084129        2.6588677553        3.4630974620
Zn              -1.4134091664        7.7415594166        3.4735183984
Zn              -2.6170315027        2.0721311085        5.6928736635
Zn              -3.8550042037        7.1532783518        5.6910046596
Zn               1.6915200000        0.4114910000        0.8555450000    0   0   0
Zn               0.4555910000        5.4920410000        0.8555450000    0   0   0
Zn              -2.2220385100       -0.5341433787        2.8748135281
Zn              -3.4577398031        4.5443117091        2.8703061211
Zn              -5.9937731558       -1.4563967236        4.3757034847
Zn              -7.2219207400        3.6217374742        4.3475152493
Zn               1.0735560000        2.9517660000        0.8555450000    0   0   0
Zn              -0.1623740000        8.0323160000        0.8555450000    0   0   0
Zn              -2.8412127525        2.0053291383        2.8737467552
Zn              -4.0737293853        7.0846038737        2.8719955612
Zn              -6.6144259812        1.0826538396        4.3756509930
Zn              -7.8409666733        6.1691642970        4.3520289162
Zn               7.2216720000        0.4114910000        0.8555450000    0   0   0
Zn               5.9857420000        5.4920410000        0.8555450000    0   0   0
Zn               3.0283060693       -0.6059111998        2.9223936328
Zn               1.7961902285        4.4762685651        2.9042794815
Zn               0.4846886704       -1.1959012899        5.8385673060
Zn              -0.7451582053        3.8809327084        5.8285452212
Zn               6.6037070000        2.9517660000        0.8555450000    0   0   0
Zn               5.3677780000        8.0323160000        0.8555450000    0   0   0
Zn               2.4048363788        1.9301833799        2.9230230452
Zn               1.1711547669        7.0172662955        2.9241945046
Zn              -0.1247792967        1.3453181206        5.8371866649
Zn              -1.3596367668        6.4239452705        5.8379342969
C              -10.7339711400        4.8366078429       14.5436532582
C              -10.5113178805        4.7440378006       13.1407607499
C              -10.7246061852        5.8579179007       12.3052151037
C              -10.0900100596        3.5320868279       12.5600639450
C              -10.5282002125        5.7620562455       10.9371082018
C               -9.8942599869        3.4358409013       11.1919240825
C              -10.1164394892        4.5467154883       10.3502992613
N              -10.9192165323        4.9121499308       15.6943539394
N               -9.9069841575        4.4570232913        8.9930640962
H               -9.8743624280        3.5366631450        8.5657142722
H              -10.3190080995        5.1612776126        8.3866562479
H               -9.9189650958        2.6646860685       13.1977542695
H              -11.0459572118        6.8022528981       12.7441983434
H               -9.5638510091        2.4914202687       10.7563840860
H              -10.6954402503        6.6329740277       10.3012698226



     Writing config-only to output data dir ./tmp/02_Zn101_ABN_topsite_upright.save/ :
     XML data file
     NEW-OLD atomic charge density approx. for the potential

     negative rho (up, down):  3.738E-03 0.000E+00

     total cpu time spent up to now is    20016.6 secs

     Self-consistent Calculation

     iteration #  1     ecut=    40.00 Ry     beta= 0.40
     Davidson diagonalization with overlap

---- Real-time Memory Report at c_bands before calling an iterative solver
           689 MiB given to the printing process from OS
             0 MiB allocation reported by mallinfo(arena+hblkhd)
        177690 MiB available memory on the node where the printing process lives
------------------
     ethr =  1.00E-06,  avg # of iterations =  4.0

     Threshold (ethr) on eigenvalues was too large:
     Diagonalizing with lowered threshold

     Davidson diagonalization with overlap

---- Real-time Memory Report at c_bands before calling an iterative solver
           689 MiB given to the printing process from OS
             0 MiB allocation reported by mallinfo(arena+hblkhd)
        177700 MiB available memory on the node where the printing process lives
------------------
     ethr =  3.70E-09,  avg # of iterations =  3.8

     negative rho (up, down):  3.737E-03 0.000E+00

     total cpu time spent up to now is    20347.7 secs

     total energy              =  -22331.03991444 Ry
     estimated scf accuracy    <       0.00003895 Ry

     iteration #  2     ecut=    40.00 Ry     beta= 0.40
     Davidson diagonalization with overlap

---- Real-time Memory Report at c_bands before calling an iterative solver
           689 MiB given to the printing process from OS
             0 MiB allocation reported by mallinfo(arena+hblkhd)
        177697 MiB available memory on the node where the printing process lives
------------------
     ethr =  3.88E-09,  avg # of iterations =  3.0

     negative rho (up, down):  3.737E-03 0.000E+00

     total cpu time spent up to now is    20467.5 secs

     total energy              =  -22331.03991536 Ry
     estimated scf accuracy    <       0.00001192 Ry

     iteration #  3     ecut=    40.00 Ry     beta= 0.40
     Davidson diagonalization with overlap

---- Real-time Memory Report at c_bands before calling an iterative solver
           689 MiB given to the printing process from OS
             0 MiB allocation reported by mallinfo(arena+hblkhd)
        177698 MiB available memory on the node where the printing process lives
------------------
     ethr =  1.19E-09,  avg # of iterations =  2.6

     negative rho (up, down):  3.737E-03 0.000E+00

     total cpu time spent up to now is    20588.4 secs

     total energy              =  -22331.03991326 Ry
     estimated scf accuracy    <       0.00004244 Ry

     iteration #  4     ecut=    40.00 Ry     beta= 0.40
     Davidson diagonalization with overlap

---- Real-time Memory Report at c_bands before calling an iterative solver
           689 MiB given to the printing process from OS
             0 MiB allocation reported by mallinfo(arena+hblkhd)
        177696 MiB available memory on the node where the printing process lives
------------------
     ethr =  1.19E-09,  avg # of iterations =  2.0

     negative rho (up, down):  3.737E-03 0.000E+00

     total cpu time spent up to now is    20705.3 secs

     total energy              =  -22331.03991614 Ry
     estimated scf accuracy    <       0.00002407 Ry

     iteration #  5     ecut=    40.00 Ry     beta= 0.40
     Davidson diagonalization with overlap

---- Real-time Memory Report at c_bands before calling an iterative solver
           689 MiB given to the printing process from OS
             0 MiB allocation reported by mallinfo(arena+hblkhd)
        177691 MiB available memory on the node where the printing process lives
------------------
     ethr =  1.19E-09,  avg # of iterations =  2.0

     negative rho (up, down):  3.737E-03 0.000E+00

     total cpu time spent up to now is    20822.7 secs

     total energy              =  -22331.03991803 Ry
     estimated scf accuracy    <       0.00000340 Ry

     iteration #  6     ecut=    40.00 Ry     beta= 0.40
     Davidson diagonalization with overlap

---- Real-time Memory Report at c_bands before calling an iterative solver
           689 MiB given to the printing process from OS
             0 MiB allocation reported by mallinfo(arena+hblkhd)
        177689 MiB available memory on the node where the printing process lives
------------------
     ethr =  3.39E-10,  avg # of iterations =  2.0

     negative rho (up, down):  3.736E-03 0.000E+00

     total cpu time spent up to now is    20939.8 secs

     total energy              =  -22331.03991835 Ry
     estimated scf accuracy    <       0.00000036 Ry

     iteration #  7     ecut=    40.00 Ry     beta= 0.40
     Davidson diagonalization with overlap

---- Real-time Memory Report at c_bands before calling an iterative solver
           689 MiB given to the printing process from OS
             0 MiB allocation reported by mallinfo(arena+hblkhd)
        177687 MiB available memory on the node where the printing process lives
------------------
