
     Program PWSCF v.7.3.1 starts on 27Mar2025 at 11:36:40 

     This program is part of the open-source Quantum ESPRESSO suite
     for quantum simulation of materials; please cite
         "P. Giannozzi et al., J. Phys.:Condens. Matter 21 395502 (2009);
         "P. Giannozzi et al., J. Phys.:Condens. Matter 29 465901 (2017);
         "P. Giannozzi et al., J. Chem. Phys. 152 154105 (2020);
          URL http://www.quantum-espresso.org", 
     in publications or presentations arising from this work. More details at
     http://www.quantum-espresso.org/quote

     Parallel version (MPI), running on    33 processors

     MPI processes distributed on     1 nodes
     22240 MiB available memory on the printing compute node when the environment starts

     Waiting for input...
     Reading input from standard input
Warning: card &CELL ignored
Warning: card   CELL_DOFREE = 'ALL' ignored
Warning: card / ignored

     Current dimensions of program PWSCF are:
     Max number of different atomic species (ntypx) = 10
     Max number of k-points (npk) =  40000
     Max angular momentum in pseudopotentials (lmaxx) =  4
     Found identity + (  0.0000 -0.5000  0.0000) symmetry
     This is a supercell, fractional translations are disabled

     R & G space division:  proc/nbgrp/npool/nimage =      33
     Subspace diagonalization in iterative solution of the eigenvalue problem:
     one sub-group per band group will be used
     custom distributed-memory algorithm (size of sub-group:  5*  5 procs)


     Parallelization info
     --------------------
     sticks:   dense  smooth     PW     G-vecs:    dense   smooth      PW
     Min         245     140     36                38015    16424    2211
     Max         246     141     37                38023    16429    2226
     Sum        8103    4637   1215              1254623   542067   73181

     Using Slab Decomposition



     bravais-lattice index     =            0
     lattice parameter (alat)  =      18.4179  a.u.
     unit-cell volume          =   15858.2170 (a.u.)^3
     number of atoms/cell      =           48
     number of atomic types    =            1
     number of electrons       =       960.00
     number of Kohn-Sham states=          576
     kinetic-energy cutoff     =      40.0000  Ry
     charge density cutoff     =     280.0000  Ry
     scf convergence threshold =      1.0E-06
     mixing beta               =       0.4000
     number of iterations used =            8  plain     mixing
     energy convergence thresh.=      1.0E-05
     force convergence thresh. =      5.0E-04
     Exchange-correlation= SLA  PW   PBE  PBE
                           (   1   4   3   4   0   0   0)
     nstep                     =          100


     celldm(1)=  18.417879  celldm(2)=   0.000000  celldm(3)=   0.000000
     celldm(4)=   0.000000  celldm(5)=   0.000000  celldm(6)=   0.000000

     crystal axes: (cart. coord. in units of alat)
               a(1) = (   1.000000   0.000000   0.000000 )  
               a(2) = (   0.000000   1.072963   0.000000 )  
               a(3) = (   0.000000  -1.365810   2.365652 )  

     reciprocal axes: (cart. coord. in units 2 pi/alat)
               b(1) = (  1.000000  0.000000 -0.000000 )  
               b(2) = ( -0.000000  0.931999  0.538090 )  
               b(3) = (  0.000000  0.000000  0.422716 )  


     PseudoPot. # 1 for Zn read from file:
     /home/ys/qepseudo/SSSP_1.3.0_PBE_efficiency/Zn_pbe_v1.uspp.F.UPF
     MD5 check sum: df62231357ef9e81f77b2b3087fa5675
     Pseudo is Ultrasoft, Zval = 20.0
     Generated by new atomic code, or converted to UPF format
     Using radial grid of  943 points,  6 beta functions with: 
                l(1) =   0
                l(2) =   0
                l(3) =   1
                l(4) =   1
                l(5) =   2
                l(6) =   2
     Q(r) pseudized with  8 coefficients,  rinner =    1.100   1.100   1.100
                                                       1.100   1.100

     atomic species   valence    mass     pseudopotential
     Zn               20.00    65.38000     Zn( 1.00)

     No symmetry found


                                    s                        frac. trans.

      isym =  1     identity                                     

 cryst.   s( 1) = (     1          0          0      )
                  (     0          1          0      )
                  (     0          0          1      )

 cart.    s( 1) = (  1.0000000  0.0000000  0.0000000 )
                  (  0.0000000  1.0000000 -0.0000000 )
                  (  0.0000000  0.0000000  1.0000000 )


   Cartesian axes

     site n.     atom                  positions (alat units)
         1        Zn     tau(   1) = (   0.1250000   0.1341203   0.0774344  )
         2        Zn     tau(   2) = (   0.1250000   0.6706017   0.0774344  )
         3        Zn     tau(   3) = (   0.1250000   0.0000000   0.3097377  )
         4        Zn     tau(   4) = (   0.1250000   0.5364814   0.3097377  )
         5        Zn     tau(   5) = (   0.1250000  -0.1341203   0.5420409  )
         6        Zn     tau(   6) = (   0.1250000   0.4023610   0.5420409  )
         7        Zn     tau(   7) = (   0.1250000   0.4023610   0.0774344  )
         8        Zn     tau(   8) = (   0.1250000   0.9388424   0.0774344  )
         9        Zn     tau(   9) = (   0.1250000   0.2682407   0.3097377  )
        10        Zn     tau(  10) = (   0.1250000   0.8047221   0.3097377  )
        11        Zn     tau(  11) = (   0.1250000   0.1341203   0.5420409  )
        12        Zn     tau(  12) = (   0.1250000   0.6706017   0.5420409  )
        13        Zn     tau(  13) = (   0.6250000   0.1341203   0.0774344  )
        14        Zn     tau(  14) = (   0.6250000   0.6706017   0.0774344  )
        15        Zn     tau(  15) = (   0.6250000   0.0000000   0.3097377  )
        16        Zn     tau(  16) = (   0.6250000   0.5364814   0.3097377  )
        17        Zn     tau(  17) = (   0.6250000  -0.1341203   0.5420409  )
        18        Zn     tau(  18) = (   0.6250000   0.4023610   0.5420409  )
        19        Zn     tau(  19) = (   0.6250000   0.4023610   0.0774344  )
        20        Zn     tau(  20) = (   0.6250000   0.9388424   0.0774344  )
        21        Zn     tau(  21) = (   0.6250000   0.2682407   0.3097377  )
        22        Zn     tau(  22) = (   0.6250000   0.8047221   0.3097377  )
        23        Zn     tau(  23) = (   0.6250000   0.1341203   0.5420409  )
        24        Zn     tau(  24) = (   0.6250000   0.6706017   0.5420409  )
        25        Zn     tau(  25) = (   0.3750000   0.0000000   0.1548688  )
        26        Zn     tau(  26) = (   0.3750000   0.5364814   0.1548688  )
        27        Zn     tau(  27) = (   0.3750000  -0.1341203   0.3871720  )
        28        Zn     tau(  28) = (   0.3750000   0.4023610   0.3871720  )
        29        Zn     tau(  29) = (   0.3750000  -0.2682407   0.6194753  )
        30        Zn     tau(  30) = (   0.3750000   0.2682407   0.6194753  )
        31        Zn     tau(  31) = (   0.3750000   0.2682407   0.1548688  )
        32        Zn     tau(  32) = (   0.3750000   0.8047221   0.1548688  )
        33        Zn     tau(  33) = (   0.3750000   0.1341203   0.3871720  )
        34        Zn     tau(  34) = (   0.3750000   0.6706017   0.3871720  )
        35        Zn     tau(  35) = (   0.3750000   0.0000000   0.6194753  )
        36        Zn     tau(  36) = (   0.3750000   0.5364814   0.6194753  )
        37        Zn     tau(  37) = (   0.8750000   0.0000000   0.1548688  )
        38        Zn     tau(  38) = (   0.8750000   0.5364814   0.1548688  )
        39        Zn     tau(  39) = (   0.8750000  -0.1341203   0.3871720  )
        40        Zn     tau(  40) = (   0.8750000   0.4023610   0.3871720  )
        41        Zn     tau(  41) = (   0.8750000  -0.2682407   0.6194753  )
        42        Zn     tau(  42) = (   0.8750000   0.2682407   0.6194753  )
        43        Zn     tau(  43) = (   0.8750000   0.2682407   0.1548688  )
        44        Zn     tau(  44) = (   0.8750000   0.8047221   0.1548688  )
        45        Zn     tau(  45) = (   0.8750000   0.1341203   0.3871720  )
        46        Zn     tau(  46) = (   0.8750000   0.6706017   0.3871720  )
        47        Zn     tau(  47) = (   0.8750000   0.0000000   0.6194753  )
        48        Zn     tau(  48) = (   0.8750000   0.5364814   0.6194753  )

   Crystallographic axes

     site n.     atom                  positions (cryst. coord.)
         1        Zn     tau(   1) = (  0.1250000  0.1666667  0.0327328  )
         2        Zn     tau(   2) = (  0.1250000  0.6666667  0.0327328  )
         3        Zn     tau(   3) = (  0.1250000  0.1666667  0.1309312  )
         4        Zn     tau(   4) = (  0.1250000  0.6666667  0.1309312  )
         5        Zn     tau(   5) = (  0.1250000  0.1666667  0.2291296  )
         6        Zn     tau(   6) = (  0.1250000  0.6666667  0.2291296  )
         7        Zn     tau(   7) = (  0.1250000  0.4166667  0.0327328  )
         8        Zn     tau(   8) = (  0.1250000  0.9166667  0.0327328  )
         9        Zn     tau(   9) = (  0.1250000  0.4166667  0.1309312  )
        10        Zn     tau(  10) = (  0.1250000  0.9166667  0.1309312  )
        11        Zn     tau(  11) = (  0.1250000  0.4166667  0.2291296  )
        12        Zn     tau(  12) = (  0.1250000  0.9166667  0.2291296  )
        13        Zn     tau(  13) = (  0.6250000  0.1666667  0.0327328  )
        14        Zn     tau(  14) = (  0.6250000  0.6666667  0.0327328  )
        15        Zn     tau(  15) = (  0.6250000  0.1666667  0.1309312  )
        16        Zn     tau(  16) = (  0.6250000  0.6666667  0.1309312  )
        17        Zn     tau(  17) = (  0.6250000  0.1666667  0.2291296  )
        18        Zn     tau(  18) = (  0.6250000  0.6666667  0.2291296  )
        19        Zn     tau(  19) = (  0.6250000  0.4166667  0.0327328  )
        20        Zn     tau(  20) = (  0.6250000  0.9166667  0.0327328  )
        21        Zn     tau(  21) = (  0.6250000  0.4166667  0.1309312  )
        22        Zn     tau(  22) = (  0.6250000  0.9166667  0.1309312  )
        23        Zn     tau(  23) = (  0.6250000  0.4166667  0.2291296  )
        24        Zn     tau(  24) = (  0.6250000  0.9166667  0.2291296  )
        25        Zn     tau(  25) = (  0.3750000  0.0833333  0.0654656  )
        26        Zn     tau(  26) = (  0.3750000  0.5833333  0.0654656  )
        27        Zn     tau(  27) = (  0.3750000  0.0833333  0.1636640  )
        28        Zn     tau(  28) = (  0.3750000  0.5833333  0.1636640  )
        29        Zn     tau(  29) = (  0.3750000  0.0833333  0.2618624  )
        30        Zn     tau(  30) = (  0.3750000  0.5833334  0.2618624  )
        31        Zn     tau(  31) = (  0.3750000  0.3333333  0.0654656  )
        32        Zn     tau(  32) = (  0.3750000  0.8333334  0.0654656  )
        33        Zn     tau(  33) = (  0.3750000  0.3333333  0.1636640  )
        34        Zn     tau(  34) = (  0.3750000  0.8333333  0.1636640  )
        35        Zn     tau(  35) = (  0.3750000  0.3333334  0.2618624  )
        36        Zn     tau(  36) = (  0.3750000  0.8333334  0.2618624  )
        37        Zn     tau(  37) = (  0.8750000  0.0833333  0.0654656  )
        38        Zn     tau(  38) = (  0.8750000  0.5833333  0.0654656  )
        39        Zn     tau(  39) = (  0.8750000  0.0833333  0.1636640  )
        40        Zn     tau(  40) = (  0.8750000  0.5833333  0.1636640  )
        41        Zn     tau(  41) = (  0.8750000  0.0833333  0.2618624  )
        42        Zn     tau(  42) = (  0.8750000  0.5833334  0.2618624  )
        43        Zn     tau(  43) = (  0.8750000  0.3333333  0.0654656  )
        44        Zn     tau(  44) = (  0.8750000  0.8333334  0.0654656  )
        45        Zn     tau(  45) = (  0.8750000  0.3333333  0.1636640  )
        46        Zn     tau(  46) = (  0.8750000  0.8333333  0.1636640  )
        47        Zn     tau(  47) = (  0.8750000  0.3333334  0.2618624  )
        48        Zn     tau(  48) = (  0.8750000  0.8333334  0.2618624  )

     number of k points=     5  Marzari-Vanderbilt smearing, width (Ry)=  0.0200
                       cart. coord. in units 2pi/alat
        k(    1) = (   0.0000000   0.0000000   0.0000000), wk =   0.2222222
        k(    2) = (   0.0000000   0.3106663   0.1793633), wk =   0.4444444
        k(    3) = (   0.3333333   0.0000000   0.0000000), wk =   0.4444444
        k(    4) = (   0.3333333   0.3106663   0.1793633), wk =   0.4444444
        k(    5) = (   0.3333333  -0.3106663  -0.1793633), wk =   0.4444444

                       cryst. coord.
        k(    1) = (   0.0000000   0.0000000   0.0000000), wk =   0.2222222
        k(    2) = (   0.0000000   0.3333333  -0.0000000), wk =   0.4444444
        k(    3) = (   0.3333333   0.0000000   0.0000000), wk =   0.4444444
        k(    4) = (   0.3333333   0.3333333  -0.0000000), wk =   0.4444444
        k(    5) = (   0.3333333  -0.3333333   0.0000000), wk =   0.4444444

     Dense  grid:  1254623 G-vectors     FFT dimensions: ( 100, 108, 270)

     Smooth grid:   542067 G-vectors     FFT dimensions: (  75,  80, 216)

     Dynamical RAM for                 wfc:      18.04 MB

     Dynamical RAM for     wfc (w. buffer):     108.21 MB

     Dynamical RAM for           str. fact:       0.58 MB

     Dynamical RAM for           local pot:       0.00 MB

     Dynamical RAM for          nlocal pot:      27.05 MB

     Dynamical RAM for                qrad:       1.34 MB

     Dynamical RAM for          rho,v,vnew:       3.97 MB

     Dynamical RAM for               rhoin:       1.32 MB

     Dynamical RAM for            rho*nmix:       9.28 MB

     Dynamical RAM for           G-vectors:       2.30 MB

     Dynamical RAM for          h,s,v(r/c):       2.42 MB

     Dynamical RAM for          <psi|beta>:       7.59 MB

     Dynamical RAM for                 psi:      36.07 MB

     Dynamical RAM for                hpsi:      36.07 MB

     Dynamical RAM for                spsi:      36.07 MB

     Dynamical RAM for      wfcinit/wfcrot:      47.99 MB

     Dynamical RAM for           addusdens:     135.76 MB

     Dynamical RAM for          addusforce:     190.77 MB

     Dynamical RAM for         addusstress:     116.61 MB

     Estimated static dynamical RAM per process >     149.64 MB

     Estimated max dynamical RAM per process >     349.69 MB

     Estimated total dynamical RAM >      11.27 GB

     Initial potential from superposition of free atoms

     starting charge     959.9932, renormalised to     960.0000

     negative rho (up, down):  4.176E-03 0.000E+00
     Starting wfcs are  624 randomized atomic wfcs

     total cpu time spent up to now is       61.5 secs

     Self-consistent Calculation

     iteration #  1     ecut=    40.00 Ry     beta= 0.40
     Davidson diagonalization with overlap

---- Real-time Memory Report at c_bands before calling an iterative solver
           217 MiB given to the printing process from OS
             0 MiB allocation reported by mallinfo(arena+hblkhd)
         16707 MiB available memory on the node where the printing process lives
------------------
     ethr =  1.00E-02,  avg # of iterations =  8.4

     Threshold (ethr) on eigenvalues was too large:
     Diagonalizing with lowered threshold

     Davidson diagonalization with overlap

---- Real-time Memory Report at c_bands before calling an iterative solver
           315 MiB given to the printing process from OS
             0 MiB allocation reported by mallinfo(arena+hblkhd)
         15741 MiB available memory on the node where the printing process lives
------------------
     ethr =  1.40E-04,  avg # of iterations =  9.8

     negative rho (up, down):  4.997E-03 0.000E+00

     total cpu time spent up to now is      869.8 secs

     total energy              =  -22153.46589821 Ry
     estimated scf accuracy    <       1.38161267 Ry

     iteration #  2     ecut=    40.00 Ry     beta= 0.40
     Davidson diagonalization with overlap

---- Real-time Memory Report at c_bands before calling an iterative solver
           327 MiB given to the printing process from OS
             0 MiB allocation reported by mallinfo(arena+hblkhd)
         15645 MiB available memory on the node where the printing process lives
------------------
     ethr =  1.44E-04,  avg # of iterations =  2.8

     negative rho (up, down):  5.548E-03 0.000E+00

     total cpu time spent up to now is     1282.0 secs

     total energy              =  -22153.79692293 Ry
     estimated scf accuracy    <       0.24002062 Ry

     iteration #  3     ecut=    40.00 Ry     beta= 0.40
     Davidson diagonalization with overlap

---- Real-time Memory Report at c_bands before calling an iterative solver
           331 MiB given to the printing process from OS
             0 MiB allocation reported by mallinfo(arena+hblkhd)
         15623 MiB available memory on the node where the printing process lives
------------------
     ethr =  2.50E-05,  avg # of iterations =  5.0

     negative rho (up, down):  5.840E-03 0.000E+00

     total cpu time spent up to now is     1635.5 secs

     total energy              =  -22153.81043402 Ry
     estimated scf accuracy    <       0.04577609 Ry

     iteration #  4     ecut=    40.00 Ry     beta= 0.40
     Davidson diagonalization with overlap

---- Real-time Memory Report at c_bands before calling an iterative solver
           331 MiB given to the printing process from OS
             0 MiB allocation reported by mallinfo(arena+hblkhd)
         15607 MiB available memory on the node where the printing process lives
------------------
     ethr =  4.77E-06,  avg # of iterations = 11.4

     negative rho (up, down):  6.033E-03 0.000E+00

     total cpu time spent up to now is     2078.1 secs

     total energy              =  -22153.80884766 Ry
     estimated scf accuracy    <       0.06119594 Ry

     iteration #  5     ecut=    40.00 Ry     beta= 0.40
     Davidson diagonalization with overlap

---- Real-time Memory Report at c_bands before calling an iterative solver
           332 MiB given to the printing process from OS
             0 MiB allocation reported by mallinfo(arena+hblkhd)
         15590 MiB available memory on the node where the printing process lives
------------------
     ethr =  4.77E-06,  avg # of iterations =  9.6

     negative rho (up, down):  6.127E-03 0.000E+00

     total cpu time spent up to now is     2458.9 secs

     total energy              =  -22153.81502638 Ry
     estimated scf accuracy    <       0.00186016 Ry

     iteration #  6     ecut=    40.00 Ry     beta= 0.40
     Davidson diagonalization with overlap

---- Real-time Memory Report at c_bands before calling an iterative solver
           333 MiB given to the printing process from OS
             0 MiB allocation reported by mallinfo(arena+hblkhd)
         15571 MiB available memory on the node where the printing process lives
------------------
     ethr =  1.94E-07,  avg # of iterations =  4.4

     negative rho (up, down):  6.171E-03 0.000E+00

     total cpu time spent up to now is     2881.3 secs

     total energy              =  -22153.81542526 Ry
     estimated scf accuracy    <       0.00078082 Ry

     iteration #  7     ecut=    40.00 Ry     beta= 0.40
     Davidson diagonalization with overlap

---- Real-time Memory Report at c_bands before calling an iterative solver
           333 MiB given to the printing process from OS
             0 MiB allocation reported by mallinfo(arena+hblkhd)
         15552 MiB available memory on the node where the printing process lives
------------------
     ethr =  8.13E-08,  avg # of iterations =  2.0

     negative rho (up, down):  6.209E-03 0.000E+00

     total cpu time spent up to now is     3227.1 secs

     total energy              =  -22153.81548157 Ry
     estimated scf accuracy    <       0.00045190 Ry

     iteration #  8     ecut=    40.00 Ry     beta= 0.40
     Davidson diagonalization with overlap

---- Real-time Memory Report at c_bands before calling an iterative solver
           334 MiB given to the printing process from OS
             0 MiB allocation reported by mallinfo(arena+hblkhd)
         15537 MiB available memory on the node where the printing process lives
------------------
     ethr =  4.71E-08,  avg # of iterations =  1.0

     negative rho (up, down):  6.233E-03 0.000E+00

     total cpu time spent up to now is     3478.2 secs

     total energy              =  -22153.81550370 Ry
     estimated scf accuracy    <       0.00001567 Ry

     iteration #  9     ecut=    40.00 Ry     beta= 0.40
     Davidson diagonalization with overlap

---- Real-time Memory Report at c_bands before calling an iterative solver
           334 MiB given to the printing process from OS
             0 MiB allocation reported by mallinfo(arena+hblkhd)
         15520 MiB available memory on the node where the printing process lives
------------------
     ethr =  1.63E-09,  avg # of iterations =  2.4

     negative rho (up, down):  6.247E-03 0.000E+00

     total cpu time spent up to now is     3903.4 secs

     total energy              =  -22153.81550922 Ry
     estimated scf accuracy    <       0.00001897 Ry

     iteration # 10     ecut=    40.00 Ry     beta= 0.40
     Davidson diagonalization with overlap

---- Real-time Memory Report at c_bands before calling an iterative solver
           335 MiB given to the printing process from OS
             0 MiB allocation reported by mallinfo(arena+hblkhd)
         15497 MiB available memory on the node where the printing process lives
------------------
     ethr =  1.63E-09,  avg # of iterations =  1.8

     negative rho (up, down):  6.255E-03 0.000E+00

     total cpu time spent up to now is     4230.7 secs

     total energy              =  -22153.81550788 Ry
     estimated scf accuracy    <       0.00000643 Ry

     iteration # 11     ecut=    40.00 Ry     beta= 0.40
     Davidson diagonalization with overlap

---- Real-time Memory Report at c_bands before calling an iterative solver
           335 MiB given to the printing process from OS
             0 MiB allocation reported by mallinfo(arena+hblkhd)
         15504 MiB available memory on the node where the printing process lives
------------------
     ethr =  6.70E-10,  avg # of iterations =  2.0

     negative rho (up, down):  6.268E-03 0.000E+00

     total cpu time spent up to now is     4645.7 secs

     End of self-consistent calculation

          k = 0.0000 0.0000 0.0000 ( 67685 PWs)   bands (ev):

  -125.4030-125.4025-125.4024-125.4021-125.4020-125.4018-125.4017-125.4016
  -125.4015-125.4015-125.4011-125.4010-125.4009-125.4008-125.4006-125.4001
  -125.1560-125.1557-125.1554-125.1552-125.1552-125.1552-125.1548-125.1548
  -125.1545-125.1545-125.1544-125.1543-125.1543-125.1539-125.1536-125.1535
  -125.1104-125.1103-125.1102-125.1099-125.1096-125.1096-125.1094-125.1094
  -125.1093-125.1093-125.1090-125.1090-125.1087-125.1085-125.1085-125.1081
   -79.5619 -79.5618 -79.5612 -79.5610 -79.5609 -79.5608 -79.5604 -79.5600
   -79.5597 -79.5597 -79.5595 -79.5595 -79.5592 -79.5592 -79.5588 -79.5588
   -79.5583 -79.5581 -79.5578 -79.5577 -79.5573 -79.5554 -79.5553 -79.5526
   -79.5526 -79.5525 -79.5525 -79.5523 -79.5522 -79.5509 -79.5508 -79.5499
   -79.5496 -79.5492 -79.5492 -79.5481 -79.5481 -79.5478 -79.5478 -79.5476
   -79.5473 -79.5473 -79.5471 -79.5471 -79.5371 -79.5360 -79.5359 -79.5347
   -79.3177 -79.3174 -79.3170 -79.3169 -79.3097 -79.3093 -79.3090 -79.3089
   -79.3088 -79.3088 -79.3084 -79.3084 -79.3081 -79.3081 -79.3080 -79.3080
   -79.3079 -79.3079 -79.3076 -79.3075 -79.3072 -79.3071 -79.3071 -79.3070
   -79.3068 -79.3068 -79.3065 -79.3064 -79.3061 -79.3061 -79.3060 -79.3060
   -79.3058 -79.3054 -79.3054 -79.3054 -79.3051 -79.3050 -79.3050 -79.3049
   -79.3048 -79.3047 -79.3046 -79.3046 -79.2931 -79.2928 -79.2924 -79.2923
   -79.2818 -79.2817 -79.2815 -79.2812 -79.2809 -79.2809 -79.2808 -79.2808
   -79.2807 -79.2807 -79.2804 -79.2803 -79.2800 -79.2799 -79.2798 -79.2795
   -79.2653 -79.2653 -79.2650 -79.2648 -79.2547 -79.2547 -79.2542 -79.2540
   -79.2538 -79.2538 -79.2537 -79.2536 -79.2535 -79.2535 -79.2532 -79.2532
   -79.2531 -79.2531 -79.2530 -79.2530 -79.2529 -79.2529 -79.2528 -79.2528
   -79.2526 -79.2526 -79.2525 -79.2523 -79.2409 -79.2407 -79.2406 -79.2403
    -8.8433  -7.6100  -7.6100  -7.5836  -7.5836  -7.3298  -7.1182  -7.0860
    -7.0860  -7.0538  -7.0529  -7.0529  -7.0307  -7.0237  -7.0236  -7.0113
    -7.0113  -6.9471  -6.9471  -6.9471  -6.9471  -6.8878  -6.8878  -6.8863
    -6.8863  -6.8795  -6.8795  -6.8302  -6.8302  -6.8246  -6.8245  -6.8245
    -6.8245  -6.8216  -6.8126  -6.8126  -6.7877  -6.7877  -6.7783  -6.7783
    -6.7777  -6.7777  -6.7723  -6.7340  -6.7340  -6.6794  -6.6794  -6.6794
    -6.6794  -6.6768  -6.6767  -6.6467  -6.6467  -6.6388  -6.6387  -6.6387
    -6.6387  -6.6060  -6.5957  -6.5957  -6.5440  -6.5440  -6.5416  -6.5416
    -6.5093  -6.5093  -6.5093  -6.5093  -6.5073  -6.5072  -6.4442  -6.4442
    -6.4052  -6.3994  -6.3994  -6.3939  -6.3939  -6.3818  -6.3818  -6.3733
    -6.3733  -6.3726  -6.3726  -6.3578  -6.3400  -6.3400  -6.3309  -6.3115
    -6.3115  -6.3114  -6.3114  -6.3034  -6.3034  -6.2978  -6.2978  -6.2849
    -6.2789  -6.2789  -6.2686  -6.2634  -6.2633  -6.2609  -6.2399  -6.2399
    -6.2349  -6.2349  -6.2295  -6.2294  -6.2229  -6.2229  -6.2228  -6.2228
    -6.2172  -6.2163  -6.2084  -6.1931  -6.1931  -6.1635  -6.1634  -6.1259
    -6.1259  -6.1205  -6.1205  -6.1171  -6.1170  -6.0943  -6.0943  -6.0943
    -6.0943  -6.0942  -6.0942  -6.0696  -6.0696  -6.0419  -6.0419  -6.0368
    -6.0368  -6.0368  -6.0368  -6.0360  -6.0360  -6.0331  -6.0304  -6.0173
    -6.0173  -6.0030  -6.0029  -6.0029  -6.0029  -5.9876  -5.9709  -5.9709
    -5.9691  -5.9691  -5.9602  -5.9602  -5.9525  -5.9525  -5.9516  -5.9516
    -5.9279  -5.9238  -5.9238  -5.9238  -5.9238  -5.9128  -5.9128  -5.9127
    -5.9127  -5.9099  -5.8934  -5.8934  -5.8933  -5.8933  -5.8840  -5.8840
    -5.8802  -5.8802  -5.8799  -5.8531  -5.8489  -5.8489  -5.8434  -5.8434
    -5.8309  -5.8308  -5.8187  -5.8179  -5.8179  -5.8179  -5.8179  -5.8142
    -5.8142  -5.8131  -5.8131  -5.7890  -5.7890  -5.7797  -5.7797  -5.7760
    -5.7539  -5.7339  -5.7338  -5.7333  -5.7333  -5.7272  -5.7271  -5.7250
    -5.7250  -5.7190  -5.7190  -5.7110  -5.7110  -5.6961  -5.6961  -5.6961
    -5.6961  -5.6840  -5.6840  -5.6814  -5.6814  -5.6814  -5.6814  -5.6763
    -5.6763  -5.6745  -5.6745  -5.6631  -5.6631  -5.6631  -5.6630  -5.6621
    -5.5827  -5.5826  -5.5731  -5.5669  -5.5597  -5.5597  -5.5590  -5.5577
    -5.5229  -5.5229  -5.5201  -5.5200  -5.4767  -5.4766  -4.9074  -4.9074
    -4.9074  -4.9074  -4.7462  -4.7462  -4.6755  -4.6755  -3.3519  -3.2933
    -3.2933  -3.2933  -3.2933  -2.3900  -2.3900  -2.0800  -2.0800  -1.7518
    -1.7517  -1.7286  -1.3456  -1.1643  -1.1643  -0.7215  -0.7215  -0.6480
    -0.6479  -0.4826  -0.4102  -0.4102  -0.4102  -0.4101  -0.3807  -0.3807
     0.1492   0.1493   0.1502   0.1502   0.3274   0.4003   0.9991   0.9991
     1.0593   1.0593   1.4525   1.4525   1.9429   1.9429   1.9822   1.9822
     2.0749   2.0749   2.5691   2.6640   2.6640   2.6640   2.6640   3.0338
     3.0652   3.5435   3.5435   3.7815   3.7816   4.0536   4.0536   4.0697
     4.0697   4.2330   4.2330   4.4826   4.4826   4.6218   4.6218   4.9283
     4.9283   4.9344   5.0327   5.0327   5.0396   5.3348   5.3348   5.6764
     5.6764   5.7664   6.2001   6.2001   6.2001   6.2001   6.2083   6.2083
     6.3361   6.4765   6.4765   6.4765   6.4765   6.4836   6.4837   6.5511
     6.5511   6.6120   6.6123   6.6257   6.6257   6.6772   6.6772   6.6834
     6.7147   6.7147   6.7435   6.7438   7.0303   7.0303   7.5203   7.5203
     7.6209   7.6209   7.6309   7.7263   7.7264   7.7264   7.7264   7.7442
     7.7450   7.8195   7.8195   7.8197   7.8197   7.9518   7.9528   8.1594
     8.1594   8.2320   8.2321   8.2322   8.2322   8.2390   8.2390   8.3072

     occupation numbers 
     1.0000   1.0000   1.0000   1.0000   1.0000   1.0000   1.0000   1.0000
     1.0000   1.0000   1.0000   1.0000   1.0000   1.0000   1.0000   1.0000
     1.0000   1.0000   1.0000   1.0000   1.0000   1.0000   1.0000   1.0000
     1.0000   1.0000   1.0000   1.0000   1.0000   1.0000   1.0000   1.0000
     1.0000   1.0000   1.0000   1.0000   1.0000   1.0000   1.0000   1.0000
     1.0000   1.0000   1.0000   1.0000   1.0000   1.0000   1.0000   1.0000
     1.0000   1.0000   1.0000   1.0000   1.0000   1.0000   1.0000   1.0000
     1.0000   1.0000   1.0000   1.0000   1.0000   1.0000   1.0000   1.0000
     1.0000   1.0000   1.0000   1.0000   1.0000   1.0000   1.0000   1.0000
     1.0000   1.0000   1.0000   1.0000   1.0000   1.0000   1.0000   1.0000
     1.0000   1.0000   1.0000   1.0000   1.0000   1.0000   1.0000   1.0000
     1.0000   1.0000   1.0000   1.0000   1.0000   1.0000   1.0000   1.0000
     1.0000   1.0000   1.0000   1.0000   1.0000   1.0000   1.0000   1.0000
     1.0000   1.0000   1.0000   1.0000   1.0000   1.0000   1.0000   1.0000
     1.0000   1.0000   1.0000   1.0000   1.0000   1.0000   1.0000   1.0000
     1.0000   1.0000   1.0000   1.0000   1.0000   1.0000   1.0000   1.0000
     1.0000   1.0000   1.0000   1.0000   1.0000   1.0000   1.0000   1.0000
     1.0000   1.0000   1.0000   1.0000   1.0000   1.0000   1.0000   1.0000
     1.0000   1.0000   1.0000   1.0000   1.0000   1.0000   1.0000   1.0000
     1.0000   1.0000   1.0000   1.0000   1.0000   1.0000   1.0000   1.0000
     1.0000   1.0000   1.0000   1.0000   1.0000   1.0000   1.0000   1.0000
     1.0000   1.0000   1.0000   1.0000   1.0000   1.0000   1.0000   1.0000
     1.0000   1.0000   1.0000   1.0000   1.0000   1.0000   1.0000   1.0000
     1.0000   1.0000   1.0000   1.0000   1.0000   1.0000   1.0000   1.0000
     1.0000   1.0000   1.0000   1.0000   1.0000   1.0000   1.0000   1.0000
     1.0000   1.0000   1.0000   1.0000   1.0000   1.0000   1.0000   1.0000
     1.0000   1.0000   1.0000   1.0000   1.0000   1.0000   1.0000   1.0000
     1.0000   1.0000   1.0000   1.0000   1.0000   1.0000   1.0000   1.0000
     1.0000   1.0000   1.0000   1.0000   1.0000   1.0000   1.0000   1.0000
     1.0000   1.0000   1.0000   1.0000   1.0000   1.0000   1.0000   1.0000
     1.0000   1.0000   1.0000   1.0000   1.0000   1.0000   1.0000   1.0000
     1.0000   1.0000   1.0000   1.0000   1.0000   1.0000   1.0000   1.0000
     1.0000   1.0000   1.0000   1.0000   1.0000   1.0000   1.0000   1.0000
     1.0000   1.0000   1.0000   1.0000   1.0000   1.0000   1.0000   1.0000
     1.0000   1.0000   1.0000   1.0000   1.0000   1.0000   1.0000   1.0000
     1.0000   1.0000   1.0000   1.0000   1.0000   1.0000   1.0000   1.0000
     1.0000   1.0000   1.0000   1.0000   1.0000   1.0000   1.0000   1.0000
     1.0000   1.0000   1.0000   1.0000   1.0000   1.0000   1.0000   1.0000
     1.0000   1.0000   1.0000   1.0000   1.0000   1.0000   1.0000   1.0000
     1.0000   1.0000   1.0000   1.0000   1.0000   1.0000   1.0000   1.0000
     1.0000   1.0000   1.0000   1.0000   1.0000   1.0000   1.0000   1.0000
     1.0000   1.0000   1.0000   1.0000   1.0000   1.0000   1.0000   1.0000
     1.0000   1.0000   1.0000   1.0000   1.0000   1.0000   1.0000   1.0000
     1.0000   1.0000   1.0000   1.0000   1.0000   1.0000   1.0000   1.0000
     1.0000   1.0000   1.0000   1.0000   1.0000   1.0000   1.0000   1.0000
     1.0000   1.0000   1.0000   1.0000   1.0000   1.0000   1.0000   1.0000
     1.0000   1.0000   1.0000   1.0000   1.0000   1.0000   1.0000   1.0000
     1.0000   1.0000   1.0000   1.0000   1.0000   1.0000   1.0000   1.0000
     1.0000   1.0000   1.0000   1.0000   1.0000   1.0000   1.0000   1.0000
     1.0000   1.0000   1.0000   1.0000   1.0000   1.0000   1.0000   1.0000
     1.0000   1.0000   1.0000   1.0000   1.0000   1.0000   1.0000   1.0000
     1.0000   1.0000   1.0000   1.0000   1.0000   1.0000   1.0000   1.0000
     1.0000   1.0000   1.0000   1.0000   1.0000   1.0000   1.0000   1.0000
     1.0000   1.0000   1.0000   1.0000   1.0000   1.0000   1.0000   1.0000
     1.0000   1.0000   1.0000   1.0000   1.0000   1.0000   1.0000   1.0000
     1.0000   1.0000   1.0000   1.0000   1.0000   1.0000   1.0000   1.0000
     1.0000   1.0000   1.0000   1.0000   1.0000   1.0000   1.0000   1.0000
     1.0000   1.0000   1.0000   1.0000   1.0000   1.0000   1.0000   1.0000
     1.0000   1.0000   1.0000   1.0000   1.0000   1.0000   1.0000   1.0000
     1.0000   1.0000   1.0000   1.0000   1.0009   1.0028   0.8643   0.8643
     0.7147   0.7147   0.0277   0.0277   0.0000   0.0000   0.0000   0.0000
     0.0000   0.0000   0.0000   0.0000   0.0000   0.0000   0.0000   0.0000
     0.0000   0.0000   0.0000   0.0000   0.0000   0.0000   0.0000   0.0000
     0.0000   0.0000   0.0000   0.0000   0.0000   0.0000   0.0000   0.0000
     0.0000   0.0000   0.0000   0.0000   0.0000   0.0000   0.0000   0.0000
     0.0000   0.0000   0.0000   0.0000   0.0000   0.0000   0.0000   0.0000
     0.0000   0.0000   0.0000   0.0000   0.0000   0.0000   0.0000   0.0000
     0.0000   0.0000   0.0000   0.0000   0.0000   0.0000   0.0000   0.0000
     0.0000   0.0000   0.0000   0.0000   0.0000   0.0000   0.0000   0.0000
     0.0000   0.0000   0.0000   0.0000   0.0000   0.0000   0.0000   0.0000
     0.0000   0.0000   0.0000   0.0000   0.0000   0.0000   0.0000   0.0000
     0.0000   0.0000   0.0000   0.0000   0.0000   0.0000   0.0000   0.0000

          k = 0.0000 0.3107 0.1794 ( 67822 PWs)   bands (ev):

  -125.4029-125.4025-125.4024-125.4022-125.4021-125.4019-125.4017-125.4016
  -125.4014-125.4012-125.4012-125.4010-125.4009-125.4007-125.4006-125.4002
  -125.1559-125.1556-125.1556-125.1553-125.1552-125.1551-125.1549-125.1548
  -125.1547-125.1544-125.1544-125.1541-125.1540-125.1539-125.1537-125.1536
  -125.1103-125.1102-125.1101-125.1100-125.1099-125.1098-125.1098-125.1094
  -125.1091-125.1090-125.1089-125.1088-125.1087-125.1086-125.1086-125.1082
   -79.5608 -79.5606 -79.5604 -79.5603 -79.5602 -79.5602 -79.5601 -79.5598
   -79.5598 -79.5598 -79.5594 -79.5594 -79.5591 -79.5589 -79.5587 -79.5583
   -79.5582 -79.5582 -79.5576 -79.5575 -79.5573 -79.5566 -79.5561 -79.5560
   -79.5550 -79.5539 -79.5538 -79.5523 -79.5522 -79.5522 -79.5521 -79.5520
   -79.5500 -79.5499 -79.5497 -79.5497 -79.5493 -79.5486 -79.5478 -79.5476
   -79.5432 -79.5420 -79.5419 -79.5411 -79.5387 -79.5376 -79.5375 -79.5364
   -79.3161 -79.3157 -79.3154 -79.3152 -79.3116 -79.3112 -79.3109 -79.3107
   -79.3096 -79.3092 -79.3092 -79.3089 -79.3089 -79.3088 -79.3086 -79.3084
   -79.3084 -79.3080 -79.3080 -79.3078 -79.3077 -79.3077 -79.3075 -79.3074
   -79.3074 -79.3073 -79.3072 -79.3070 -79.3070 -79.3069 -79.3066 -79.3065
   -79.3063 -79.3059 -79.3059 -79.3056 -79.3055 -79.3055 -79.3052 -79.3051
   -79.2993 -79.2989 -79.2986 -79.2984 -79.2948 -79.2944 -79.2941 -79.2939
   -79.2817 -79.2816 -79.2814 -79.2813 -79.2812 -79.2811 -79.2811 -79.2808
   -79.2805 -79.2804 -79.2803 -79.2802 -79.2800 -79.2800 -79.2799 -79.2796
   -79.2637 -79.2636 -79.2634 -79.2631 -79.2592 -79.2591 -79.2590 -79.2587
   -79.2546 -79.2545 -79.2542 -79.2542 -79.2541 -79.2539 -79.2539 -79.2536
   -79.2533 -79.2532 -79.2531 -79.2530 -79.2529 -79.2528 -79.2527 -79.2524
   -79.2470 -79.2469 -79.2468 -79.2464 -79.2425 -79.2424 -79.2423 -79.2420
    -8.6865  -8.2345  -7.4845  -7.4845  -7.2288  -7.1704  -7.1704  -7.0709
    -7.0294  -7.0293  -7.0292  -7.0292  -7.0145  -7.0078  -6.9972  -6.9972
    -6.9845  -6.9844  -6.9838  -6.9728  -6.9523  -6.9521  -6.9521  -6.9215
    -6.9208  -6.9018  -6.9018  -6.8927  -6.8927  -6.8831  -6.8618  -6.8529
    -6.8411  -6.8278  -6.8125  -6.8118  -6.8107  -6.7911  -6.7911  -6.7868
    -6.7740  -6.7739  -6.7549  -6.7442  -6.7442  -6.7418  -6.7311  -6.7310
    -6.7030  -6.6784  -6.6784  -6.6672  -6.6671  -6.6480  -6.6479  -6.6076
    -6.6045  -6.6045  -6.5955  -6.5162  -6.5161  -6.5083  -6.5082  -6.4979
    -6.4943  -6.4942  -6.4511  -6.4495  -6.4437  -6.4437  -6.4421  -6.4387
    -6.4219  -6.4188  -6.4056  -6.3958  -6.3885  -6.3819  -6.3807  -6.3807
    -6.3767  -6.3605  -6.3592  -6.3573  -6.3542  -6.3542  -6.3455  -6.3455
    -6.3398  -6.3301  -6.3298  -6.3296  -6.3292  -6.3269  -6.3217  -6.3215
    -6.3157  -6.3145  -6.3026  -6.2989  -6.2874  -6.2866  -6.2807  -6.2807
    -6.2792  -6.2540  -6.2540  -6.2505  -6.2340  -6.2278  -6.2270  -6.2237
    -6.2237  -6.2203  -6.2147  -6.2146  -6.2060  -6.2021  -6.1859  -6.1616
    -6.1615  -6.1595  -6.1506  -6.1450  -6.1450  -6.1395  -6.1175  -6.1174
    -6.1164  -6.1163  -6.1038  -6.0793  -6.0659  -6.0490  -6.0490  -6.0460
    -6.0343  -6.0343  -6.0338  -6.0208  -5.9976  -5.9965  -5.9940  -5.9938
    -5.9937  -5.9905  -5.9900  -5.9751  -5.9749  -5.9710  -5.9702  -5.9702
    -5.9480  -5.9440  -5.9439  -5.9404  -5.9339  -5.9339  -5.9322  -5.9304
    -5.9304  -5.9295  -5.9115  -5.9115  -5.9079  -5.9079  -5.8943  -5.8839
    -5.8782  -5.8781  -5.8573  -5.8573  -5.8546  -5.8415  -5.8415  -5.8413
    -5.8405  -5.8400  -5.8367  -5.8353  -5.8348  -5.8347  -5.8332  -5.8246
    -5.8160  -5.8118  -5.8079  -5.8079  -5.8078  -5.8048  -5.7999  -5.7999
    -5.7873  -5.7796  -5.7781  -5.7781  -5.7728  -5.7728  -5.7619  -5.7619
    -5.7598  -5.7436  -5.7362  -5.7361  -5.7349  -5.7313  -5.7312  -5.7113
    -5.7109  -5.7031  -5.7031  -5.7030  -5.7030  -5.7021  -5.6935  -5.6765
    -5.6763  -5.6763  -5.6748  -5.6727  -5.6727  -5.6725  -5.6635  -5.6630
    -5.6614  -5.6614  -5.6583  -5.6418  -5.6418  -5.6403  -5.6386  -5.6386
    -5.6180  -5.6109  -5.5996  -5.5925  -5.5865  -5.5604  -5.5604  -5.5600
    -5.5600  -5.5473  -5.5359  -5.5359  -5.4984  -5.3571  -5.3571  -5.3180
    -5.2545  -4.4982  -4.4982  -4.0951  -4.0296  -4.0296  -4.0122  -4.0122
    -3.7910  -3.2077  -2.7842  -2.6580  -2.6580  -2.3994  -2.2542  -2.2542
    -1.5957  -1.5957  -1.4927  -1.2449  -1.1412  -1.1412  -1.0715  -0.9366
    -0.9366  -0.9350  -0.8367  -0.3163  -0.3041   0.1946   0.2197   0.4512
     0.4666   0.5593   0.5593   0.5996   0.8239   0.8785   0.8785   1.1746
     1.1940   1.1940   1.4027   1.5382   1.6702   1.7622   1.7622   1.9660
     2.2857   2.3135   2.5020   2.5020   2.7412   2.8829   3.2138   3.2180
     3.2452   3.2493   3.3427   3.3427   3.6341   3.6539   3.6821   3.6821
     3.7579   3.7594   3.9964   3.9964   4.1127   4.3033   4.5693   4.9885
     5.1740   5.1740   5.2075   5.3485   5.3485   5.4267   5.4677   5.4950
     5.5960   5.5960   5.6195   5.6195   5.7010   5.7122   5.7599   5.7661
     5.9026   5.9026   6.3470   6.4135   6.4556   6.5522   6.5523   6.5886
     6.6445   6.7778   6.7779   6.8384   6.9028   7.0455   7.0657   7.0658
     7.1761   7.1762   7.2098   7.2099   7.2651   7.2651   7.2801   7.3304
     7.3614   7.3721   7.3721   7.3920   7.3921   7.5436   7.6088   7.6209
     7.6266   7.7626   7.8273   7.9185   8.1462   8.1553   8.1946   8.1949
     8.2633   8.2634   8.5557   8.5560   8.5638   8.6168   8.6168   8.6497

     occupation numbers 
     1.0000   1.0000   1.0000   1.0000   1.0000   1.0000   1.0000   1.0000
     1.0000   1.0000   1.0000   1.0000   1.0000   1.0000   1.0000   1.0000
     1.0000   1.0000   1.0000   1.0000   1.0000   1.0000   1.0000   1.0000
     1.0000   1.0000   1.0000   1.0000   1.0000   1.0000   1.0000   1.0000
     1.0000   1.0000   1.0000   1.0000   1.0000   1.0000   1.0000   1.0000
     1.0000   1.0000   1.0000   1.0000   1.0000   1.0000   1.0000   1.0000
     1.0000   1.0000   1.0000   1.0000   1.0000   1.0000   1.0000   1.0000
     1.0000   1.0000   1.0000   1.0000   1.0000   1.0000   1.0000   1.0000
     1.0000   1.0000   1.0000   1.0000   1.0000   1.0000   1.0000   1.0000
     1.0000   1.0000   1.0000   1.0000   1.0000   1.0000   1.0000   1.0000
     1.0000   1.0000   1.0000   1.0000   1.0000   1.0000   1.0000   1.0000
     1.0000   1.0000   1.0000   1.0000   1.0000   1.0000   1.0000   1.0000
     1.0000   1.0000   1.0000   1.0000   1.0000   1.0000   1.0000   1.0000
     1.0000   1.0000   1.0000   1.0000   1.0000   1.0000   1.0000   1.0000
     1.0000   1.0000   1.0000   1.0000   1.0000   1.0000   1.0000   1.0000
     1.0000   1.0000   1.0000   1.0000   1.0000   1.0000   1.0000   1.0000
     1.0000   1.0000   1.0000   1.0000   1.0000   1.0000   1.0000   1.0000
     1.0000   1.0000   1.0000   1.0000   1.0000   1.0000   1.0000   1.0000
     1.0000   1.0000   1.0000   1.0000   1.0000   1.0000   1.0000   1.0000
     1.0000   1.0000   1.0000   1.0000   1.0000   1.0000   1.0000   1.0000
     1.0000   1.0000   1.0000   1.0000   1.0000   1.0000   1.0000   1.0000
     1.0000   1.0000   1.0000   1.0000   1.0000   1.0000   1.0000   1.0000
     1.0000   1.0000   1.0000   1.0000   1.0000   1.0000   1.0000   1.0000
     1.0000   1.0000   1.0000   1.0000   1.0000   1.0000   1.0000   1.0000
     1.0000   1.0000   1.0000   1.0000   1.0000   1.0000   1.0000   1.0000
     1.0000   1.0000   1.0000   1.0000   1.0000   1.0000   1.0000   1.0000
     1.0000   1.0000   1.0000   1.0000   1.0000   1.0000   1.0000   1.0000
     1.0000   1.0000   1.0000   1.0000   1.0000   1.0000   1.0000   1.0000
     1.0000   1.0000   1.0000   1.0000   1.0000   1.0000   1.0000   1.0000
     1.0000   1.0000   1.0000   1.0000   1.0000   1.0000   1.0000   1.0000
     1.0000   1.0000   1.0000   1.0000   1.0000   1.0000   1.0000   1.0000
     1.0000   1.0000   1.0000   1.0000   1.0000   1.0000   1.0000   1.0000
     1.0000   1.0000   1.0000   1.0000   1.0000   1.0000   1.0000   1.0000
     1.0000   1.0000   1.0000   1.0000   1.0000   1.0000   1.0000   1.0000
     1.0000   1.0000   1.0000   1.0000   1.0000   1.0000   1.0000   1.0000
     1.0000   1.0000   1.0000   1.0000   1.0000   1.0000   1.0000   1.0000
     1.0000   1.0000   1.0000   1.0000   1.0000   1.0000   1.0000   1.0000
     1.0000   1.0000   1.0000   1.0000   1.0000   1.0000   1.0000   1.0000
     1.0000   1.0000   1.0000   1.0000   1.0000   1.0000   1.0000   1.0000
     1.0000   1.0000   1.0000   1.0000   1.0000   1.0000   1.0000   1.0000
     1.0000   1.0000   1.0000   1.0000   1.0000   1.0000   1.0000   1.0000
     1.0000   1.0000   1.0000   1.0000   1.0000   1.0000   1.0000   1.0000
     1.0000   1.0000   1.0000   1.0000   1.0000   1.0000   1.0000   1.0000
     1.0000   1.0000   1.0000   1.0000   1.0000   1.0000   1.0000   1.0000
     1.0000   1.0000   1.0000   1.0000   1.0000   1.0000   1.0000   1.0000
     1.0000   1.0000   1.0000   1.0000   1.0000   1.0000   1.0000   1.0000
     1.0000   1.0000   1.0000   1.0000   1.0000   1.0000   1.0000   1.0000
     1.0000   1.0000   1.0000   1.0000   1.0000   1.0000   1.0000   1.0000
     1.0000   1.0000   1.0000   1.0000   1.0000   1.0000   1.0000   1.0000
     1.0000   1.0000   1.0000   1.0000   1.0000   1.0000   1.0000   1.0000
     1.0000   1.0000   1.0000   1.0000   1.0000   1.0000   1.0000   1.0000
     1.0000   1.0000   1.0000   1.0000   1.0000   1.0000   1.0000   1.0000
     1.0000   1.0000   1.0000   1.0000   1.0000   1.0000   1.0000   1.0000
     1.0000   1.0000   1.0000   1.0000   1.0000   1.0000   1.0000   1.0000
     1.0000   1.0000   1.0000   1.0000   1.0000   1.0000   1.0000   1.0000
     1.0000   1.0000   1.0000   1.0000   1.0000   1.0000   1.0000   1.0000
     1.0000   1.0000   1.0000   1.0000   1.0000   1.0000   1.0000   1.0000
     1.0000   1.0000   1.0000   1.0000   1.0000   1.0000   1.0000   1.0000
     1.0000   1.0000   1.0000   1.0000   1.0000   1.0001   1.0001   1.0059
     1.0072   1.0215   1.0215   1.0316   1.0793   1.0507   1.0507   0.4028
     0.3552   0.3551   0.0516   0.0082   0.0009   0.0001   0.0001   0.0000
     0.0000   0.0000   0.0000   0.0000   0.0000   0.0000   0.0000   0.0000
     0.0000   0.0000   0.0000   0.0000   0.0000   0.0000   0.0000   0.0000
     0.0000   0.0000   0.0000   0.0000   0.0000   0.0000   0.0000   0.0000
     0.0000   0.0000   0.0000   0.0000   0.0000   0.0000   0.0000   0.0000
     0.0000   0.0000   0.0000   0.0000   0.0000   0.0000   0.0000   0.0000
     0.0000   0.0000   0.0000   0.0000   0.0000   0.0000   0.0000   0.0000
     0.0000   0.0000   0.0000   0.0000   0.0000   0.0000   0.0000   0.0000
     0.0000   0.0000   0.0000   0.0000   0.0000   0.0000   0.0000   0.0000
     0.0000   0.0000   0.0000   0.0000   0.0000   0.0000   0.0000   0.0000
     0.0000   0.0000   0.0000   0.0000   0.0000   0.0000   0.0000   0.0000
     0.0000   0.0000   0.0000   0.0000   0.0000   0.0000   0.0000   0.0000

          k = 0.3333 0.0000 0.0000 ( 67745 PWs)   bands (ev):

  -125.4030-125.4026-125.4023-125.4021-125.4020-125.4018-125.4017-125.4017
  -125.4015-125.4014-125.4011-125.4010-125.4009-125.4008-125.4006-125.4001
  -125.1560-125.1557-125.1554-125.1552-125.1552-125.1552-125.1548-125.1548
  -125.1545-125.1545-125.1544-125.1543-125.1543-125.1539-125.1536-125.1535
  -125.1104-125.1103-125.1102-125.1099-125.1096-125.1096-125.1094-125.1094
  -125.1093-125.1093-125.1090-125.1090-125.1087-125.1085-125.1085-125.1081
   -79.5619 -79.5617 -79.5613 -79.5610 -79.5610 -79.5607 -79.5605 -79.5601
   -79.5597 -79.5597 -79.5595 -79.5594 -79.5592 -79.5592 -79.5588 -79.5588
   -79.5583 -79.5580 -79.5578 -79.5574 -79.5569 -79.5550 -79.5550 -79.5548
   -79.5540 -79.5539 -79.5509 -79.5509 -79.5507 -79.5506 -79.5501 -79.5499
   -79.5498 -79.5493 -79.5493 -79.5489 -79.5489 -79.5482 -79.5481 -79.5481
   -79.5470 -79.5470 -79.5468 -79.5467 -79.5370 -79.5364 -79.5355 -79.5348
   -79.3177 -79.3174 -79.3170 -79.3169 -79.3097 -79.3093 -79.3090 -79.3089
   -79.3088 -79.3088 -79.3084 -79.3084 -79.3081 -79.3081 -79.3080 -79.3080
   -79.3079 -79.3079 -79.3075 -79.3075 -79.3072 -79.3072 -79.3071 -79.3071
   -79.3068 -79.3068 -79.3065 -79.3064 -79.3061 -79.3061 -79.3060 -79.3060
   -79.3058 -79.3054 -79.3054 -79.3054 -79.3051 -79.3051 -79.3050 -79.3049
   -79.3048 -79.3047 -79.3046 -79.3046 -79.2931 -79.2928 -79.2924 -79.2923
   -79.2818 -79.2817 -79.2815 -79.2812 -79.2809 -79.2809 -79.2808 -79.2808
   -79.2807 -79.2807 -79.2804 -79.2803 -79.2800 -79.2799 -79.2798 -79.2795
   -79.2653 -79.2652 -79.2651 -79.2648 -79.2547 -79.2546 -79.2543 -79.2541
   -79.2538 -79.2538 -79.2536 -79.2536 -79.2535 -79.2535 -79.2533 -79.2532
   -79.2531 -79.2531 -79.2530 -79.2530 -79.2529 -79.2529 -79.2528 -79.2528
   -79.2526 -79.2526 -79.2525 -79.2523 -79.2409 -79.2407 -79.2406 -79.2403
    -8.6753  -8.2047  -7.4693  -7.4693  -7.3080  -7.2981  -7.1978  -7.1978
    -7.1037  -7.0828  -7.0734  -7.0573  -7.0556  -7.0556  -7.0545  -7.0544
    -7.0299  -6.9782  -6.9782  -6.9596  -6.9596  -6.9340  -6.8714  -6.8714
    -6.8414  -6.8414  -6.8353  -6.8353  -6.8058  -6.8030  -6.8025  -6.8025
    -6.8016  -6.8016  -6.7996  -6.7996  -6.7903  -6.7903  -6.7720  -6.7720
    -6.7720  -6.7719  -6.7563  -6.7386  -6.7380  -6.7380  -6.6672  -6.6672
    -6.6541  -6.6541  -6.6521  -6.6259  -6.6259  -6.6004  -6.6004  -6.5929
    -6.5878  -6.5878  -6.5745  -6.5745  -6.5672  -6.5640  -6.5640  -6.5432
    -6.5432  -6.5354  -6.5354  -6.5069  -6.5069  -6.4988  -6.4756  -6.4755
    -6.4549  -6.4549  -6.4509  -6.4509  -6.4223  -6.4223  -6.4088  -6.3939
    -6.3882  -6.3740  -6.3740  -6.3719  -6.3719  -6.3679  -6.3647  -6.3647
    -6.3611  -6.3611  -6.3424  -6.3226  -6.2972  -6.2972  -6.2728  -6.2694
    -6.2659  -6.2659  -6.2567  -6.2567  -6.2458  -6.2458  -6.2444  -6.2384
    -6.2384  -6.2249  -6.1976  -6.1975  -6.1847  -6.1805  -6.1740  -6.1631
    -6.1631  -6.1456  -6.1456  -6.1425  -6.1424  -6.1383  -6.1248  -6.1248
    -6.1188  -6.1188  -6.1153  -6.1152  -6.1131  -6.1131  -6.1112  -6.1076
    -6.1042  -6.1042  -6.0902  -6.0902  -6.0789  -6.0789  -6.0706  -6.0706
    -6.0566  -6.0566  -6.0525  -6.0382  -6.0195  -6.0195  -5.9972  -5.9972
    -5.9908  -5.9908  -5.9846  -5.9846  -5.9654  -5.9654  -5.9512  -5.9457
    -5.9457  -5.9443  -5.9443  -5.9438  -5.9438  -5.9413  -5.9413  -5.9366
    -5.9365  -5.9357  -5.9267  -5.9103  -5.9092  -5.9069  -5.9023  -5.9023
    -5.8964  -5.8964  -5.8928  -5.8928  -5.8791  -5.8791  -5.8676  -5.8675
    -5.8650  -5.8650  -5.8630  -5.8629  -5.8594  -5.8582  -5.8506  -5.8496
    -5.8496  -5.8437  -5.8432  -5.8357  -5.8356  -5.8318  -5.8318  -5.8031
    -5.8031  -5.8030  -5.8022  -5.8022  -5.7941  -5.7896  -5.7896  -5.7817
    -5.7817  -5.7784  -5.7720  -5.7720  -5.7636  -5.7636  -5.7601  -5.7590
    -5.7523  -5.7523  -5.7324  -5.7324  -5.7320  -5.7144  -5.7008  -5.7008
    -5.6921  -5.6920  -5.6724  -5.6724  -5.6719  -5.6719  -5.6675  -5.6675
    -5.6593  -5.6593  -5.6498  -5.6459  -5.6338  -5.6338  -5.6258  -5.5964
    -5.5807  -5.5636  -5.5636  -5.5616  -5.5613  -5.5575  -5.5568  -5.5395
    -5.5395  -5.5319  -5.5319  -5.5145  -5.5144  -5.5022  -5.4905  -5.4905
    -4.9650  -4.6221  -4.6221  -4.2111  -4.2111  -3.6722  -3.6722  -3.5739
    -3.5032  -3.2602  -2.4307  -2.2385  -2.2385  -2.1901  -2.1901  -2.1131
    -2.1131  -1.9684  -1.9683  -1.7750  -1.7750  -1.5670  -1.0970  -1.0970
    -0.5838  -0.5307  -0.5307  -0.3865  -0.2577  -0.2577  -0.1835  -0.1835
     0.2057   0.3682   0.3682   0.7185   0.7185   0.7440   1.1486   1.1487
     1.2499   1.5615   1.5615   1.9166   1.9333   1.9333   2.1870   2.1870
     2.4365   2.4921   2.4921   2.6746   2.6746   2.6894   2.7596   2.7596
     3.2458   3.2459   3.5654   3.5654   3.6066   4.0118   4.0118   4.0185
     4.0185   4.0679   4.0679   4.3892   4.9205   4.9205   4.9442   4.9442
     4.9631   4.9754   4.9754   5.0094   5.3775   5.3775   5.3909   5.4507
     5.5059   5.5059   5.5691   5.5764   5.6538   5.6538   5.9064   6.1170
     6.2919   6.2919   6.3609   6.3609   6.4038   6.4038   6.5226   6.5236
     6.5238   6.5238   6.7408   6.7408   6.7660   6.7660   6.8551   6.8551
     6.8600   6.8600   6.8721   6.8721   6.9299   6.9299   6.9906   7.0672
     7.3055   7.3056   7.3395   7.3395   7.4452   7.4452   7.5001   7.5001
     7.6877   7.7345   7.8192   7.8193   7.8852   7.9000   7.9000   7.9775
     7.9775   8.1000   8.2898   8.2898   8.2918   8.2919   8.6606   8.6617

     occupation numbers 
     1.0000   1.0000   1.0000   1.0000   1.0000   1.0000   1.0000   1.0000
     1.0000   1.0000   1.0000   1.0000   1.0000   1.0000   1.0000   1.0000
     1.0000   1.0000   1.0000   1.0000   1.0000   1.0000   1.0000   1.0000
     1.0000   1.0000   1.0000   1.0000   1.0000   1.0000   1.0000   1.0000
     1.0000   1.0000   1.0000   1.0000   1.0000   1.0000   1.0000   1.0000
     1.0000   1.0000   1.0000   1.0000   1.0000   1.0000   1.0000   1.0000
     1.0000   1.0000   1.0000   1.0000   1.0000   1.0000   1.0000   1.0000
     1.0000   1.0000   1.0000   1.0000   1.0000   1.0000   1.0000   1.0000
     1.0000   1.0000   1.0000   1.0000   1.0000   1.0000   1.0000   1.0000
     1.0000   1.0000   1.0000   1.0000   1.0000   1.0000   1.0000   1.0000
     1.0000   1.0000   1.0000   1.0000   1.0000   1.0000   1.0000   1.0000
     1.0000   1.0000   1.0000   1.0000   1.0000   1.0000   1.0000   1.0000
     1.0000   1.0000   1.0000   1.0000   1.0000   1.0000   1.0000   1.0000
     1.0000   1.0000   1.0000   1.0000   1.0000   1.0000   1.0000   1.0000
     1.0000   1.0000   1.0000   1.0000   1.0000   1.0000   1.0000   1.0000
     1.0000   1.0000   1.0000   1.0000   1.0000   1.0000   1.0000   1.0000
     1.0000   1.0000   1.0000   1.0000   1.0000   1.0000   1.0000   1.0000
     1.0000   1.0000   1.0000   1.0000   1.0000   1.0000   1.0000   1.0000
     1.0000   1.0000   1.0000   1.0000   1.0000   1.0000   1.0000   1.0000
     1.0000   1.0000   1.0000   1.0000   1.0000   1.0000   1.0000   1.0000
     1.0000   1.0000   1.0000   1.0000   1.0000   1.0000   1.0000   1.0000
     1.0000   1.0000   1.0000   1.0000   1.0000   1.0000   1.0000   1.0000
     1.0000   1.0000   1.0000   1.0000   1.0000   1.0000   1.0000   1.0000
     1.0000   1.0000   1.0000   1.0000   1.0000   1.0000   1.0000   1.0000
     1.0000   1.0000   1.0000   1.0000   1.0000   1.0000   1.0000   1.0000
     1.0000   1.0000   1.0000   1.0000   1.0000   1.0000   1.0000   1.0000
     1.0000   1.0000   1.0000   1.0000   1.0000   1.0000   1.0000   1.0000
     1.0000   1.0000   1.0000   1.0000   1.0000   1.0000   1.0000   1.0000
     1.0000   1.0000   1.0000   1.0000   1.0000   1.0000   1.0000   1.0000
     1.0000   1.0000   1.0000   1.0000   1.0000   1.0000   1.0000   1.0000
     1.0000   1.0000   1.0000   1.0000   1.0000   1.0000   1.0000   1.0000
     1.0000   1.0000   1.0000   1.0000   1.0000   1.0000   1.0000   1.0000
     1.0000   1.0000   1.0000   1.0000   1.0000   1.0000   1.0000   1.0000
     1.0000   1.0000   1.0000   1.0000   1.0000   1.0000   1.0000   1.0000
     1.0000   1.0000   1.0000   1.0000   1.0000   1.0000   1.0000   1.0000
     1.0000   1.0000   1.0000   1.0000   1.0000   1.0000   1.0000   1.0000
     1.0000   1.0000   1.0000   1.0000   1.0000   1.0000   1.0000   1.0000
     1.0000   1.0000   1.0000   1.0000   1.0000   1.0000   1.0000   1.0000
     1.0000   1.0000   1.0000   1.0000   1.0000   1.0000   1.0000   1.0000
     1.0000   1.0000   1.0000   1.0000   1.0000   1.0000   1.0000   1.0000
     1.0000   1.0000   1.0000   1.0000   1.0000   1.0000   1.0000   1.0000
     1.0000   1.0000   1.0000   1.0000   1.0000   1.0000   1.0000   1.0000
     1.0000   1.0000   1.0000   1.0000   1.0000   1.0000   1.0000   1.0000
     1.0000   1.0000   1.0000   1.0000   1.0000   1.0000   1.0000   1.0000
     1.0000   1.0000   1.0000   1.0000   1.0000   1.0000   1.0000   1.0000
     1.0000   1.0000   1.0000   1.0000   1.0000   1.0000   1.0000   1.0000
     1.0000   1.0000   1.0000   1.0000   1.0000   1.0000   1.0000   1.0000
     1.0000   1.0000   1.0000   1.0000   1.0000   1.0000   1.0000   1.0000
     1.0000   1.0000   1.0000   1.0000   1.0000   1.0000   1.0000   1.0000
     1.0000   1.0000   1.0000   1.0000   1.0000   1.0000   1.0000   1.0000
     1.0000   1.0000   1.0000   1.0000   1.0000   1.0000   1.0000   1.0000
     1.0000   1.0000   1.0000   1.0000   1.0000   1.0000   1.0000   1.0000
     1.0000   1.0000   1.0000   1.0000   1.0000   1.0000   1.0000   1.0000
     1.0000   1.0000   1.0000   1.0000   1.0000   1.0000   1.0000   1.0000
     1.0000   1.0000   1.0000   1.0000   1.0000   1.0000   1.0000   1.0000
     1.0000   1.0000   1.0000   1.0000   1.0000   1.0000   1.0000   1.0000
     1.0000   1.0000   1.0000   1.0000   1.0000   1.0000   1.0000   1.0000
     1.0000   1.0000   1.0000   1.0000   1.0000   1.0000   1.0000   1.0000
     1.0000   1.0000   1.0000   1.0000   1.0000   1.0000   1.0000   1.0000
     1.0001   1.0017   1.0017   1.0705   1.0705   1.0774   0.4701   0.4701
     0.2351   0.0057   0.0057   0.0000   0.0000   0.0000   0.0000   0.0000
     0.0000   0.0000   0.0000   0.0000   0.0000   0.0000   0.0000   0.0000
     0.0000   0.0000   0.0000   0.0000   0.0000   0.0000   0.0000   0.0000
     0.0000   0.0000   0.0000   0.0000   0.0000   0.0000   0.0000   0.0000
     0.0000   0.0000   0.0000   0.0000   0.0000   0.0000   0.0000   0.0000
     0.0000   0.0000   0.0000   0.0000   0.0000   0.0000   0.0000   0.0000
     0.0000   0.0000   0.0000   0.0000   0.0000   0.0000   0.0000   0.0000
     0.0000   0.0000   0.0000   0.0000   0.0000   0.0000   0.0000   0.0000
     0.0000   0.0000   0.0000   0.0000   0.0000   0.0000   0.0000   0.0000
     0.0000   0.0000   0.0000   0.0000   0.0000   0.0000   0.0000   0.0000
     0.0000   0.0000   0.0000   0.0000   0.0000   0.0000   0.0000   0.0000
     0.0000   0.0000   0.0000   0.0000   0.0000   0.0000   0.0000   0.0000

          k = 0.3333 0.3107 0.1794 ( 67762 PWs)   bands (ev):

  -125.4029-125.4025-125.4025-125.4022-125.4021-125.4019-125.4017-125.4016
  -125.4014-125.4012-125.4012-125.4010-125.4009-125.4007-125.4006-125.4002
  -125.1559-125.1556-125.1556-125.1553-125.1552-125.1551-125.1549-125.1548
  -125.1547-125.1544-125.1544-125.1541-125.1540-125.1539-125.1537-125.1536
  -125.1103-125.1102-125.1101-125.1100-125.1099-125.1098-125.1098-125.1094
  -125.1091-125.1090-125.1089-125.1088-125.1087-125.1086-125.1086-125.1082
   -79.5608 -79.5606 -79.5604 -79.5603 -79.5603 -79.5601 -79.5601 -79.5599
   -79.5599 -79.5598 -79.5595 -79.5594 -79.5591 -79.5589 -79.5586 -79.5583
   -79.5582 -79.5581 -79.5578 -79.5574 -79.5566 -79.5564 -79.5559 -79.5559
   -79.5552 -79.5546 -79.5543 -79.5542 -79.5526 -79.5518 -79.5510 -79.5507
   -79.5500 -79.5499 -79.5497 -79.5492 -79.5490 -79.5486 -79.5484 -79.5482
   -79.5431 -79.5424 -79.5416 -79.5411 -79.5386 -79.5380 -79.5371 -79.5365
   -79.3161 -79.3157 -79.3154 -79.3152 -79.3116 -79.3112 -79.3109 -79.3107
   -79.3096 -79.3092 -79.3092 -79.3089 -79.3089 -79.3088 -79.3086 -79.3084
   -79.3084 -79.3080 -79.3080 -79.3077 -79.3077 -79.3077 -79.3075 -79.3074
   -79.3073 -79.3073 -79.3072 -79.3071 -79.3070 -79.3069 -79.3066 -79.3065
   -79.3063 -79.3059 -79.3059 -79.3056 -79.3055 -79.3055 -79.3052 -79.3051
   -79.2993 -79.2989 -79.2986 -79.2984 -79.2948 -79.2944 -79.2941 -79.2939
   -79.2817 -79.2815 -79.2814 -79.2813 -79.2812 -79.2811 -79.2811 -79.2808
   -79.2805 -79.2804 -79.2803 -79.2802 -79.2800 -79.2800 -79.2799 -79.2796
   -79.2637 -79.2636 -79.2634 -79.2631 -79.2592 -79.2591 -79.2590 -79.2587
   -79.2545 -79.2544 -79.2542 -79.2542 -79.2541 -79.2540 -79.2539 -79.2536
   -79.2533 -79.2532 -79.2531 -79.2530 -79.2529 -79.2528 -79.2528 -79.2524
   -79.2470 -79.2469 -79.2468 -79.2464 -79.2425 -79.2424 -79.2423 -79.2420
    -8.5205  -8.0784  -8.0577  -7.6545  -7.2136  -7.2064  -7.0645  -7.0477
    -7.0302  -7.0294  -7.0275  -7.0230  -7.0217  -7.0162  -6.9957  -6.9922
    -6.9818  -6.9800  -6.9747  -6.9725  -6.9703  -6.9495  -6.9476  -6.9404
    -6.9214  -6.9190  -6.9130  -6.8910  -6.8869  -6.8696  -6.8638  -6.8628
    -6.8612  -6.8540  -6.7745  -6.7732  -6.7717  -6.7709  -6.7677  -6.7658
    -6.7591  -6.7482  -6.7477  -6.7215  -6.7117  -6.7028  -6.7000  -6.6881
    -6.6661  -6.6610  -6.6529  -6.6396  -6.6323  -6.6127  -6.6121  -6.6042
    -6.5960  -6.5941  -6.5912  -6.5806  -6.5710  -6.5401  -6.5281  -6.5139
    -6.5057  -6.5021  -6.5021  -6.4981  -6.4930  -6.4705  -6.4659  -6.4637
    -6.4481  -6.4393  -6.4385  -6.4367  -6.4340  -6.4247  -6.4244  -6.4144
    -6.4071  -6.3672  -6.3652  -6.3608  -6.3504  -6.3464  -6.3450  -6.3360
    -6.3330  -6.3316  -6.3287  -6.3281  -6.3268  -6.3227  -6.3109  -6.3055
    -6.2913  -6.2909  -6.2896  -6.2877  -6.2864  -6.2762  -6.2546  -6.2542
    -6.2481  -6.2425  -6.2402  -6.2390  -6.2377  -6.2344  -6.2292  -6.2251
    -6.2181  -6.2165  -6.1985  -6.1880  -6.1769  -6.1728  -6.1644  -6.1603
    -6.1585  -6.1480  -6.1461  -6.1449  -6.1313  -6.1311  -6.1182  -6.1165
    -6.1118  -6.1116  -6.0900  -6.0865  -6.0829  -6.0761  -6.0654  -6.0229
    -6.0184  -6.0126  -6.0052  -6.0038  -6.0021  -6.0012  -5.9974  -5.9911
    -5.9776  -5.9733  -5.9592  -5.9501  -5.9483  -5.9440  -5.9425  -5.9420
    -5.9403  -5.9355  -5.9291  -5.9260  -5.9210  -5.9198  -5.9183  -5.9161
    -5.9053  -5.9010  -5.9000  -5.8994  -5.8972  -5.8948  -5.8896  -5.8864
    -5.8855  -5.8820  -5.8797  -5.8783  -5.8744  -5.8712  -5.8673  -5.8658
    -5.8623  -5.8566  -5.8466  -5.8387  -5.8346  -5.8297  -5.8257  -5.8257
    -5.8243  -5.8218  -5.8161  -5.8109  -5.8099  -5.8046  -5.8007  -5.7999
    -5.7984  -5.7961  -5.7927  -5.7870  -5.7831  -5.7729  -5.7710  -5.7632
    -5.7588  -5.7568  -5.7563  -5.7509  -5.7488  -5.7454  -5.7423  -5.7423
    -5.7341  -5.7141  -5.7109  -5.7106  -5.7070  -5.7031  -5.6976  -5.6923
    -5.6914  -5.6771  -5.6758  -5.6709  -5.6630  -5.6607  -5.6602  -5.6575
    -5.6565  -5.6554  -5.6496  -5.6481  -5.6448  -5.6390  -5.6378  -5.6375
    -5.6355  -5.6296  -5.6132  -5.5989  -5.5938  -5.5932  -5.5889  -5.5860
    -5.5656  -5.5643  -5.5423  -5.5329  -5.4672  -5.2765  -5.2380  -5.1801
    -4.8688  -4.8501  -4.7923  -4.3566  -3.9600  -3.6414  -3.5022  -3.4090
    -3.3285  -3.1997  -3.1127  -2.9397  -2.8505  -2.6810  -2.6681  -2.2767
    -2.2490  -1.8343  -1.8274  -1.4051  -1.3230  -1.1625  -1.0992  -0.9591
    -0.9354  -0.4324  -0.2279  -0.2036  -0.0870   0.0090   0.0135   0.2666
     0.3015   0.3035   0.3225   0.4092   0.8241   0.9089   1.0013   1.0739
     1.3968   1.4104   1.4699   1.5553   1.8916   2.0141   2.1098   2.4189
     2.5611   2.6271   2.6660   2.6731   2.8388   2.8869   2.9025   3.1802
     3.2835   3.2881   3.3226   3.3329   3.6813   3.7584   3.9191   4.1142
     4.2099   4.2100   4.3130   4.3541   4.5176   4.5311   4.6120   4.7176
     4.9356   4.9544   4.9571   5.0224   5.1063   5.1524   5.1821   5.2590
     5.2928   5.4799   5.5554   5.6235   5.6543   5.7390   5.8296   5.8671
     5.9842   6.0946   6.1055   6.1291   6.1409   6.1626   6.1719   6.3296
     6.4122   6.4447   6.5325   6.5709   6.6199   6.6924   6.6958   6.7045
     6.7173   6.7825   6.8803   6.9776   7.2887   7.3615   7.3860   7.3908
     7.3996   7.4489   7.5431   7.6414   7.6454   7.6526   7.7753   7.7982
     7.8894   7.8926   7.9152   7.9673   7.9716   7.9913   8.0122   8.0723
     8.1113   8.2599   8.3054   8.3571   8.4054   8.4251   8.4319   8.4550

     occupation numbers 
     1.0000   1.0000   1.0000   1.0000   1.0000   1.0000   1.0000   1.0000
     1.0000   1.0000   1.0000   1.0000   1.0000   1.0000   1.0000   1.0000
     1.0000   1.0000   1.0000   1.0000   1.0000   1.0000   1.0000   1.0000
     1.0000   1.0000   1.0000   1.0000   1.0000   1.0000   1.0000   1.0000
     1.0000   1.0000   1.0000   1.0000   1.0000   1.0000   1.0000   1.0000
     1.0000   1.0000   1.0000   1.0000   1.0000   1.0000   1.0000   1.0000
     1.0000   1.0000   1.0000   1.0000   1.0000   1.0000   1.0000   1.0000
     1.0000   1.0000   1.0000   1.0000   1.0000   1.0000   1.0000   1.0000
     1.0000   1.0000   1.0000   1.0000   1.0000   1.0000   1.0000   1.0000
     1.0000   1.0000   1.0000   1.0000   1.0000   1.0000   1.0000   1.0000
     1.0000   1.0000   1.0000   1.0000   1.0000   1.0000   1.0000   1.0000
     1.0000   1.0000   1.0000   1.0000   1.0000   1.0000   1.0000   1.0000
     1.0000   1.0000   1.0000   1.0000   1.0000   1.0000   1.0000   1.0000
     1.0000   1.0000   1.0000   1.0000   1.0000   1.0000   1.0000   1.0000
     1.0000   1.0000   1.0000   1.0000   1.0000   1.0000   1.0000   1.0000
     1.0000   1.0000   1.0000   1.0000   1.0000   1.0000   1.0000   1.0000
     1.0000   1.0000   1.0000   1.0000   1.0000   1.0000   1.0000   1.0000
     1.0000   1.0000   1.0000   1.0000   1.0000   1.0000   1.0000   1.0000
     1.0000   1.0000   1.0000   1.0000   1.0000   1.0000   1.0000   1.0000
     1.0000   1.0000   1.0000   1.0000   1.0000   1.0000   1.0000   1.0000
     1.0000   1.0000   1.0000   1.0000   1.0000   1.0000   1.0000   1.0000
     1.0000   1.0000   1.0000   1.0000   1.0000   1.0000   1.0000   1.0000
     1.0000   1.0000   1.0000   1.0000   1.0000   1.0000   1.0000   1.0000
     1.0000   1.0000   1.0000   1.0000   1.0000   1.0000   1.0000   1.0000
     1.0000   1.0000   1.0000   1.0000   1.0000   1.0000   1.0000   1.0000
     1.0000   1.0000   1.0000   1.0000   1.0000   1.0000   1.0000   1.0000
     1.0000   1.0000   1.0000   1.0000   1.0000   1.0000   1.0000   1.0000
     1.0000   1.0000   1.0000   1.0000   1.0000   1.0000   1.0000   1.0000
     1.0000   1.0000   1.0000   1.0000   1.0000   1.0000   1.0000   1.0000
     1.0000   1.0000   1.0000   1.0000   1.0000   1.0000   1.0000   1.0000
     1.0000   1.0000   1.0000   1.0000   1.0000   1.0000   1.0000   1.0000
     1.0000   1.0000   1.0000   1.0000   1.0000   1.0000   1.0000   1.0000
     1.0000   1.0000   1.0000   1.0000   1.0000   1.0000   1.0000   1.0000
     1.0000   1.0000   1.0000   1.0000   1.0000   1.0000   1.0000   1.0000
     1.0000   1.0000   1.0000   1.0000   1.0000   1.0000   1.0000   1.0000
     1.0000   1.0000   1.0000   1.0000   1.0000   1.0000   1.0000   1.0000
     1.0000   1.0000   1.0000   1.0000   1.0000   1.0000   1.0000   1.0000
     1.0000   1.0000   1.0000   1.0000   1.0000   1.0000   1.0000   1.0000
     1.0000   1.0000   1.0000   1.0000   1.0000   1.0000   1.0000   1.0000
     1.0000   1.0000   1.0000   1.0000   1.0000   1.0000   1.0000   1.0000
     1.0000   1.0000   1.0000   1.0000   1.0000   1.0000   1.0000   1.0000
     1.0000   1.0000   1.0000   1.0000   1.0000   1.0000   1.0000   1.0000
     1.0000   1.0000   1.0000   1.0000   1.0000   1.0000   1.0000   1.0000
     1.0000   1.0000   1.0000   1.0000   1.0000   1.0000   1.0000   1.0000
     1.0000   1.0000   1.0000   1.0000   1.0000   1.0000   1.0000   1.0000
     1.0000   1.0000   1.0000   1.0000   1.0000   1.0000   1.0000   1.0000
     1.0000   1.0000   1.0000   1.0000   1.0000   1.0000   1.0000   1.0000
     1.0000   1.0000   1.0000   1.0000   1.0000   1.0000   1.0000   1.0000
     1.0000   1.0000   1.0000   1.0000   1.0000   1.0000   1.0000   1.0000
     1.0000   1.0000   1.0000   1.0000   1.0000   1.0000   1.0000   1.0000
     1.0000   1.0000   1.0000   1.0000   1.0000   1.0000   1.0000   1.0000
     1.0000   1.0000   1.0000   1.0000   1.0000   1.0000   1.0000   1.0000
     1.0000   1.0000   1.0000   1.0000   1.0000   1.0000   1.0000   1.0000
     1.0000   1.0000   1.0000   1.0000   1.0000   1.0000   1.0000   1.0000
     1.0000   1.0000   1.0000   1.0000   1.0000   1.0000   1.0000   1.0000
     1.0000   1.0000   1.0000   1.0000   1.0000   1.0000   1.0000   1.0000
     1.0000   1.0000   1.0000   1.0000   1.0000   1.0000   1.0000   1.0000
     1.0000   1.0000   1.0000   1.0000   1.0000   1.0000   1.0000   1.0000
     1.0000   1.0000   1.0000   1.0000   1.0000   1.0000   1.0000   1.0003
     1.0006   1.0006   1.0008   1.0032   1.0792   1.0204   0.8593   0.6753
     0.0552   0.0470   0.0219   0.0063   0.0000   0.0000   0.0000   0.0000
     0.0000   0.0000   0.0000   0.0000   0.0000   0.0000   0.0000   0.0000
     0.0000   0.0000   0.0000   0.0000   0.0000   0.0000   0.0000   0.0000
     0.0000   0.0000   0.0000   0.0000   0.0000   0.0000   0.0000   0.0000
     0.0000   0.0000   0.0000   0.0000   0.0000   0.0000   0.0000   0.0000
     0.0000   0.0000   0.0000   0.0000   0.0000   0.0000   0.0000   0.0000
     0.0000   0.0000   0.0000   0.0000   0.0000   0.0000   0.0000   0.0000
     0.0000   0.0000   0.0000   0.0000   0.0000   0.0000   0.0000   0.0000
     0.0000   0.0000   0.0000   0.0000   0.0000   0.0000   0.0000   0.0000
     0.0000   0.0000   0.0000   0.0000   0.0000   0.0000   0.0000   0.0000
     0.0000   0.0000   0.0000   0.0000   0.0000   0.0000   0.0000   0.0000
     0.0000   0.0000   0.0000   0.0000   0.0000   0.0000   0.0000   0.0000

          k = 0.3333-0.3107-0.1794 ( 67762 PWs)   bands (ev):

  -125.4029-125.4025-125.4024-125.4022-125.4021-125.4019-125.4017-125.4016
  -125.4014-125.4012-125.4012-125.4010-125.4009-125.4007-125.4006-125.4002
  -125.1559-125.1556-125.1556-125.1553-125.1552-125.1551-125.1549-125.1548
  -125.1547-125.1544-125.1544-125.1541-125.1540-125.1539-125.1537-125.1536
  -125.1103-125.1102-125.1101-125.1100-125.1099-125.1098-125.1098-125.1094
  -125.1091-125.1090-125.1089-125.1088-125.1087-125.1086-125.1086-125.1082
   -79.5608 -79.5606 -79.5604 -79.5604 -79.5603 -79.5601 -79.5601 -79.5599
   -79.5599 -79.5598 -79.5595 -79.5594 -79.5591 -79.5589 -79.5586 -79.5583
   -79.5582 -79.5581 -79.5578 -79.5574 -79.5566 -79.5563 -79.5559 -79.5559
   -79.5552 -79.5546 -79.5543 -79.5542 -79.5526 -79.5518 -79.5510 -79.5507
   -79.5500 -79.5499 -79.5497 -79.5492 -79.5490 -79.5486 -79.5484 -79.5482
   -79.5431 -79.5424 -79.5416 -79.5411 -79.5386 -79.5380 -79.5371 -79.5365
   -79.3161 -79.3157 -79.3154 -79.3152 -79.3116 -79.3112 -79.3109 -79.3107
   -79.3096 -79.3092 -79.3092 -79.3089 -79.3089 -79.3088 -79.3086 -79.3084
   -79.3084 -79.3080 -79.3080 -79.3077 -79.3077 -79.3077 -79.3075 -79.3074
   -79.3073 -79.3073 -79.3072 -79.3071 -79.3070 -79.3069 -79.3066 -79.3065
   -79.3063 -79.3059 -79.3059 -79.3056 -79.3055 -79.3055 -79.3052 -79.3051
   -79.2993 -79.2989 -79.2986 -79.2984 -79.2948 -79.2944 -79.2941 -79.2939
   -79.2817 -79.2815 -79.2814 -79.2813 -79.2812 -79.2811 -79.2811 -79.2808
   -79.2805 -79.2804 -79.2803 -79.2802 -79.2800 -79.2800 -79.2799 -79.2796
   -79.2637 -79.2636 -79.2634 -79.2631 -79.2592 -79.2591 -79.2590 -79.2587
   -79.2545 -79.2544 -79.2542 -79.2542 -79.2541 -79.2540 -79.2539 -79.2536
   -79.2533 -79.2532 -79.2531 -79.2530 -79.2529 -79.2528 -79.2528 -79.2524
   -79.2470 -79.2469 -79.2468 -79.2464 -79.2425 -79.2424 -79.2423 -79.2420
    -8.5205  -8.0784  -8.0577  -7.6545  -7.2136  -7.2064  -7.0645  -7.0477
    -7.0302  -7.0294  -7.0275  -7.0230  -7.0217  -7.0162  -6.9957  -6.9922
    -6.9818  -6.9800  -6.9747  -6.9725  -6.9703  -6.9495  -6.9476  -6.9404
    -6.9214  -6.9190  -6.9130  -6.8910  -6.8869  -6.8696  -6.8638  -6.8628
    -6.8612  -6.8540  -6.7745  -6.7732  -6.7717  -6.7709  -6.7677  -6.7658
    -6.7591  -6.7482  -6.7477  -6.7215  -6.7117  -6.7028  -6.7000  -6.6881
    -6.6661  -6.6610  -6.6529  -6.6396  -6.6323  -6.6127  -6.6121  -6.6042
    -6.5960  -6.5941  -6.5912  -6.5806  -6.5710  -6.5401  -6.5281  -6.5139
    -6.5057  -6.5021  -6.5021  -6.4981  -6.4930  -6.4705  -6.4659  -6.4637
    -6.4481  -6.4393  -6.4385  -6.4367  -6.4340  -6.4247  -6.4244  -6.4144
    -6.4071  -6.3672  -6.3652  -6.3608  -6.3504  -6.3464  -6.3450  -6.3360
    -6.3330  -6.3316  -6.3287  -6.3281  -6.3268  -6.3227  -6.3109  -6.3055
    -6.2913  -6.2909  -6.2896  -6.2877  -6.2864  -6.2762  -6.2546  -6.2542
    -6.2481  -6.2425  -6.2402  -6.2390  -6.2377  -6.2344  -6.2292  -6.2251
    -6.2181  -6.2165  -6.1985  -6.1880  -6.1769  -6.1728  -6.1644  -6.1603
    -6.1585  -6.1480  -6.1461  -6.1449  -6.1313  -6.1311  -6.1182  -6.1165
    -6.1118  -6.1116  -6.0900  -6.0865  -6.0829  -6.0761  -6.0654  -6.0229
    -6.0184  -6.0126  -6.0052  -6.0038  -6.0021  -6.0012  -5.9974  -5.9911
    -5.9776  -5.9733  -5.9592  -5.9501  -5.9483  -5.9440  -5.9425  -5.9420
    -5.9403  -5.9355  -5.9291  -5.9260  -5.9210  -5.9198  -5.9183  -5.9161
    -5.9053  -5.9010  -5.9000  -5.8994  -5.8972  -5.8948  -5.8896  -5.8864
    -5.8855  -5.8820  -5.8797  -5.8783  -5.8744  -5.8712  -5.8673  -5.8658
    -5.8623  -5.8566  -5.8466  -5.8387  -5.8346  -5.8297  -5.8257  -5.8257
    -5.8243  -5.8218  -5.8161  -5.8109  -5.8099  -5.8046  -5.8007  -5.7999
    -5.7984  -5.7961  -5.7927  -5.7870  -5.7831  -5.7729  -5.7710  -5.7632
    -5.7588  -5.7568  -5.7563  -5.7509  -5.7488  -5.7454  -5.7423  -5.7423
    -5.7341  -5.7141  -5.7109  -5.7106  -5.7070  -5.7031  -5.6976  -5.6923
    -5.6914  -5.6771  -5.6758  -5.6709  -5.6630  -5.6607  -5.6602  -5.6575
    -5.6565  -5.6554  -5.6496  -5.6481  -5.6448  -5.6390  -5.6378  -5.6375
    -5.6355  -5.6296  -5.6132  -5.5989  -5.5938  -5.5932  -5.5889  -5.5860
    -5.5656  -5.5643  -5.5423  -5.5329  -5.4672  -5.2765  -5.2380  -5.1801
    -4.8688  -4.8501  -4.7923  -4.3566  -3.9600  -3.6414  -3.5022  -3.4090
    -3.3285  -3.1997  -3.1127  -2.9397  -2.8505  -2.6810  -2.6681  -2.2767
    -2.2490  -1.8343  -1.8274  -1.4051  -1.3230  -1.1625  -1.0992  -0.9591
    -0.9354  -0.4324  -0.2279  -0.2036  -0.0870   0.0090   0.0135   0.2666
     0.3015   0.3035   0.3225   0.4092   0.8241   0.9089   1.0013   1.0739
     1.3968   1.4104   1.4699   1.5553   1.8916   2.0141   2.1098   2.4189
     2.5611   2.6271   2.6660   2.6731   2.8388   2.8869   2.9025   3.1802
     3.2835   3.2881   3.3226   3.3329   3.6813   3.7584   3.9191   4.1142
     4.2099   4.2100   4.3130   4.3541   4.5176   4.5311   4.6120   4.7176
     4.9356   4.9544   4.9571   5.0224   5.1063   5.1524   5.1821   5.2590
     5.2928   5.4799   5.5554   5.6235   5.6543   5.7390   5.8296   5.8671
     5.9842   6.0946   6.1055   6.1291   6.1409   6.1626   6.1719   6.3296
     6.4122   6.4447   6.5325   6.5709   6.6199   6.6924   6.6958   6.7045
     6.7173   6.7825   6.8803   6.9776   7.2887   7.3615   7.3860   7.3908
     7.3996   7.4489   7.5431   7.6414   7.6454   7.6526   7.7753   7.7982
     7.8894   7.8926   7.9152   7.9673   7.9716   7.9913   8.0122   8.0723
     8.1113   8.2599   8.3054   8.3571   8.4054   8.4251   8.4319   8.4550

     occupation numbers 
     1.0000   1.0000   1.0000   1.0000   1.0000   1.0000   1.0000   1.0000
     1.0000   1.0000   1.0000   1.0000   1.0000   1.0000   1.0000   1.0000
     1.0000   1.0000   1.0000   1.0000   1.0000   1.0000   1.0000   1.0000
     1.0000   1.0000   1.0000   1.0000   1.0000   1.0000   1.0000   1.0000
     1.0000   1.0000   1.0000   1.0000   1.0000   1.0000   1.0000   1.0000
     1.0000   1.0000   1.0000   1.0000   1.0000   1.0000   1.0000   1.0000
     1.0000   1.0000   1.0000   1.0000   1.0000   1.0000   1.0000   1.0000
     1.0000   1.0000   1.0000   1.0000   1.0000   1.0000   1.0000   1.0000
     1.0000   1.0000   1.0000   1.0000   1.0000   1.0000   1.0000   1.0000
     1.0000   1.0000   1.0000   1.0000   1.0000   1.0000   1.0000   1.0000
     1.0000   1.0000   1.0000   1.0000   1.0000   1.0000   1.0000   1.0000
     1.0000   1.0000   1.0000   1.0000   1.0000   1.0000   1.0000   1.0000
     1.0000   1.0000   1.0000   1.0000   1.0000   1.0000   1.0000   1.0000
     1.0000   1.0000   1.0000   1.0000   1.0000   1.0000   1.0000   1.0000
     1.0000   1.0000   1.0000   1.0000   1.0000   1.0000   1.0000   1.0000
     1.0000   1.0000   1.0000   1.0000   1.0000   1.0000   1.0000   1.0000
     1.0000   1.0000   1.0000   1.0000   1.0000   1.0000   1.0000   1.0000
     1.0000   1.0000   1.0000   1.0000   1.0000   1.0000   1.0000   1.0000
     1.0000   1.0000   1.0000   1.0000   1.0000   1.0000   1.0000   1.0000
     1.0000   1.0000   1.0000   1.0000   1.0000   1.0000   1.0000   1.0000
     1.0000   1.0000   1.0000   1.0000   1.0000   1.0000   1.0000   1.0000
     1.0000   1.0000   1.0000   1.0000   1.0000   1.0000   1.0000   1.0000
     1.0000   1.0000   1.0000   1.0000   1.0000   1.0000   1.0000   1.0000
     1.0000   1.0000   1.0000   1.0000   1.0000   1.0000   1.0000   1.0000
     1.0000   1.0000   1.0000   1.0000   1.0000   1.0000   1.0000   1.0000
     1.0000   1.0000   1.0000   1.0000   1.0000   1.0000   1.0000   1.0000
     1.0000   1.0000   1.0000   1.0000   1.0000   1.0000   1.0000   1.0000
     1.0000   1.0000   1.0000   1.0000   1.0000   1.0000   1.0000   1.0000
     1.0000   1.0000   1.0000   1.0000   1.0000   1.0000   1.0000   1.0000
     1.0000   1.0000   1.0000   1.0000   1.0000   1.0000   1.0000   1.0000
     1.0000   1.0000   1.0000   1.0000   1.0000   1.0000   1.0000   1.0000
     1.0000   1.0000   1.0000   1.0000   1.0000   1.0000   1.0000   1.0000
     1.0000   1.0000   1.0000   1.0000   1.0000   1.0000   1.0000   1.0000
     1.0000   1.0000   1.0000   1.0000   1.0000   1.0000   1.0000   1.0000
     1.0000   1.0000   1.0000   1.0000   1.0000   1.0000   1.0000   1.0000
     1.0000   1.0000   1.0000   1.0000   1.0000   1.0000   1.0000   1.0000
     1.0000   1.0000   1.0000   1.0000   1.0000   1.0000   1.0000   1.0000
     1.0000   1.0000   1.0000   1.0000   1.0000   1.0000   1.0000   1.0000
     1.0000   1.0000   1.0000   1.0000   1.0000   1.0000   1.0000   1.0000
     1.0000   1.0000   1.0000   1.0000   1.0000   1.0000   1.0000   1.0000
     1.0000   1.0000   1.0000   1.0000   1.0000   1.0000   1.0000   1.0000
     1.0000   1.0000   1.0000   1.0000   1.0000   1.0000   1.0000   1.0000
     1.0000   1.0000   1.0000   1.0000   1.0000   1.0000   1.0000   1.0000
     1.0000   1.0000   1.0000   1.0000   1.0000   1.0000   1.0000   1.0000
     1.0000   1.0000   1.0000   1.0000   1.0000   1.0000   1.0000   1.0000
     1.0000   1.0000   1.0000   1.0000   1.0000   1.0000   1.0000   1.0000
     1.0000   1.0000   1.0000   1.0000   1.0000   1.0000   1.0000   1.0000
     1.0000   1.0000   1.0000   1.0000   1.0000   1.0000   1.0000   1.0000
     1.0000   1.0000   1.0000   1.0000   1.0000   1.0000   1.0000   1.0000
     1.0000   1.0000   1.0000   1.0000   1.0000   1.0000   1.0000   1.0000
     1.0000   1.0000   1.0000   1.0000   1.0000   1.0000   1.0000   1.0000
     1.0000   1.0000   1.0000   1.0000   1.0000   1.0000   1.0000   1.0000
     1.0000   1.0000   1.0000   1.0000   1.0000   1.0000   1.0000   1.0000
     1.0000   1.0000   1.0000   1.0000   1.0000   1.0000   1.0000   1.0000
     1.0000   1.0000   1.0000   1.0000   1.0000   1.0000   1.0000   1.0000
     1.0000   1.0000   1.0000   1.0000   1.0000   1.0000   1.0000   1.0000
     1.0000   1.0000   1.0000   1.0000   1.0000   1.0000   1.0000   1.0000
     1.0000   1.0000   1.0000   1.0000   1.0000   1.0000   1.0000   1.0000
     1.0000   1.0000   1.0000   1.0000   1.0000   1.0000   1.0000   1.0003
     1.0006   1.0006   1.0008   1.0032   1.0792   1.0204   0.8593   0.6753
     0.0552   0.0470   0.0219   0.0063   0.0000   0.0000   0.0000   0.0000
     0.0000   0.0000   0.0000   0.0000   0.0000   0.0000   0.0000   0.0000
     0.0000   0.0000   0.0000   0.0000   0.0000   0.0000   0.0000   0.0000
     0.0000   0.0000   0.0000   0.0000   0.0000   0.0000   0.0000   0.0000
     0.0000   0.0000   0.0000   0.0000   0.0000   0.0000   0.0000   0.0000
     0.0000   0.0000   0.0000   0.0000   0.0000   0.0000   0.0000   0.0000
     0.0000   0.0000   0.0000   0.0000   0.0000   0.0000   0.0000   0.0000
     0.0000   0.0000   0.0000   0.0000   0.0000   0.0000   0.0000   0.0000
     0.0000   0.0000   0.0000   0.0000   0.0000   0.0000   0.0000   0.0000
     0.0000   0.0000   0.0000   0.0000   0.0000   0.0000   0.0000   0.0000
     0.0000   0.0000   0.0000   0.0000   0.0000   0.0000   0.0000   0.0000
     0.0000   0.0000   0.0000   0.0000   0.0000   0.0000   0.0000   0.0000

     the Fermi energy is     1.1754 ev

!    total energy              =  -22153.81550923 Ry
     estimated scf accuracy    <       0.00000057 Ry
     smearing contrib. (-TS)   =      -0.00123941 Ry
     internal energy E=F+TS    =  -22153.81426982 Ry

     The total energy is F=E-TS. E is the sum of the following terms:
     one-electron contribution = -134885.97258843 Ry
     hartree contribution      =   67365.82742686 Ry
     xc contribution           =   -2023.63160941 Ry
     ewald contribution        =   47389.96250115 Ry

     convergence has been achieved in  11 iterations

     Forces acting on atoms (cartesian axes, Ry/au):

     atom    1 type  1   force =    -0.00016199   -0.00003963   -0.00863680
     atom    2 type  1   force =    -0.00020320    0.00004716   -0.00860303
     atom    3 type  1   force =    -0.00019575   -0.00011545    0.00843053
     atom    4 type  1   force =    -0.00022058    0.00011236    0.00833851
     atom    5 type  1   force =    -0.00014031   -0.00003957    0.02922546
     atom    6 type  1   force =    -0.00009847    0.00001179    0.02923849
     atom    7 type  1   force =    -0.00016281    0.00015567   -0.00860829
     atom    8 type  1   force =    -0.00020202   -0.00016935   -0.00862806
     atom    9 type  1   force =    -0.00015592    0.00007556    0.00845272
     atom   10 type  1   force =    -0.00025967   -0.00007781    0.00832400
     atom   11 type  1   force =    -0.00006578    0.00000478    0.02929866
     atom   12 type  1   force =    -0.00017512    0.00003238    0.02916741
     atom   13 type  1   force =     0.00016306   -0.00015375   -0.00822479
     atom   14 type  1   force =     0.00020464    0.00015685   -0.00825644
     atom   15 type  1   force =     0.00019683   -0.00014669    0.00858098
     atom   16 type  1   force =     0.00022221    0.00014383    0.00850691
     atom   17 type  1   force =     0.00014162    0.00004551    0.02885473
     atom   18 type  1   force =     0.00009891   -0.00006663    0.02895067
     atom   19 type  1   force =     0.00016337    0.00010819   -0.00826366
     atom   20 type  1   force =     0.00020341   -0.00011604   -0.00821573
     atom   21 type  1   force =     0.00015663   -0.00008720    0.00863994
     atom   22 type  1   force =     0.00026225    0.00008318    0.00845487
     atom   23 type  1   force =     0.00006622   -0.00008765    0.02893484
     atom   24 type  1   force =     0.00017652    0.00011880    0.02887043
     atom   25 type  1   force =     0.00061573   -0.00015009   -0.02905481
     atom   26 type  1   force =     0.00046636    0.00013885   -0.02910886
     atom   27 type  1   force =     0.00078300   -0.00000653   -0.00856355
     atom   28 type  1   force =     0.00065182   -0.00002106   -0.00849707
     atom   29 type  1   force =     0.00053030    0.00007062    0.00856984
     atom   30 type  1   force =     0.00052386   -0.00007246    0.00858273
[...]
     atom   26 type  1   force =     0.00000000    0.00000000    0.00000000
     atom   27 type  1   force =     0.00000000    0.00000000    0.00000000
     atom   28 type  1   force =     0.00000000    0.00000000    0.00000000
     atom   29 type  1   force =     0.00000000    0.00000000    0.00000000
     atom   30 type  1   force =     0.00000000    0.00000000    0.00000000
     atom   31 type  1   force =     0.00000000    0.00000000    0.00000000
     atom   32 type  1   force =     0.00000000    0.00000000    0.00000000
     atom   33 type  1   force =     0.00000000    0.00000000    0.00000000
     atom   34 type  1   force =     0.00000000    0.00000000    0.00000000
     atom   35 type  1   force =     0.00000000    0.00000000    0.00000000
     atom   36 type  1   force =     0.00000000    0.00000000    0.00000000
     atom   37 type  1   force =     0.00000000    0.00000000    0.00000000
     atom   38 type  1   force =     0.00000000    0.00000000    0.00000000
     atom   39 type  1   force =     0.00000000    0.00000000    0.00000000
     atom   40 type  1   force =     0.00000000    0.00000000    0.00000000
     atom   41 type  1   force =     0.00000000    0.00000000    0.00000000
     atom   42 type  1   force =     0.00000000    0.00000000    0.00000000
     atom   43 type  1   force =     0.00000000    0.00000000    0.00000000
     atom   44 type  1   force =     0.00000000    0.00000000    0.00000000
     atom   45 type  1   force =     0.00000000    0.00000000    0.00000000
     atom   46 type  1   force =     0.00000000    0.00000000    0.00000000
     atom   47 type  1   force =     0.00000000    0.00000000    0.00000000
     atom   48 type  1   force =     0.00000000    0.00000000    0.00000000
     The Hubbard contrib.    to forces
     atom    1 type  1   force =     0.00000000    0.00000000    0.00000000
     atom    2 type  1   force =     0.00000000    0.00000000    0.00000000
     atom    3 type  1   force =     0.00000000    0.00000000    0.00000000
     atom    4 type  1   force =     0.00000000    0.00000000    0.00000000
     atom    5 type  1   force =     0.00000000    0.00000000    0.00000000
     atom    6 type  1   force =     0.00000000    0.00000000    0.00000000
     atom    7 type  1   force =     0.00000000    0.00000000    0.00000000
     atom    8 type  1   force =     0.00000000    0.00000000    0.00000000
     atom    9 type  1   force =     0.00000000    0.00000000    0.00000000
     atom   10 type  1   force =     0.00000000    0.00000000    0.00000000
     atom   11 type  1   force =     0.00000000    0.00000000    0.00000000
     atom   12 type  1   force =     0.00000000    0.00000000    0.00000000
     atom   13 type  1   force =     0.00000000    0.00000000    0.00000000
     atom   14 type  1   force =     0.00000000    0.00000000    0.00000000
     atom   15 type  1   force =     0.00000000    0.00000000    0.00000000
     atom   16 type  1   force =     0.00000000    0.00000000    0.00000000
     atom   17 type  1   force =     0.00000000    0.00000000    0.00000000
     atom   18 type  1   force =     0.00000000    0.00000000    0.00000000
     atom   19 type  1   force =     0.00000000    0.00000000    0.00000000
     atom   20 type  1   force =     0.00000000    0.00000000    0.00000000
     atom   21 type  1   force =     0.00000000    0.00000000    0.00000000
     atom   22 type  1   force =     0.00000000    0.00000000    0.00000000
     atom   23 type  1   force =     0.00000000    0.00000000    0.00000000
     atom   24 type  1   force =     0.00000000    0.00000000    0.00000000
     atom   25 type  1   force =     0.00000000    0.00000000    0.00000000
     atom   26 type  1   force =     0.00000000    0.00000000    0.00000000
     atom   27 type  1   force =     0.00000000    0.00000000    0.00000000
     atom   28 type  1   force =     0.00000000    0.00000000    0.00000000
     atom   29 type  1   force =     0.00000000    0.00000000    0.00000000
     atom   30 type  1   force =     0.00000000    0.00000000    0.00000000
     atom   31 type  1   force =     0.00000000    0.00000000    0.00000000
     atom   32 type  1   force =     0.00000000    0.00000000    0.00000000
     atom   33 type  1   force =     0.00000000    0.00000000    0.00000000
     atom   34 type  1   force =     0.00000000    0.00000000    0.00000000
     atom   35 type  1   force =     0.00000000    0.00000000    0.00000000
     atom   36 type  1   force =     0.00000000    0.00000000    0.00000000
     atom   37 type  1   force =     0.00000000    0.00000000    0.00000000
     atom   38 type  1   force =     0.00000000    0.00000000    0.00000000
     atom   39 type  1   force =     0.00000000    0.00000000    0.00000000
     atom   40 type  1   force =     0.00000000    0.00000000    0.00000000
     atom   41 type  1   force =     0.00000000    0.00000000    0.00000000
     atom   42 type  1   force =     0.00000000    0.00000000    0.00000000
     atom   43 type  1   force =     0.00000000    0.00000000    0.00000000
     atom   44 type  1   force =     0.00000000    0.00000000    0.00000000
     atom   45 type  1   force =     0.00000000    0.00000000    0.00000000
     atom   46 type  1   force =     0.00000000    0.00000000    0.00000000
     atom   47 type  1   force =     0.00000000    0.00000000    0.00000000
     atom   48 type  1   force =     0.00000000    0.00000000    0.00000000
     The SCF correction term to forces
     atom    1 type  1   force =    -0.00000000    0.00000000   -0.00000000
     atom    2 type  1   force =    -0.00000000   -0.00000000   -0.00000000
     atom    3 type  1   force =    -0.00010918    0.00005720   -0.00011228
     atom    4 type  1   force =    -0.00011220   -0.00005552   -0.00010726
     atom    5 type  1   force =    -0.00007429    0.00003250   -0.00000842
     atom    6 type  1   force =    -0.00007029   -0.00002777   -0.00002807
     atom    7 type  1   force =    -0.00000000   -0.00000000   -0.00000000
     atom    8 type  1   force =    -0.00000000    0.00000000   -0.00000000
     atom    9 type  1   force =    -0.00010298    0.00001154   -0.00011185
     atom   10 type  1   force =    -0.00011557   -0.00001245   -0.00011155
     atom   11 type  1   force =    -0.00006793    0.00004238   -0.00002256
     atom   12 type  1   force =    -0.00007654   -0.00004675   -0.00001464
     atom   13 type  1   force =     0.00000000    0.00000000   -0.00000000
     atom   14 type  1   force =     0.00000000   -0.00000000   -0.00000000
     atom   15 type  1   force =     0.00010741    0.00005174   -0.00003075
     atom   16 type  1   force =     0.00011151   -0.00005213   -0.00002656
     atom   17 type  1   force =     0.00007609    0.00004324    0.00001596
     atom   18 type  1   force =     0.00007237   -0.00004154    0.00001254
     atom   19 type  1   force =     0.00000000   -0.00000000   -0.00000000
     atom   20 type  1   force =     0.00000000    0.00000000   -0.00000000
     atom   21 type  1   force =     0.00010342   -0.00001839   -0.00003219
     atom   22 type  1   force =     0.00011359    0.00001804   -0.00002909
     atom   23 type  1   force =     0.00007050    0.00002613    0.00000466
     atom   24 type  1   force =     0.00007803   -0.00002792    0.00002369
     atom   25 type  1   force =    -0.00000000    0.00000000   -0.00000000
     atom   26 type  1   force =    -0.00000000   -0.00000000   -0.00000000
     atom   27 type  1   force =    -0.00002492    0.00004386   -0.00000811
     atom   28 type  1   force =    -0.00004858   -0.00004675   -0.00000303
     atom   29 type  1   force =     0.00001111    0.00000170    0.00009378
     atom   30 type  1   force =     0.00000696   -0.00000208    0.00007882
     atom   31 type  1   force =    -0.00000000   -0.00000000   -0.00000000
     atom   32 type  1   force =    -0.00000000    0.00000000   -0.00000000
     atom   33 type  1   force =    -0.00002815    0.00003985   -0.00000651
     atom   34 type  1   force =    -0.00004534   -0.00003713   -0.00000469
     atom   35 type  1   force =     0.00001877    0.00006256    0.00008346
     atom   36 type  1   force =    -0.00000046   -0.00006170    0.00008574
     atom   37 type  1   force =     0.00000000    0.00000000   -0.00000000
     atom   38 type  1   force =     0.00000000   -0.00000000   -0.00000000
     atom   39 type  1   force =     0.00002521    0.00003274   -0.00002596
     atom   40 type  1   force =     0.00004751   -0.00003064   -0.00002178
     atom   41 type  1   force =    -0.00000998   -0.00000152    0.00002756
     atom   42 type  1   force =    -0.00001079    0.00000096    0.00001399
     atom   43 type  1   force =     0.00000000   -0.00000000   -0.00000000
     atom   44 type  1   force =     0.00000000    0.00000000   -0.00000000
     atom   45 type  1   force =     0.00002740    0.00003009   -0.00002494
     atom   46 type  1   force =     0.00004556   -0.00003226   -0.00002278
     atom   47 type  1   force =    -0.00002062    0.00004783    0.00001949
     atom   48 type  1   force =    -0.00000059   -0.00004748    0.00002017

     Total force =     0.000973     Total SCF correction =     0.000536
     SCF correction compared to forces is large: reduce conv_thr to get better values


     Computing stress (Cartesian axis) and pressure

          total   stress  (Ry/bohr**3)                   (kbar)     P=      -12.25
  -0.00016052   0.00000000  -0.00000000          -23.61        0.00       -0.00
   0.00000000  -0.00007759   0.00000000            0.00      -11.41        0.00
  -0.00000000   0.00000000  -0.00001182           -0.00        0.00       -1.74

     kinetic stress (kbar)  11931.85     -0.00     -0.00
                               -0.00  11908.44      0.00
                               -0.00      0.00  11968.28

     local   stress (kbar)**********      0.00      0.04
                                0.00**********      0.05
                                0.04      0.051015821.77

     nonloc. stress (kbar)  -1289.79      0.00     -0.00
                                0.00  -1262.62      0.00
                               -0.00      0.00  -1312.13

     hartree stress (kbar) 528093.12     -0.00     -0.02
                               -0.00 533296.20     -0.02
                               -0.02     -0.02-474304.18

     exc-cor stress (kbar)  -6010.66     -0.00     -0.00
                               -0.00  -6007.36     -0.00
                               -0.00     -0.00  -6015.69

     corecor stress (kbar)      0.00      0.00      0.00
                                0.00      0.00      0.00
                                0.00      0.00      0.00

     ewald   stress (kbar) 470428.52     -0.00     -0.02
                               -0.00 477327.29     -0.03
                               -0.02     -0.03-546159.79

     hubbard stress (kbar)      0.00      0.00      0.00
                                0.00      0.00      0.00
                                0.00      0.00      0.00

     DFT-D   stress (kbar)      0.00      0.00      0.00
                                0.00      0.00      0.00
                                0.00      0.00      0.00

     XDM     stress (kbar)      0.00      0.00      0.00
                                0.00      0.00      0.00
                                0.00      0.00      0.00

     dft-nl  stress (kbar)      0.00      0.00      0.00
                                0.00      0.00      0.00
                                0.00      0.00      0.00

     TS-vdW  stress (kbar)      0.00      0.00      0.00
                                0.00      0.00      0.00
                                0.00      0.00      0.00

     MDB     stress (kbar)      0.00      0.00      0.00
                                0.00      0.00      0.00
                                0.00      0.00      0.00

     3D-RISM stress (kbar)      0.00      0.00      0.00
                                0.00      0.00      0.00
                                0.00      0.00      0.00

     Energy error            =      7.3E-06 Ry
     Gradient error          =      2.3E-04 Ry/Bohr

     bfgs converged in  24 scf cycles and  23 bfgs steps
     (criteria: energy <  1.0E-05 Ry, force <  5.0E-04 Ry/Bohr)

     End of BFGS Geometry Optimization

     Final energy             =  -22154.0007099926 Ry

     File ./tmp/Zn100_3layer_relax.bfgs deleted, as requested
Begin final coordinates

ATOMIC_POSITIONS (angstrom)
Zn               1.2182900000        1.3071800000        0.7547010000    0   0   0
Zn               1.2182900000        6.5359000000        0.7547010000    0   0   0
Zn               1.2186264843       -0.0003037812        3.5509453584
Zn               1.2186459256        5.2290663921        3.5504088378
Zn               1.2186098387       -1.3074240104        6.1151709419
Zn               1.2185743342        3.9218259146        6.1156332212
Zn               1.2182900000        3.9215400000        0.7547010000    0   0   0
Zn               1.2182900000        9.1502600000        0.7547010000    0   0   0
Zn               1.2185878136        2.6141325148        3.5512224861
Zn               1.2186611789        7.8433501881        3.5502116094
Zn               1.2185570395        1.3070146990        6.1159525544
Zn               1.2186264098        6.5360684287        6.1148760041
Zn               6.0914510000        1.3071800000        0.7547010000    0   0   0
Zn               6.0914510000        6.5359000000        0.7547010000    0   0   0
Zn               6.0911742642       -0.0002405301        3.5485565566
Zn               6.0911563159        5.2290064427        3.5485826907
Zn               6.0911740847       -1.3075579558        6.1154254928
Zn               6.0911812752        3.9219568611        6.1161523610
Zn               6.0914510000        3.9215400000        0.7547010000    0   0   0
Zn               6.0914510000        9.1502600000        0.7547010000    0   0   0
Zn               6.0912153893        2.6145647052        3.5493086855
Zn               6.0911525552        7.8429156096        3.5478848029
Zn               6.0912027490        1.3071242726        6.1163474151
Zn               6.0911522962        6.5359557695        6.1152318488
Zn               3.6548710000       -0.0000000000        1.5094010000    0   0   0
Zn               3.6548710000        5.2287200000        1.5094010000    0   0   0
Zn               3.6541695707       -1.3075053681        3.8214308048
Zn               3.6540850347        3.9218919290        3.8213708992
Zn               3.6531242192       -2.6144494038        6.2105533896
Zn               3.6531101202        2.6145286504        6.2113549091
Zn               3.6548710000        2.6143600000        1.5094010000    0   0   0
Zn               3.6548710000        7.8430800000        1.5094010000    0   0   0
Zn               3.6541491071        1.3068826469        3.8213799633
Zn               3.6541091758        6.5361873731        3.8214301263
Zn               3.6530498325       -0.0001671494        6.2109979472
Zn               3.6531837964        5.2289474628        6.2108970909
Zn               8.5280310000       -0.0000000000        1.5094010000    0   0   0
Zn               8.5280310000        5.2287200000        1.5094010000    0   0   0
Zn               8.5286924066       -1.3073930071        3.8214920951
Zn               8.5288596629        3.9217562663        3.8213848378
Zn               8.5297607007       -2.6143928101        6.2107397504
Zn               8.5297965316        2.6144654471        6.2114319484
Zn               8.5280310000        2.6143600000        1.5094010000    0   0   0
Zn               8.5280310000        7.8430800000        1.5094010000    0   0   0
Zn               8.5287993201        1.3069569333        3.8213722876
Zn               8.5287503987        6.5361346764        3.8215136844
Zn               8.5298447629        0.0000003196        6.2110934060
Zn               8.5296984373        5.2287884253        6.2110737680
End final coordinates



     Writing all to output data dir ./tmp/Zn100_3layer_relax.save/ :
     XML data file, charge density, pseudopotentials, collected wavefunctions

     init_run     :     60.45s CPU     61.42s WALL (       1 calls)
     electrons    :  88095.76s CPU  89042.16s WALL (      24 calls)
     update_pot   :      2.28s CPU      2.42s WALL (      23 calls)
     forces       :   2651.42s CPU   2667.68s WALL (      24 calls)
     stress       :   4783.85s CPU   4817.90s WALL (      24 calls)

     Called by init_run:
     wfcinit      :     59.09s CPU     60.00s WALL (       1 calls)
     wfcinit:atom :      0.03s CPU      0.06s WALL (       5 calls)
     wfcinit:wfcr :     58.51s CPU     59.32s WALL (       5 calls)
     potinit      :      0.08s CPU      0.09s WALL (       1 calls)
     hinit0       :      0.03s CPU      0.04s WALL (       1 calls)

     Called by electrons:
     c_bands      :  84152.31s CPU  84972.56s WALL (     214 calls)
     sum_band     :   3408.44s CPU   3507.48s WALL (     214 calls)
     v_of_rho     :     17.56s CPU     18.53s WALL (     221 calls)
     v_h          :      1.14s CPU      1.25s WALL (     221 calls)
     v_xc         :     16.42s CPU     17.28s WALL (     221 calls)
     newd         :    575.71s CPU    602.58s WALL (     221 calls)
     mix_rho      :      1.82s CPU      2.07s WALL (     214 calls)

     Called by c_bands:
     init_us_2    :     45.19s CPU     45.51s WALL (    2385 calls)
     cegterg      :  84068.29s CPU  84884.85s WALL (    1070 calls)

     Called by sum_band:
     sum_band:wei :      0.48s CPU      0.51s WALL (     214 calls)
     sum_band:loo :   3010.62s CPU   3073.69s WALL (     214 calls)
     sum_band:buf :      9.16s CPU      9.46s WALL (    1070 calls)
     sum_band:ini :     20.45s CPU     20.54s WALL (    1070 calls)
     sum_band:cal :   2536.49s CPU   2548.09s WALL (    1070 calls)
     sum_band:bec :     22.20s CPU     22.26s WALL (    1070 calls)
     addusdens    :    389.53s CPU    424.66s WALL (     214 calls)
                                        0.00s GPU  (     214 calls)
     addusd:skk   :      2.24s CPU      4.48s WALL (     214 calls)
                                        0.00s GPU  (     214 calls)

     Called by *egterg:
     cdiaghg      :   2243.96s CPU   2330.91s WALL (    3964 calls)
     cegterg:over :  19937.76s CPU  20010.16s WALL (    3094 calls)
     cegterg:upda :   5474.40s CPU   5521.19s WALL (    3094 calls)
     cegterg:last :  34658.34s CPU  34829.82s WALL (    2319 calls)
     cdiaghg:chol :    160.17s CPU    160.64s WALL (    3964 calls)
     cdiaghg:inve :     24.49s CPU     24.57s WALL (    3964 calls)
     cdiaghg:para :    614.90s CPU    627.84s WALL (    7928 calls)
     h_psi        :  13404.24s CPU  13734.14s WALL (    4169 calls)
     s_psi        :   5508.44s CPU   5522.27s WALL (    4169 calls)
     g_psi        :      6.65s CPU      6.77s WALL (    3094 calls)

     Called by h_psi:
     h_psi:calbec :   5914.05s CPU   5942.91s WALL (    4169 calls)
     vloc_psi     :   1874.01s CPU   2123.00s WALL (    4169 calls)
     add_vuspsi   :   5597.83s CPU   5614.21s WALL (    4169 calls)

     General routines
     calbec       :  11307.77s CPU  11358.57s WALL (    5839 calls)
     fft          :     16.32s CPU     17.91s WALL (    3057 calls)
     ffts         :      0.53s CPU      0.61s WALL (     435 calls)
     fftw         :   2042.50s CPU   2317.60s WALL ( 3491008 calls)
     interpolate  :      1.08s CPU      1.19s WALL (     221 calls)

     Parallel routines

     PWSCF        :   1d 2h34m CPU   1d 2h51m WALL


   This run was terminated on:  14:27:42  28Mar2025            

=------------------------------------------------------------------------------=
   JOB DONE.
=------------------------------------------------------------------------------=
