--------------------------------------------------------------------------
WARNING: There was an error initializing an OpenFabrics device.

  Local host:   ga00
  Local device: mlx5_0
--------------------------------------------------------------------------

     Program PWSCF v.7.3.1 starts on  4Apr2025 at 15:27: 7 

     This program is part of the open-source Quantum ESPRESSO suite
     for quantum simulation of materials; please cite
         "P. Giannozzi et al., J. Phys.:Condens. Matter 21 395502 (2009);
         "P. Giannozzi et al., J. Phys.:Condens. Matter 29 465901 (2017);
         "P. Giannozzi et al., J. Chem. Phys. 152 154105 (2020);
          URL http://www.quantum-espresso.org", 
     in publications or presentations arising from this work. More details at
     http://www.quantum-espresso.org/quote

     Parallel version (MPI), running on    29 processors

     MPI processes distributed on     1 nodes
     35914 MiB available memory on the printing compute node when the environment starts

     Waiting for input...
     Reading input from standard input
Warning: card &CELL ignored
Warning: card   CELL_DOFREE = 'ALL' ignored
Warning: card / ignored

     Current dimensions of program PWSCF are:
     Max number of different atomic species (ntypx) = 10
     Max number of k-points (npk) =  40000
     Max angular momentum in pseudopotentials (lmaxx) =  4
     Presently stress not available with electric field and gates

     file C.pbe-n-kjpaw_psl.1.0.0.UPF: wavefunction(s)  2S 2P renormalized

     R & G space division:  proc/nbgrp/npool/nimage =      29
     Subspace diagonalization in iterative solution of the eigenvalue problem:
     a serial algorithm will be used


     Parallelization info
     --------------------
     sticks:   dense  smooth     PW     G-vecs:    dense   smooth      PW
     Min        1714     979    249               287676   124263   15993
     Max        1715     980    251               287679   124268   15995
     Sum       49717   28417   7237              8342671  3603727  463837

     Using Slab Decomposition



     bravais-lattice index     =            1
     lattice parameter (alat)  =      47.2432  a.u.
     unit-cell volume          =  105442.7265 (a.u.)^3
     number of atoms/cell      =           15
     number of atomic types    =            3
     number of electrons       =        36.00
     number of Kohn-Sham states=           22
     kinetic-energy cutoff     =      40.0000  Ry
     charge density cutoff     =     280.0000  Ry
     scf convergence threshold =      1.0E-06
     mixing beta               =       0.4000
     number of iterations used =            8  plain     mixing
     energy convergence thresh.=      1.0E-05
     force convergence thresh. =      5.0E-04
     Exchange-correlation= PBE
                           (   1   4   3   4   0   0   0)
     nstep                     =          100


     celldm(1)=  47.243153  celldm(2)=   0.000000  celldm(3)=   0.000000
     celldm(4)=   0.000000  celldm(5)=   0.000000  celldm(6)=   0.000000

     crystal axes: (cart. coord. in units of alat)
               a(1) = (   1.000000   0.000000   0.000000 )  
               a(2) = (   0.000000   1.000000   0.000000 )  
               a(3) = (   0.000000   0.000000   1.000000 )  

     reciprocal axes: (cart. coord. in units 2 pi/alat)
               b(1) = (  1.000000  0.000000  0.000000 )  
               b(2) = (  0.000000  1.000000  0.000000 )  
               b(3) = (  0.000000  0.000000  1.000000 )  


     PseudoPot. # 1 for N  read from file:
     /home/yongsang/Research/PSID_server_room/qe/[00]QE/qepseudo/SSSP_1.3.0_PBE_efficiency/N.pbe-n-radius_5.UPF
     MD5 check sum: 16739722b17309cd8fe442a2ace49922
     Pseudo is Ultrasoft + core correction, Zval =  5.0
     Generated using "atomic" code by A. Dal Corso  v.5.1
     Using radial grid of 1085 points,  4 beta functions with: 
                l(1) =   0
                l(2) =   0
                l(3) =   1
                l(4) =   1
     Q(r) pseudized with 0 coefficients 


     PseudoPot. # 2 for C  read from file:
     /home/yongsang/Research/PSID_server_room/qe/[00]QE/qepseudo/SSSP_1.3.0_PBE_efficiency/C.pbe-n-kjpaw_psl.1.0.0.UPF
     MD5 check sum: 5d2aebdfa2cae82b50a7e79e9516da0f
     Pseudo is Projector augmented-wave + core cor, Zval =  4.0
     Generated using "atomic" code by A. Dal Corso  v.5.1
     Shape of augmentation charge: PSQ
     Using radial grid of 1073 points,  4 beta functions with: 
                l(1) =   0
                l(2) =   0
                l(3) =   1
                l(4) =   1
     Q(r) pseudized with 0 coefficients 


     PseudoPot. # 3 for H  read from file:
     /home/yongsang/Research/PSID_server_room/qe/[00]QE/qepseudo/SSSP_1.3.0_PBE_efficiency/H.pbe-rrkjus_psl.1.0.0.UPF
     MD5 check sum: f52b6d4d1c606e5624b1dc7b2218f220
     Pseudo is Ultrasoft, Zval =  1.0
     Generated using "atomic" code by A. Dal Corso  v.5.1
     Using radial grid of  929 points,  2 beta functions with: 
                l(1) =   0
                l(2) =   0
     Q(r) pseudized with 0 coefficients 


     atomic species   valence    mass     pseudopotential
     N                 5.00    14.00674     N ( 1.00)
     C                 4.00    12.01070     C ( 1.00)
     H                 1.00     1.00794     H ( 1.00)

     No symmetry found


                                    s                        frac. trans.

      isym =  1     identity                                     

 cryst.   s( 1) = (     1          0          0      )
                  (     0          1          0      )
                  (     0          0          1      )

 cart.    s( 1) = (  1.0000000  0.0000000  0.0000000 )
                  (  0.0000000  1.0000000  0.0000000 )
                  (  0.0000000  0.0000000  1.0000000 )


     point group C_1 (1)    
     there are  1 classes
     the character table:

       E    
A      1.00

     the symmetry operations in each class and the name of the first element:

     E        1
          identity                                               

   Cartesian axes

     site n.     atom                  positions (alat units)
         1        N      tau(   1) = (   0.3791518   0.4718719   0.4384479  )
         2        C      tau(   2) = (   0.4715876   0.5045398   0.4350489  )
         3        C      tau(   3) = (   0.4350836   0.4618443   0.4376803  )
         4        C      tau(   4) = (   0.5266304   0.4945831   0.4344090  )
         5        C      tau(   5) = (   0.4545581   0.4091298   0.4397940  )
         6        C      tau(   6) = (   0.5456406   0.4420517   0.4364501  )
         7        C      tau(   7) = (   0.5096390   0.3993668   0.4391551  )
         8        H      tau(   8) = (   0.4573686   0.5454190   0.4334992  )
         9        H      tau(   9) = (   0.3680020   0.4770723   0.4737366  )
        10        H      tau(  10) = (   0.5545559   0.5276038   0.4323554  )
        11        H      tau(  11) = (   0.4270938   0.3757067   0.4419470  )
        12        H      tau(  12) = (   0.5882573   0.4344211   0.4359666  )
        13        H      tau(  13) = (   0.5244118   0.3587069   0.4407783  )
        14        H      tau(  14) = (   0.3684577   0.5073782   0.4204113  )
        15        H      tau(  15) = (   0.3562749   0.4400597   0.4256110  )

     --------------------------------------------
     DFT-D3 Dispersion Correction (3-body terms):
     --------------------------------------------
       Reference C6 values for interpolation: 

         atom   Coordination number   C6
         H          0.912             6.05
         H          0.000            15.18
         C          0.000            98.23
         C          0.987            86.49
         C          1.998            58.72
         C          2.999            51.56
         C          3.984            36.41
         N          0.000            50.54
         N          0.994            44.25
         N          2.014            39.35
         N          2.990            31.16

       Values used:

         atom   Coordination number  R0_AB[au]  C6      C8
         N          4.060            2.478     31.16    687.49
         C          3.158            2.750     50.47   1459.57
         C          3.152            2.750     50.52   1461.02
         C          3.125            2.750     50.72   1466.89
         C          3.158            2.750     50.47   1459.59
         C          3.127            2.750     50.71   1466.61
         C          3.125            2.750     50.72   1466.90
         H          1.003            2.062      6.18     74.68
         H          1.016            2.062      6.17     74.55
         H          1.003            2.062      6.18     74.68
         H          1.003            2.062      6.18     74.68
         H          1.003            2.062      6.18     74.68
         H          1.003            2.062      6.18     74.68
         H          1.004            2.062      6.18     74.67
         H          1.004            2.062      6.18     74.67

         Molecular C6 ( Ry / a.u.^6 ) =      4634.15


   Crystallographic axes

     site n.     atom                  positions (cryst. coord.)
         1        N      tau(   1) = (  0.3791518  0.4718719  0.4384479  )
         2        C      tau(   2) = (  0.4715876  0.5045398  0.4350489  )
         3        C      tau(   3) = (  0.4350836  0.4618443  0.4376803  )
         4        C      tau(   4) = (  0.5266304  0.4945831  0.4344090  )
         5        C      tau(   5) = (  0.4545581  0.4091298  0.4397940  )
         6        C      tau(   6) = (  0.5456406  0.4420517  0.4364501  )
         7        C      tau(   7) = (  0.5096390  0.3993668  0.4391551  )
         8        H      tau(   8) = (  0.4573686  0.5454190  0.4334992  )
         9        H      tau(   9) = (  0.3680020  0.4770723  0.4737366  )
        10        H      tau(  10) = (  0.5545559  0.5276038  0.4323554  )
        11        H      tau(  11) = (  0.4270938  0.3757067  0.4419470  )
        12        H      tau(  12) = (  0.5882573  0.4344211  0.4359666  )
        13        H      tau(  13) = (  0.5244118  0.3587069  0.4407783  )
        14        H      tau(  14) = (  0.3684577  0.5073782  0.4204113  )
        15        H      tau(  15) = (  0.3562749  0.4400597  0.4256110  )

     number of k points=     5  Marzari-Vanderbilt smearing, width (Ry)=  0.0200
                       cart. coord. in units 2pi/alat
        k(    1) = (   0.0000000   0.0000000   0.0000000), wk =   0.2222222
        k(    2) = (   0.0000000   0.3333333   0.0000000), wk =   0.4444444
        k(    3) = (   0.3333333   0.0000000   0.0000000), wk =   0.4444444
        k(    4) = (   0.3333333   0.3333333   0.0000000), wk =   0.4444444
        k(    5) = (   0.3333333  -0.3333333   0.0000000), wk =   0.4444444

                       cryst. coord.
        k(    1) = (   0.0000000   0.0000000   0.0000000), wk =   0.2222222
        k(    2) = (   0.0000000   0.3333333   0.0000000), wk =   0.4444444
        k(    3) = (   0.3333333   0.0000000   0.0000000), wk =   0.4444444
        k(    4) = (   0.3333333   0.3333333   0.0000000), wk =   0.4444444
        k(    5) = (   0.3333333  -0.3333333   0.0000000), wk =   0.4444444

     Dense  grid:  8342671 G-vectors     FFT dimensions: ( 256, 256, 256)

     Smooth grid:  3603727 G-vectors     FFT dimensions: ( 192, 192, 192)

     Dynamical RAM for                 wfc:       5.21 MB

     Dynamical RAM for     wfc (w. buffer):      31.29 MB

     Dynamical RAM for           str. fact:      13.17 MB

     Dynamical RAM for           local pot:       0.00 MB

     Dynamical RAM for          nlocal pot:      17.07 MB

     Dynamical RAM for                qrad:       1.15 MB

     Dynamical RAM for          rho,v,vnew:      26.67 MB

     Dynamical RAM for               rhoin:       8.89 MB

     Dynamical RAM for            rho*nmix:      70.23 MB

     Dynamical RAM for           G-vectors:      17.41 MB

     Dynamical RAM for          h,s,v(r/c):       0.09 MB

     Dynamical RAM for          <psi|beta>:       0.02 MB

     Dynamical RAM for                 psi:      10.43 MB

     Dynamical RAM for                hpsi:      10.43 MB

     Dynamical RAM for                spsi:      10.43 MB

     Dynamical RAM for      wfcinit/wfcrot:      17.10 MB

     Dynamical RAM for           addusdens:     223.87 MB

     Dynamical RAM for          addusforce:     287.53 MB

     Estimated static dynamical RAM per process >     155.70 MB

     Estimated max dynamical RAM per process >     513.46 MB

     Estimated total dynamical RAM >      14.54 GB
[ga00:3162879] 28 more processes have sent help message help-mpi-btl-openib.txt / error in device init
[ga00:3162879] Set MCA parameter "orte_base_help_aggregate" to 0 to see all help / error messages

     Adding charged plate to compensate the charge of the system - add_gatefield
     see PRB 89, 245406 (2014), works only for 2D systems perpendicular to z
                                i.e. 3rd lattice vector is (0,0,c)

        prefactor of the potential in [Ha a.u.]:     0.002815
               position of the gate within cell:     0.90000
         ion-gate + gate-gate contribution to the total energy:     2.490436
                         gate-gate contribution:     0.022166


     Initial potential from superposition of free atoms

     starting charge      36.9997, renormalised to      36.0000

     negative rho (up, down):  8.832E-03 0.000E+00

     Adding external electric field

     Computed dipole along edir(3) : 
        Elec. dipole          0.0783 Ry au,          0.1989 Debye
        Ion. dipole           0.0816 Ry au,          0.2073 Debye
        Dipole               27.7816 Ry au,         70.6137 Debye
        Dipole field          0.0033 Ry au, 

        Potential amp.       -0.2816 Ry
        Total length         42.5188 bohr

     Starting wfcs are   36 randomized atomic wfcs
     Checking if some PAW data can be deallocated... 
       PAW data deallocated on   17 nodes for type:  2

     total cpu time spent up to now is       18.9 secs

     Self-consistent Calculation

     iteration #  1     ecut=    40.00 Ry     beta= 0.40
     Davidson diagonalization with overlap

---- Real-time Memory Report at c_bands before calling an iterative solver
           484 MiB given to the printing process from OS
             0 MiB allocation reported by mallinfo(arena+hblkhd)
         30030 MiB available memory on the node where the printing process lives
------------------
     ethr =  1.00E-02,  avg # of iterations =  3.0

     negative rho (up, down):  1.014E-02 0.000E+00

     Adding external electric field

     Computed dipole along edir(3) : 
        Elec. dipole          0.0784 Ry au,          0.1992 Debye
        Ion. dipole           0.0816 Ry au,          0.2073 Debye
        Dipole               26.9198 Ry au,         68.4232 Debye
        Dipole field          0.0032 Ry au, 

        Potential amp.       -0.2728 Ry
        Total length         42.5188 bohr


     total cpu time spent up to now is       38.6 secs

     total energy              =    -137.79261788 Ry
     estimated scf accuracy    <       2.85028540 Ry

     iteration #  2     ecut=    40.00 Ry     beta= 0.40
     Davidson diagonalization with overlap

---- Real-time Memory Report at c_bands before calling an iterative solver
           558 MiB given to the printing process from OS
             0 MiB allocation reported by mallinfo(arena+hblkhd)
         28824 MiB available memory on the node where the printing process lives
------------------
     ethr =  7.92E-03,  avg # of iterations =  2.0

     negative rho (up, down):  1.109E-02 0.000E+00

     Adding external electric field

     Computed dipole along edir(3) : 
        Elec. dipole          0.0784 Ry au,          0.1993 Debye
        Ion. dipole           0.0816 Ry au,          0.2073 Debye
        Dipole               26.3883 Ry au,         67.0723 Debye
        Dipole field          0.0031 Ry au, 

        Potential amp.       -0.2674 Ry
        Total length         42.5188 bohr


     total cpu time spent up to now is       55.6 secs

     total energy              =    -137.97513855 Ry
     estimated scf accuracy    <       0.30830532 Ry

     iteration #  3     ecut=    40.00 Ry     beta= 0.40
     Davidson diagonalization with overlap

---- Real-time Memory Report at c_bands before calling an iterative solver
           562 MiB given to the printing process from OS
             0 MiB allocation reported by mallinfo(arena+hblkhd)
         28701 MiB available memory on the node where the printing process lives
------------------
     ethr =  8.56E-04,  avg # of iterations =  6.0

     negative rho (up, down):  1.177E-02 0.000E+00

     Adding external electric field

     Computed dipole along edir(3) : 
        Elec. dipole          0.0784 Ry au,          0.1994 Debye
        Ion. dipole           0.0816 Ry au,          0.2073 Debye
        Dipole               26.2187 Ry au,         66.6412 Debye
        Dipole field          0.0031 Ry au, 

        Potential amp.       -0.2657 Ry
        Total length         42.5188 bohr


     total cpu time spent up to now is       76.1 secs

     total energy              =    -138.00637182 Ry
     estimated scf accuracy    <       0.05154836 Ry

     iteration #  4     ecut=    40.00 Ry     beta= 0.40
     Davidson diagonalization with overlap

---- Real-time Memory Report at c_bands before calling an iterative solver
           565 MiB given to the printing process from OS
             0 MiB allocation reported by mallinfo(arena+hblkhd)
         28599 MiB available memory on the node where the printing process lives
------------------
     ethr =  1.43E-04,  avg # of iterations =  2.0

     negative rho (up, down):  1.212E-02 0.000E+00

     Adding external electric field

     Computed dipole along edir(3) : 
        Elec. dipole          0.0784 Ry au,          0.1994 Debye
        Ion. dipole           0.0816 Ry au,          0.2073 Debye
        Dipole               26.1338 Ry au,         66.4254 Debye
        Dipole field          0.0031 Ry au, 

        Potential amp.       -0.2649 Ry
        Total length         42.5188 bohr


     total cpu time spent up to now is       93.0 secs

     total energy              =    -138.00948570 Ry
     estimated scf accuracy    <       0.00828460 Ry

     iteration #  5     ecut=    40.00 Ry     beta= 0.40
     Davidson diagonalization with overlap

---- Real-time Memory Report at c_bands before calling an iterative solver
           569 MiB given to the printing process from OS
             0 MiB allocation reported by mallinfo(arena+hblkhd)
         28488 MiB available memory on the node where the printing process lives
------------------
     ethr =  2.30E-05,  avg # of iterations =  4.0

     negative rho (up, down):  1.218E-02 0.000E+00

     Adding external electric field

     Computed dipole along edir(3) : 
        Elec. dipole          0.0785 Ry au,          0.1994 Debye
        Ion. dipole           0.0816 Ry au,          0.2073 Debye
        Dipole               26.1086 Ry au,         66.3614 Debye
        Dipole field          0.0031 Ry au, 

        Potential amp.       -0.2646 Ry
        Total length         42.5188 bohr


     total cpu time spent up to now is      109.9 secs

     total energy              =    -138.00954908 Ry
     estimated scf accuracy    <       0.00131355 Ry

     iteration #  6     ecut=    40.00 Ry     beta= 0.40
     Davidson diagonalization with overlap

---- Real-time Memory Report at c_bands before calling an iterative solver
           573 MiB given to the printing process from OS
             0 MiB allocation reported by mallinfo(arena+hblkhd)
         28367 MiB available memory on the node where the printing process lives
------------------
     ethr =  3.65E-06,  avg # of iterations = 16.6

     negative rho (up, down):  1.219E-02 0.000E+00

     Adding external electric field

     Computed dipole along edir(3) : 
        Elec. dipole          0.0785 Ry au,          0.1994 Debye
        Ion. dipole           0.0816 Ry au,          0.2073 Debye
        Dipole               26.1124 Ry au,         66.3711 Debye
        Dipole field          0.0031 Ry au, 

        Potential amp.       -0.2646 Ry
        Total length         42.5188 bohr


     total cpu time spent up to now is      134.7 secs

     total energy              =    -138.00991408 Ry
     estimated scf accuracy    <       0.00040104 Ry

     iteration #  7     ecut=    40.00 Ry     beta= 0.40
     Davidson diagonalization with overlap

---- Real-time Memory Report at c_bands before calling an iterative solver
           577 MiB given to the printing process from OS
             0 MiB allocation reported by mallinfo(arena+hblkhd)
         28256 MiB available memory on the node where the printing process lives
------------------
     ethr =  1.11E-06,  avg # of iterations =  2.0

     negative rho (up, down):  1.221E-02 0.000E+00

     Adding external electric field

     Computed dipole along edir(3) : 
        Elec. dipole          0.0785 Ry au,          0.1994 Debye
        Ion. dipole           0.0816 Ry au,          0.2073 Debye
        Dipole               26.1110 Ry au,         66.3675 Debye
        Dipole field          0.0031 Ry au, 

        Potential amp.       -0.2646 Ry
        Total length         42.5188 bohr


     total cpu time spent up to now is      150.9 secs

     total energy              =    -138.00992231 Ry
     estimated scf accuracy    <       0.00004433 Ry

     iteration #  8     ecut=    40.00 Ry     beta= 0.40
     Davidson diagonalization with overlap

---- Real-time Memory Report at c_bands before calling an iterative solver
           581 MiB given to the printing process from OS
             0 MiB allocation reported by mallinfo(arena+hblkhd)
         28142 MiB available memory on the node where the printing process lives
------------------
     ethr =  1.23E-07,  avg # of iterations =  3.0

     negative rho (up, down):  1.222E-02 0.000E+00

     Adding external electric field

     Computed dipole along edir(3) : 
        Elec. dipole          0.0785 Ry au,          0.1994 Debye
        Ion. dipole           0.0816 Ry au,          0.2073 Debye
        Dipole               26.1106 Ry au,         66.3665 Debye
        Dipole field          0.0031 Ry au, 

        Potential amp.       -0.2646 Ry
        Total length         42.5188 bohr


     total cpu time spent up to now is      169.6 secs

     total energy              =    -138.00994159 Ry
     estimated scf accuracy    <       0.00001633 Ry

     iteration #  9     ecut=    40.00 Ry     beta= 0.40
     Davidson diagonalization with overlap

---- Real-time Memory Report at c_bands before calling an iterative solver
           584 MiB given to the printing process from OS
             0 MiB allocation reported by mallinfo(arena+hblkhd)
         28030 MiB available memory on the node where the printing process lives
------------------
     ethr =  4.54E-08,  avg # of iterations =  2.0

     negative rho (up, down):  1.225E-02 0.000E+00

     Adding external electric field

     Computed dipole along edir(3) : 
        Elec. dipole          0.0785 Ry au,          0.1994 Debye
        Ion. dipole           0.0816 Ry au,          0.2073 Debye
        Dipole               26.1107 Ry au,         66.3667 Debye
        Dipole field          0.0031 Ry au, 

        Potential amp.       -0.2646 Ry
        Total length         42.5188 bohr


     total cpu time spent up to now is      186.4 secs

     End of self-consistent calculation

          k = 0.0000 0.0000 0.0000 (450991 PWs)   bands (ev):

   -31.6459 -25.9796 -23.4903 -23.2767 -20.9667 -20.6286 -20.3815 -19.0968
   -18.3387 -16.7171 -15.6266 -15.2355 -14.8885 -13.7599 -13.2249 -12.9033
   -11.0828 -10.9751  -6.1915  -5.9349  -5.7509  -4.4701

     occupation numbers 
     1.0000   1.0000   1.0000   1.0000   1.0000   1.0000   1.0000   1.0000
     1.0000   1.0000   1.0000   1.0000   1.0000   1.0000   1.0000   1.0000
     1.0000   1.0000   0.0000   0.0000   0.0000   0.0000

          k = 0.0000 0.3333 0.0000 (450515 PWs)   bands (ev):

   -31.6459 -25.9796 -23.4903 -23.2767 -20.9667 -20.6285 -20.3815 -19.0968
   -18.3387 -16.7171 -15.6265 -15.2355 -14.8884 -13.7599 -13.2249 -12.9032
   -11.0828 -10.9751  -6.1914  -5.9349  -5.7509  -4.4701

     occupation numbers 
     1.0000   1.0000   1.0000   1.0000   1.0000   1.0000   1.0000   1.0000
     1.0000   1.0000   1.0000   1.0000   1.0000   1.0000   1.0000   1.0000
     1.0000   1.0000   0.0000   0.0000   0.0000   0.0000

          k = 0.3333 0.0000 0.0000 (450515 PWs)   bands (ev):

   -31.6459 -25.9796 -23.4903 -23.2767 -20.9667 -20.6286 -20.3815 -19.0968
   -18.3387 -16.7171 -15.6265 -15.2355 -14.8884 -13.7599 -13.2249 -12.9032
   -11.0828 -10.9751  -6.1914  -5.9349  -5.7509  -4.4701

     occupation numbers 
     1.0000   1.0000   1.0000   1.0000   1.0000   1.0000   1.0000   1.0000
     1.0000   1.0000   1.0000   1.0000   1.0000   1.0000   1.0000   1.0000
     1.0000   1.0000   0.0000   0.0000   0.0000   0.0000

          k = 0.3333 0.3333 0.0000 (450333 PWs)   bands (ev):

   -31.6459 -25.9796 -23.4902 -23.2767 -20.9667 -20.6285 -20.3814 -19.0968
   -18.3387 -16.7171 -15.6265 -15.2355 -14.8884 -13.7599 -13.2249 -12.9032
   -11.0828 -10.9751  -6.1914  -5.9349  -5.7509  -4.4701

     occupation numbers 
     1.0000   1.0000   1.0000   1.0000   1.0000   1.0000   1.0000   1.0000
     1.0000   1.0000   1.0000   1.0000   1.0000   1.0000   1.0000   1.0000
     1.0000   1.0000   0.0000   0.0000   0.0000   0.0000

          k = 0.3333-0.3333 0.0000 (450333 PWs)   bands (ev):

   -31.6459 -25.9796 -23.4903 -23.2767 -20.9667 -20.6285 -20.3814 -19.0968
   -18.3387 -16.7171 -15.6265 -15.2355 -14.8884 -13.7599 -13.2249 -12.9032
   -11.0828 -10.9751  -6.1914  -5.9349  -5.7509  -4.4701

     occupation numbers 
     1.0000   1.0000   1.0000   1.0000   1.0000   1.0000   1.0000   1.0000
     1.0000   1.0000   1.0000   1.0000   1.0000   1.0000   1.0000   1.0000
     1.0000   1.0000   0.0000   0.0000   0.0000   0.0000

     the Fermi energy is    -7.8648 ev

!    total energy              =    -138.00994298 Ry
     estimated scf accuracy    <       0.00000078 Ry
     smearing contrib. (-TS)   =      -0.00000000 Ry
     internal energy E=F+TS    =    -138.00994298 Ry

     The total energy is F=E-TS. E is the sum of the following terms:
     one-electron contribution =    -553.83512818 Ry
     hartree contribution      =     275.97343960 Ry
     xc contribution           =     -38.45554636 Ry
     ewald contribution        =     212.74953522 Ry
     DFT-D3 Dispersion         =      -0.00962694 Ry
     electric field correction =       0.08125119 Ry
     gate field correction     =       2.49043594 Ry
     one-center paw contrib.   =     -37.00430344 Ry
      -> PAW hartree energy AE =       0.00000000 Ry
      -> PAW hartree energy PS =       0.00000000 Ry
      -> PAW xc energy AE      =       0.00000000 Ry
      -> PAW xc energy PS      =       0.00000000 Ry
      -> total E_H with PAW    =     275.97343960 Ry
      -> total E_XC with PAW   =     -38.45554636 Ry

     convergence has been achieved in   9 iterations

     negative rho (up, down):  1.225E-02 0.000E+00

     Forces acting on atoms (cartesian axes, Ry/au):

     atom    1 type  1   force =    -0.01582479   -0.00678763   -0.13903799
     atom    2 type  2   force =    -0.01276031   -0.01125180    0.00058951
     atom    3 type  2   force =     0.12959645   -0.02547427   -0.01610606
     atom    4 type  2   force =    -0.01260317   -0.01425177    0.00290110
     atom    5 type  2   force =    -0.00791439    0.01515560   -0.00086437
     atom    6 type  2   force =    -0.01471298    0.00230770    0.00111228
     atom    7 type  2   force =    -0.00649779    0.01833079    0.00087239
     atom    8 type  3   force =    -0.00453773    0.01380639   -0.00151143
     atom    9 type  3   force =    -0.06045216    0.02584320    0.20037724
     atom   10 type  3   force =     0.00343113    0.00901526   -0.00050636
     atom   11 type  3   force =    -0.00909724   -0.01121919   -0.00026910
     atom   12 type  3   force =     0.00954333   -0.00175922   -0.00047927
     atom   13 type  3   force =     0.00015763   -0.00978725    0.00041369
     atom   14 type  3   force =    -0.00041524   -0.00833727   -0.02490097
     atom   15 type  3   force =     0.00208725    0.00440946   -0.02259064
     The non-local contrib.  to forces
     atom    1 type  1   force =    -0.16243837    0.04132499    0.03176188
     atom    2 type  2   force =    -0.13186427   -0.07021865    0.01866536
     atom    3 type  2   force =    -0.56824680    0.10045390    0.00067803
     atom    4 type  2   force =    -0.10997124   -0.02037762    0.00778708
     atom    5 type  2   force =    -0.09832468    0.11113403    0.00850049
     atom    6 type  2   force =    -0.07099822    0.01224362    0.00159906
     atom    7 type  2   force =    -0.09555667    0.05638293    0.00300295
     atom    8 type  3   force =     0.02363805   -0.07670943    0.00305758
     atom    9 type  3   force =     0.03953294   -0.01894050   -0.12829592
     atom   10 type  3   force =    -0.05342285   -0.06206450    0.00412178
     atom   11 type  3   force =     0.04864155    0.06372488   -0.00393522
     atom   12 type  3   force =    -0.08073458    0.01445707    0.00113235
     atom   13 type  3   force =    -0.02864690    0.07674927   -0.00280287
     atom   14 type  3   force =     0.02521934   -0.08622241    0.04285452
     atom   15 type  3   force =     0.05486333    0.07736007    0.03039399
     The ionic contribution  to forces
     atom    1 type  1   force =    -8.37799498    1.37603080   -0.90838330
     atom    2 type  2   force =    -0.33702455    7.05319769   -0.32739008
     atom    3 type  2   force =    -1.81839629    0.31230649   -0.07770234
     atom    4 type  2   force =     5.42562635    5.41969005   -0.36407048
     atom    5 type  2   force =    -2.76071997   -6.50049254    0.34590230
     atom    6 type  2   force =     7.58149978   -1.35936568   -0.09497969
     atom    7 type  2   force =     3.21417707   -6.96788884    0.25426626
     atom    8 type  3   force =    -0.73838042    3.47460319   -0.14039299
     atom    9 type  3   force =    -2.34145122    0.76870937    3.99209071
     atom   10 type  3   force =     2.33372768    2.61963705   -0.16639451
     atom   11 type  3   force =    -1.89381454   -3.00223596    0.18222342
     atom   12 type  3   force =     3.44033090   -0.61655381   -0.03998389
     atom   13 type  3   force =     1.28345862   -3.26728174    0.12747363
     atom   14 type  3   force =    -1.99865799    3.14935663   -1.61453119
     atom   15 type  3   force =    -3.01238044   -2.45971272   -1.16812785
     The local contribution  to forces
     atom    1 type  1   force =     8.52523020   -1.42434517    0.76388352
     atom    2 type  2   force =     0.45335287   -6.99525692    0.33207276
     atom    3 type  2   force =     2.50415754   -0.43616764    0.08301276
     atom    4 type  2   force =    -5.32968688   -5.41318723    0.38185977
     atom    5 type  2   force =     2.84888252    6.40642600   -0.33328931
     atom    6 type  2   force =    -7.52557302    1.34941883    0.11635205
     atom    7 type  2   force =    -3.12685677    6.92997972   -0.23409341
     atom    8 type  3   force =     0.71025293   -3.38417541    0.14064377
     atom    9 type  3   force =     2.24139061   -0.72389511   -3.65907990
     atom   10 type  3   force =    -2.27690192   -2.54857419    0.16661635
     atom   11 type  3   force =     1.83615264    2.92738846   -0.17384142
     atom   12 type  3   force =    -3.35007154    0.60035645    0.04318355
     atom   13 type  3   force =    -1.25466903    3.18080139   -0.11950609
     atom   14 type  3   force =     1.97322388   -3.07150386    1.55180154
     atom   15 type  3   force =     2.95982073    2.38675352    1.12010577
     The core correction contribution to forces
     atom    1 type  1   force =     0.00043799   -0.00000219    0.00141095
     atom    2 type  2   force =     0.00253084    0.00006002   -0.00047782
     atom    3 type  2   force =     0.01237040   -0.00211174    0.00001273
     atom    4 type  2   force =     0.00087390   -0.00085073   -0.00033609
     atom    5 type  2   force =     0.00235514   -0.00090879   -0.00000751
     atom    6 type  2   force =    -0.00038882    0.00015775    0.00038041
     atom    7 type  2   force =     0.00138622    0.00052325   -0.00023570
     atom    8 type  3   force =     0.00000000    0.00000000    0.00000000
     atom    9 type  3   force =     0.00000000    0.00000000    0.00000000
     atom   10 type  3   force =     0.00000000    0.00000000    0.00000000
     atom   11 type  3   force =     0.00000000    0.00000000    0.00000000
     atom   12 type  3   force =     0.00000000    0.00000000    0.00000000
     atom   13 type  3   force =     0.00000000    0.00000000    0.00000000
     atom   14 type  3   force =     0.00000000    0.00000000    0.00000000
     atom   15 type  3   force =     0.00000000    0.00000000    0.00000000
     The Hubbard contrib.    to forces
     atom    1 type  1   force =     0.00000000    0.00000000    0.00000000
     atom    2 type  2   force =     0.00000000    0.00000000    0.00000000
     atom    3 type  2   force =     0.00000000    0.00000000    0.00000000
     atom    4 type  2   force =     0.00000000    0.00000000    0.00000000
     atom    5 type  2   force =     0.00000000    0.00000000    0.00000000
     atom    6 type  2   force =     0.00000000    0.00000000    0.00000000
     atom    7 type  2   force =     0.00000000    0.00000000    0.00000000
     atom    8 type  3   force =     0.00000000    0.00000000    0.00000000
     atom    9 type  3   force =     0.00000000    0.00000000    0.00000000
     atom   10 type  3   force =     0.00000000    0.00000000    0.00000000
     atom   11 type  3   force =     0.00000000    0.00000000    0.00000000
     atom   12 type  3   force =     0.00000000    0.00000000    0.00000000
     atom   13 type  3   force =     0.00000000    0.00000000    0.00000000
     atom   14 type  3   force =     0.00000000    0.00000000    0.00000000
     atom   15 type  3   force =     0.00000000    0.00000000    0.00000000
     The SCF correction term to forces
     atom    1 type  1   force =    -0.00097722    0.00020529    0.00023091
     atom    2 type  2   force =     0.00016813    0.00079714    0.00000956
     atom    3 type  2   force =    -0.00031048    0.00006418    0.00007755
     atom    4 type  2   force =     0.00063727    0.00034083   -0.00000010
     atom    5 type  2   force =    -0.00010758   -0.00079988    0.00008604
     atom    6 type  2   force =     0.00064029   -0.00011214    0.00000503
     atom    7 type  2   force =     0.00047994   -0.00053996    0.00004472
     atom    8 type  3   force =    -0.00001152    0.00013421    0.00000091
     atom    9 type  3   force =    -0.00011650    0.00003040    0.00006777
     atom   10 type  3   force =     0.00005929    0.00003392    0.00000110
     atom   11 type  3   force =    -0.00005666   -0.00012414    0.00001250
     atom   12 type  3   force =     0.00003816   -0.00000664   -0.00000030
     atom   13 type  3   force =     0.00004325   -0.00005220    0.00000590
     atom   14 type  3   force =    -0.00009319    0.00008514    0.00000308
     atom   15 type  3   force =    -0.00011488   -0.00004611    0.00000967

     DFT-D3 dispersion contribution to forces:
     atom    1 type  1   force =    -0.00006645    0.00001159    0.00000370
     atom    2 type  2   force =     0.00009262    0.00018185    0.00001783
     atom    3 type  2   force =     0.00003803   -0.00000652    0.00000478
     atom    4 type  2   force =    -0.00006661    0.00014588   -0.00000216
     atom    5 type  2   force =     0.00001614   -0.00019028    0.00003800
     atom    6 type  2   force =     0.00012297   -0.00002174    0.00000041
     atom    7 type  2   force =    -0.00011162   -0.00011337    0.00001071
     atom    8 type  3   force =    -0.00002082   -0.00003323    0.00001807
     atom    9 type  3   force =     0.00020796   -0.00004802   -0.00001974
     atom   10 type  3   force =    -0.00001512   -0.00000409    0.00000057
     atom   11 type  3   force =    -0.00000426    0.00004052    0.00001526
     atom   12 type  3   force =    -0.00000365    0.00000065    0.00000002
     atom   13 type  3   force =    -0.00001236    0.00000896   -0.00000006
     atom   14 type  3   force =    -0.00009133   -0.00003984   -0.00004277
     atom   15 type  3   force =    -0.00008553    0.00006764   -0.00004462

     Gate contribution to forces:
     atom    1 type  1   force =     0.00000000    0.00000000    0.00216474
     atom    2 type  2   force =     0.00000000    0.00000000    0.00157869
     atom    3 type  2   force =     0.00000000    0.00000000    0.00169721
     atom    4 type  2   force =     0.00000000    0.00000000    0.00154987
     atom    5 type  2   force =     0.00000000    0.00000000    0.00179242
     atom    6 type  2   force =     0.00000000    0.00000000    0.00164180
     atom    7 type  2   force =     0.00000000    0.00000000    0.00176364
     atom    8 type  3   force =     0.00000000    0.00000000    0.00037722
     atom    9 type  3   force =     0.00000000    0.00000000    0.00083032
     atom   10 type  3   force =     0.00000000    0.00000000    0.00036434
     atom   11 type  3   force =     0.00000000    0.00000000    0.00047235
     atom   12 type  3   force =     0.00000000    0.00000000    0.00040501
     atom   13 type  3   force =     0.00000000    0.00000000    0.00045919
     atom   14 type  3   force =     0.00000000    0.00000000    0.00022984
     atom   15 type  3   force =     0.00000000    0.00000000    0.00028840

     Total force =     0.292045     Total SCF correction =     0.002012

     DFT-D3 dispersion Force =     0.000478

     BFGS Geometry Optimization
     Energy error            =      0.0E+00 Ry
     Gradient error          =      2.0E-01 Ry/Bohr

     number of scf cycles    =   1
     number of bfgs steps    =   0

     energy             new  =    -138.0099429788 Ry

     new trust radius        =       0.2108871132 bohr
     new conv_thr            =       0.0000010000 Ry


ATOMIC_POSITIONS (angstrom)
N                9.4704215277       11.7932058738       10.8876222124
C               11.7829371974       12.6075417247       10.8765348719
C               10.9456685154       11.5326261238       10.9334835815
C               13.1590907386       12.3570366066       10.8617608666
C               11.3597648784       10.2362659196       10.9943927456
C               13.6332297220       11.0525133729       10.9118422430
C               12.7375361502        9.9938705072       10.9793402484
H               11.4318135496       13.6427800734       10.8366798174
H                9.1680606143       11.9404840722       11.9494502193
H               13.8657140840       13.1948661748       10.8086162876
H               10.6725300086        9.3867294606       11.0485334404
H               14.7114820676       10.8595961504       10.8989126117
H               13.1103783945        8.9624926147       11.0196753278
H                9.2112238853       12.6800431031       10.4971048369
H                8.9079781311       11.0038255705       10.6283213096



     Writing config-only to output data dir ./tmp/aniline_protonated.save/ :
     XML data file
     NEW-OLD atomic charge density approx. for the potential

     negative rho (up, down):  1.136E-02 0.000E+00

     Adding external electric field

     Computed dipole along edir(3) : 
        Elec. dipole          0.0784 Ry au,          0.1992 Debye
        Ion. dipole           0.0815 Ry au,          0.2071 Debye
        Dipole               26.3304 Ry au,         66.9252 Debye
        Dipole field          0.0031 Ry au, 

        Potential amp.       -0.2668 Ry
        Total length         42.5188 bohr


     Adding charged plate to compensate the charge of the system - add_gatefield
     see PRB 89, 245406 (2014), works only for 2D systems perpendicular to z
                                i.e. 3rd lattice vector is (0,0,c)

        prefactor of the potential in [Ha a.u.]:     0.002815
               position of the gate within cell:     0.90000
         ion-gate + gate-gate contribution to the total energy:     2.490587
                         gate-gate contribution:     0.022166


     total cpu time spent up to now is      195.3 secs

     Self-consistent Calculation

     iteration #  1     ecut=    40.00 Ry     beta= 0.40
     Davidson diagonalization with overlap

---- Real-time Memory Report at c_bands before calling an iterative solver
           589 MiB given to the printing process from OS
             0 MiB allocation reported by mallinfo(arena+hblkhd)
         29856 MiB available memory on the node where the printing process lives
------------------
     c_bands:  1 eigenvalues not converged
     c_bands:  1 eigenvalues not converged
     c_bands:  1 eigenvalues not converged
     c_bands:  1 eigenvalues not converged
     c_bands:  1 eigenvalues not converged
     ethr =  1.00E-06,  avg # of iterations = 20.0

     negative rho (up, down):  1.142E-02 0.000E+00

     Adding external electric field

     Computed dipole along edir(3) : 
        Elec. dipole          0.0784 Ry au,          0.1992 Debye
        Ion. dipole           0.0815 Ry au,          0.2071 Debye
        Dipole               26.3219 Ry au,         66.9036 Debye
        Dipole field          0.0031 Ry au, 

        Potential amp.       -0.2668 Ry
        Total length         42.5188 bohr


     total cpu time spent up to now is      236.4 secs

     total energy              =    -138.01499549 Ry
     estimated scf accuracy    <       0.01888720 Ry

     iteration #  2     ecut=    40.00 Ry     beta= 0.40
     Davidson diagonalization with overlap

---- Real-time Memory Report at c_bands before calling an iterative solver
           589 MiB given to the printing process from OS
             0 MiB allocation reported by mallinfo(arena+hblkhd)
         28399 MiB available memory on the node where the printing process lives
------------------
     ethr =  5.25E-05,  avg # of iterations =  2.0

     negative rho (up, down):  1.162E-02 0.000E+00

     Adding external electric field

     Computed dipole along edir(3) : 
        Elec. dipole          0.0784 Ry au,          0.1992 Debye
        Ion. dipole           0.0815 Ry au,          0.2071 Debye
        Dipole               26.2834 Ry au,         66.8058 Debye
        Dipole field          0.0031 Ry au, 

        Potential amp.       -0.2664 Ry
        Total length         42.5188 bohr


     total cpu time spent up to now is      252.4 secs

     total energy              =    -138.01611384 Ry
     estimated scf accuracy    <       0.00285069 Ry

     iteration #  3     ecut=    40.00 Ry     beta= 0.40
     Davidson diagonalization with overlap

---- Real-time Memory Report at c_bands before calling an iterative solver
           589 MiB given to the printing process from OS
             0 MiB allocation reported by mallinfo(arena+hblkhd)
         28286 MiB available memory on the node where the printing process lives
------------------
     ethr =  7.92E-06,  avg # of iterations =  2.0

     negative rho (up, down):  1.183E-02 0.000E+00

     Adding external electric field

     Computed dipole along edir(3) : 
        Elec. dipole          0.0784 Ry au,          0.1992 Debye
        Ion. dipole           0.0815 Ry au,          0.2071 Debye
        Dipole               26.2458 Ry au,         66.7101 Debye
        Dipole field          0.0031 Ry au, 

        Potential amp.       -0.2660 Ry
        Total length         42.5188 bohr


     total cpu time spent up to now is      269.0 secs

     total energy              =    -138.01641747 Ry
     estimated scf accuracy    <       0.00039524 Ry

     iteration #  4     ecut=    40.00 Ry     beta= 0.40
     Davidson diagonalization with overlap

---- Real-time Memory Report at c_bands before calling an iterative solver
           589 MiB given to the printing process from OS
             0 MiB allocation reported by mallinfo(arena+hblkhd)
         28176 MiB available memory on the node where the printing process lives
------------------
     ethr =  1.10E-06,  avg # of iterations =  4.0

     negative rho (up, down):  1.189E-02 0.000E+00

     Adding external electric field

     Computed dipole along edir(3) : 
        Elec. dipole          0.0784 Ry au,          0.1992 Debye
        Ion. dipole           0.0815 Ry au,          0.2071 Debye
        Dipole               26.2286 Ry au,         66.6666 Debye
        Dipole field          0.0031 Ry au, 

        Potential amp.       -0.2658 Ry
        Total length         42.5188 bohr


     total cpu time spent up to now is      285.9 secs

     total energy              =    -138.01645808 Ry
     estimated scf accuracy    <       0.00004188 Ry

     iteration #  5     ecut=    40.00 Ry     beta= 0.40
     Davidson diagonalization with overlap

---- Real-time Memory Report at c_bands before calling an iterative solver
           589 MiB given to the printing process from OS
             0 MiB allocation reported by mallinfo(arena+hblkhd)
         28065 MiB available memory on the node where the printing process lives
------------------
     ethr =  1.16E-07,  avg # of iterations =  2.0

     negative rho (up, down):  1.190E-02 0.000E+00

     Adding external electric field

     Computed dipole along edir(3) : 
        Elec. dipole          0.0784 Ry au,          0.1992 Debye
        Ion. dipole           0.0815 Ry au,          0.2071 Debye
        Dipole               26.2239 Ry au,         66.6546 Debye
        Dipole field          0.0031 Ry au, 

        Potential amp.       -0.2658 Ry
        Total length         42.5188 bohr


     total cpu time spent up to now is      302.3 secs

     total energy              =    -138.01646254 Ry
     estimated scf accuracy    <       0.00000436 Ry

     iteration #  6     ecut=    40.00 Ry     beta= 0.40
     Davidson diagonalization with overlap

---- Real-time Memory Report at c_bands before calling an iterative solver
           589 MiB given to the printing process from OS
             0 MiB allocation reported by mallinfo(arena+hblkhd)
         27948 MiB available memory on the node where the printing process lives
------------------
     ethr =  1.21E-08,  avg # of iterations =  2.0

     negative rho (up, down):  1.195E-02 0.000E+00

     Adding external electric field

     Computed dipole along edir(3) : 
        Elec. dipole          0.0784 Ry au,          0.1992 Debye
        Ion. dipole           0.0815 Ry au,          0.2071 Debye
        Dipole               26.2239 Ry au,         66.6546 Debye
        Dipole field          0.0031 Ry au, 

        Potential amp.       -0.2658 Ry
        Total length         42.5188 bohr


     total cpu time spent up to now is      318.7 secs

     End of self-consistent calculation

          k = 0.0000 0.0000 0.0000 (450991 PWs)   bands (ev):

   -30.7007 -26.2259 -23.4193 -23.3853 -20.9072 -20.1958 -19.2383 -19.1261
   -18.2832 -16.5334 -15.8690 -15.2007 -14.9530 -13.9514 -13.1332 -12.9791
   -11.1582 -11.0211  -6.1056  -5.9516  -5.8451  -4.4574

     occupation numbers 
     1.0000   1.0000   1.0000   1.0000   1.0000   1.0000   1.0000   1.0000
     1.0000   1.0000   1.0000   1.0000   1.0000   1.0000   1.0000   1.0000
     1.0000   1.0000   0.0000   0.0000   0.0000   0.0000

          k = 0.0000 0.3333 0.0000 (450515 PWs)   bands (ev):

   -30.7007 -26.2259 -23.4193 -23.3853 -20.9072 -20.1958 -19.2383 -19.1261
   -18.2832 -16.5334 -15.8690 -15.2006 -14.9530 -13.9514 -13.1331 -12.9790
   -11.1582 -11.0211  -6.1056  -5.9516  -5.8451  -4.4574

     occupation numbers 
     1.0000   1.0000   1.0000   1.0000   1.0000   1.0000   1.0000   1.0000
     1.0000   1.0000   1.0000   1.0000   1.0000   1.0000   1.0000   1.0000
     1.0000   1.0000   0.0000   0.0000   0.0000   0.0000

          k = 0.3333 0.0000 0.0000 (450515 PWs)   bands (ev):

   -30.7007 -26.2259 -23.4193 -23.3853 -20.9072 -20.1958 -19.2383 -19.1261
   -18.2832 -16.5334 -15.8690 -15.2006 -14.9530 -13.9514 -13.1331 -12.9790
   -11.1582 -11.0211  -6.1056  -5.9516  -5.8451  -4.4574

     occupation numbers 
     1.0000   1.0000   1.0000   1.0000   1.0000   1.0000   1.0000   1.0000
     1.0000   1.0000   1.0000   1.0000   1.0000   1.0000   1.0000   1.0000
     1.0000   1.0000   0.0000   0.0000   0.0000   0.0000

          k = 0.3333 0.3333 0.0000 (450333 PWs)   bands (ev):

   -30.7007 -26.2259 -23.4193 -23.3853 -20.9072 -20.1958 -19.2383 -19.1261
   -18.2832 -16.5334 -15.8690 -15.2006 -14.9530 -13.9514 -13.1331 -12.9790
   -11.1582 -11.0211  -6.1056  -5.9516  -5.8451  -4.4574

     occupation numbers 
     1.0000   1.0000   1.0000   1.0000   1.0000   1.0000   1.0000   1.0000
     1.0000   1.0000   1.0000   1.0000   1.0000   1.0000   1.0000   1.0000
     1.0000   1.0000   0.0000   0.0000   0.0000   0.0000

          k = 0.3333-0.3333 0.0000 (450333 PWs)   bands (ev):

   -30.7007 -26.2259 -23.4193 -23.3853 -20.9072 -20.1958 -19.2383 -19.1261
   -18.2832 -16.5334 -15.8690 -15.2006 -14.9530 -13.9514 -13.1331 -12.9790
   -11.1582 -11.0211  -6.1056  -5.9516  -5.8451  -4.4574

     occupation numbers 
     1.0000   1.0000   1.0000   1.0000   1.0000   1.0000   1.0000   1.0000
     1.0000   1.0000   1.0000   1.0000   1.0000   1.0000   1.0000   1.0000
     1.0000   1.0000   0.0000   0.0000   0.0000   0.0000

     the Fermi energy is    -9.6576 ev

!    total energy              =    -138.01646303 Ry
     estimated scf accuracy    <       0.00000049 Ry
     smearing contrib. (-TS)   =       0.00000000 Ry
     internal energy E=F+TS    =    -138.01646303 Ry

     The total energy is F=E-TS. E is the sum of the following terms:
     one-electron contribution =    -553.36526235 Ry
     hartree contribution      =     275.82308710 Ry
     xc contribution           =     -38.36053870 Ry
     ewald contribution        =     212.33170910 Ry
     DFT-D3 Dispersion         =      -0.00961610 Ry
     electric field correction =       0.08195744 Ry
     gate field correction     =       2.49058719 Ry
     one-center paw contrib.   =     -37.00838672 Ry
      -> PAW hartree energy AE =       0.00000000 Ry
      -> PAW hartree energy PS =       0.00000000 Ry
      -> PAW xc energy AE      =       0.00000000 Ry
      -> PAW xc energy PS      =       0.00000000 Ry
      -> total E_H with PAW    =     275.82308710 Ry
      -> total E_XC with PAW   =     -38.36053870 Ry

     convergence has been achieved in   6 iterations

     negative rho (up, down):  1.195E-02 0.000E+00

     Forces acting on atoms (cartesian axes, Ry/au):

     atom    1 type  1   force =     0.00953051    0.01557783    0.18785684
     atom    2 type  2   force =     0.03670882    0.03960316   -0.00339442
     atom    3 type  2   force =    -0.05126417    0.00876642   -0.02271813
     atom    4 type  2   force =     0.00670510    0.02029591    0.00208873
     atom    5 type  2   force =     0.02127450   -0.05202606    0.00103395
     atom    6 type  2   force =     0.01488850   -0.00241843    0.00026208
     atom    7 type  2   force =    -0.00030533   -0.02152853    0.00395530
     atom    8 type  3   force =    -0.00351945   -0.00403269   -0.00118372
     atom    9 type  3   force =     0.02035663   -0.01264979   -0.08375358
     atom   10 type  3   force =    -0.00823486   -0.00589956    0.00098514
     atom   11 type  3   force =    -0.00177527    0.00500983   -0.00170769
     atom   12 type  3   force =    -0.00737857    0.00124391   -0.00030046
     atom   13 type  3   force =    -0.00569267    0.00857325    0.00020551
     atom   14 type  3   force =    -0.01118650    0.02494731   -0.04484295
     atom   15 type  3   force =    -0.02010724   -0.02546257   -0.03848660
     The non-local contrib.  to forces
     atom    1 type  1   force =    -0.22097866    0.07644378    0.39040233
     atom    2 type  2   force =    -0.08303343   -0.02217297    0.01523517
     atom    3 type  2   force =    -0.69721227    0.12432478   -0.02589152
     atom    4 type  2   force =    -0.09169227    0.01570580    0.00760003
     atom    5 type  2   force =    -0.06878256    0.04658333    0.01130390
     atom    6 type  2   force =    -0.04127036    0.00793624    0.00389165
     atom    7 type  2   force =    -0.09145696    0.01540047    0.00679303
     atom    8 type  3   force =     0.02194498   -0.07483688    0.00298444
     atom    9 type  3   force =     0.01931643   -0.00996758   -0.07323403
     atom   10 type  3   force =    -0.05121264   -0.05967177    0.00409006
     atom   11 type  3   force =     0.04641606    0.06253447   -0.00386399
     atom   12 type  3   force =    -0.07788815    0.01393558    0.00114938
     atom   13 type  3   force =    -0.02736715    0.07370991   -0.00258180
     atom   14 type  3   force =     0.02750422   -0.09698582    0.04098659
     atom   15 type  3   force =     0.06061119    0.08621820    0.02671462
     The ionic contribution  to forces
     atom    1 type  1   force =    -8.04296982    1.36660148   -0.60905789
     atom    2 type  2   force =    -0.35767227    7.46671905   -0.26815598
     atom    3 type  2   force =    -2.58582127    0.46873436    0.08723640
     atom    4 type  2   force =     5.51613075    5.57721750   -0.34351077
     atom    5 type  2   force =    -2.91217850   -6.88358589    0.44462694
     atom    6 type  2   force =     7.77015202   -1.38888035   -0.08468477
     atom    7 type  2   force =     3.24430780   -7.14676134    0.28945137
     atom    8 type  3   force =    -0.72777902    3.44366493   -0.12900076
     atom    9 type  3   force =    -1.90183267    0.60042685    3.07266991
     atom   10 type  3   force =     2.29769291    2.58407747   -0.16371219
     atom   11 type  3   force =    -1.87243694   -2.97698668    0.19105726
     atom   12 type  3   force =     3.39872938   -0.60871336   -0.03976305
     atom   13 type  3   force =     1.26144839   -3.22095266    0.12642737
     atom   14 type  3   force =    -2.01267685    3.29877023   -1.52322389
     atom   15 type  3   force =    -3.07509392   -2.58033159   -1.05035995
     The local contribution  to forces
     atom    1 type  1   force =     8.27283507   -1.42703174    0.43791083
     atom    2 type  2   force =     0.47600676   -7.40301981    0.27202127
     atom    3 type  2   force =     3.21521359   -0.58125720   -0.06273944
     atom    4 type  2   force =    -5.41843264   -5.57086212    0.36070597
     atom    5 type  2   force =     3.00017742    6.78354918   -0.43282976
     atom    6 type  2   force =    -7.71267054    1.37829208    0.10301776
     atom    7 type  2   force =    -3.15464247    7.10831338   -0.26982653
     atom    8 type  3   force =     0.70235221   -3.37284442    0.12958338
     atom    9 type  3   force =     1.90262353   -0.60304115   -3.07885342
     atom   10 type  3   force =    -2.25475730   -2.53027639    0.16542815
     atom   11 type  3   force =     1.82426084    2.91944246   -0.18424453
     atom   12 type  3   force =    -3.32825742    0.59604503    0.04309886
     atom   13 type  3   force =    -1.23981415    3.15581901   -0.11891304
     atom   14 type  3   force =     1.97408023   -3.17678773    1.44236049
     atom   15 type  3   force =     2.99446201    2.46859373    0.99006716
     The core correction contribution to forces
     atom    1 type  1   force =     0.00103019   -0.00049884   -0.00359363
     atom    2 type  2   force =     0.00126243   -0.00211734   -0.00038529
     atom    3 type  2   force =     0.01643149   -0.00297037    0.00054640
     atom    4 type  2   force =     0.00051119   -0.00185500   -0.00034453
     atom    5 type  2   force =     0.00196219    0.00166532   -0.00018794
     atom    6 type  2   force =    -0.00146880    0.00031439    0.00034775
     atom    7 type  2   force =     0.00137825    0.00169752   -0.00032326
     atom    8 type  3   force =     0.00000000    0.00000000    0.00000000
     atom    9 type  3   force =     0.00000000    0.00000000    0.00000000
     atom   10 type  3   force =     0.00000000    0.00000000    0.00000000
     atom   11 type  3   force =     0.00000000    0.00000000    0.00000000
     atom   12 type  3   force =     0.00000000    0.00000000    0.00000000
     atom   13 type  3   force =     0.00000000    0.00000000    0.00000000
     atom   14 type  3   force =     0.00000000    0.00000000    0.00000000
     atom   15 type  3   force =     0.00000000    0.00000000    0.00000000
     The Hubbard contrib.    to forces
     atom    1 type  1   force =     0.00000000    0.00000000    0.00000000
     atom    2 type  2   force =     0.00000000    0.00000000    0.00000000
     atom    3 type  2   force =     0.00000000    0.00000000    0.00000000
     atom    4 type  2   force =     0.00000000    0.00000000    0.00000000
     atom    5 type  2   force =     0.00000000    0.00000000    0.00000000
     atom    6 type  2   force =     0.00000000    0.00000000    0.00000000
     atom    7 type  2   force =     0.00000000    0.00000000    0.00000000
     atom    8 type  3   force =     0.00000000    0.00000000    0.00000000
     atom    9 type  3   force =     0.00000000    0.00000000    0.00000000
     atom   10 type  3   force =     0.00000000    0.00000000    0.00000000
     atom   11 type  3   force =     0.00000000    0.00000000    0.00000000
     atom   12 type  3   force =     0.00000000    0.00000000    0.00000000
     atom   13 type  3   force =     0.00000000    0.00000000    0.00000000
     atom   14 type  3   force =     0.00000000    0.00000000    0.00000000
     atom   15 type  3   force =     0.00000000    0.00000000    0.00000000
     The SCF correction term to forces
     atom    1 type  1   force =    -0.00035810    0.00007215    0.00041174
     atom    2 type  2   force =     0.00004295    0.00004490    0.00021435
     atom    3 type  2   force =    -0.00004421   -0.00002035    0.00039937
     atom    4 type  2   force =     0.00021618   -0.00003741    0.00002890
     atom    5 type  2   force =     0.00005837   -0.00004930    0.00021595
     atom    6 type  2   force =     0.00000781   -0.00004339   -0.00001246
     atom    7 type  2   force =     0.00018119   -0.00004467    0.00002689
     atom    8 type  3   force =    -0.00003480    0.00003658    0.00003847
     atom    9 type  3   force =     0.00000750   -0.00000657   -0.00003784
     atom   10 type  3   force =     0.00001139   -0.00001191    0.00000380
     atom   11 type  3   force =    -0.00003142   -0.00000792    0.00004007
     atom   12 type  3   force =     0.00000909   -0.00000541   -0.00000183
     atom   13 type  3   force =     0.00000954    0.00001655    0.00000243
     atom   14 type  3   force =    -0.00002093   -0.00000302    0.00005399
     atom   15 type  3   force =    -0.00001484    0.00001567    0.00005306

     DFT-D3 dispersion contribution to forces:
     atom    1 type  1   force =    -0.00006268    0.00000991   -0.00002492
     atom    2 type  2   force =     0.00006785    0.00016823    0.00003689
     atom    3 type  2   force =     0.00013398   -0.00002590   -0.00001112
     atom    4 type  2   force =    -0.00006262    0.00014604   -0.00000342
     atom    5 type  2   force =     0.00000306   -0.00016979    0.00005335
     atom    6 type  2   force =     0.00010385   -0.00001851   -0.00000064
     atom    7 type  2   force =    -0.00010764   -0.00011501    0.00000941
     atom    8 type  3   force =    -0.00003734   -0.00003401    0.00002220
     atom    9 type  3   force =     0.00020732   -0.00004244    0.00001204
     atom   10 type  3   force =    -0.00000375    0.00000193   -0.00000059
     atom   11 type  3   force =    -0.00001833    0.00004638    0.00001952
     atom   12 type  3   force =    -0.00000598    0.00000096   -0.00000039
     atom   13 type  3   force =    -0.00000382   -0.00000066   -0.00000043
     atom   14 type  3   force =    -0.00010769   -0.00002745   -0.00005572
     atom   15 type  3   force =    -0.00010620    0.00006031   -0.00005618

     Gate contribution to forces:
     atom    1 type  1   force =     0.00000000    0.00000000    0.00199903
     atom    2 type  2   force =     0.00000000    0.00000000    0.00157925
     atom    3 type  2   force =     0.00000000    0.00000000    0.00168186
     atom    4 type  2   force =     0.00000000    0.00000000    0.00155263
     atom    5 type  2   force =     0.00000000    0.00000000    0.00179160
     atom    6 type  2   force =     0.00000000    0.00000000    0.00164286
     atom    7 type  2   force =     0.00000000    0.00000000    0.00176448
     atom    8 type  3   force =     0.00000000    0.00000000    0.00037686
     atom    9 type  3   force =     0.00000000    0.00000000    0.00087808
     atom   10 type  3   force =     0.00000000    0.00000000    0.00036422
     atom   11 type  3   force =     0.00000000    0.00000000    0.00047229
     atom   12 type  3   force =     0.00000000    0.00000000    0.00040489
     atom   13 type  3   force =     0.00000000    0.00000000    0.00045929
     atom   14 type  3   force =     0.00000000    0.00000000    0.00022391
     atom   15 type  3   force =     0.00000000    0.00000000    0.00028301

     Total force =     0.243534     Total SCF correction =     0.000818

     DFT-D3 dispersion Force =     0.000485
     Energy error            =      6.5E-03 Ry
     Gradient error          =      1.9E-01 Ry/Bohr

     number of scf cycles    =   2
     number of bfgs steps    =   1

     energy             old  =    -138.0099429788 Ry
     energy             new  =    -138.0164630314 Ry

     CASE: energy            _new < energy            _old

     new trust radius        =       0.0999352546 bohr
     new conv_thr            =       0.0000010000 Ry


ATOMIC_POSITIONS (angstrom)
N                9.4725378178       11.7978700916       10.9402570550
C               11.7941326361       12.6197787164       10.8754623482
C               10.9370944143       11.5338830923       10.9250388485
C               13.1604867965       12.3627718573       10.8626269990
C               11.3662203711       10.2202140173       10.9946761842
C               13.6371679612       11.0518684670       10.9119981849
C               12.7370258922        9.9879899207       10.9806884858
H               11.4303762857       13.6423337273       10.8361973449
H                9.1708974492       11.9379807918       11.9347250476
H               13.8632385361       13.1935068455       10.8089063814
H               10.6713749778        9.3876586913       11.0479581349
H               14.7096725543       10.8598917069       10.8987841075
H               13.1085272085        8.9646773067       11.0197686465
H                9.2075403811       12.6876726610       10.4808711612
H                8.9015361829       10.9957794553       10.6143116906



     Writing config-only to output data dir ./tmp/aniline_protonated.save/ :
     XML data file
     NEW-OLD atomic charge density approx. for the potential

     negative rho (up, down):  1.165E-02 0.000E+00

     Adding external electric field

     Computed dipole along edir(3) : 
        Elec. dipole          0.0784 Ry au,          0.1993 Debye
        Ion. dipole           0.0815 Ry au,          0.2072 Debye
        Dipole               26.1960 Ry au,         66.5837 Debye
        Dipole field          0.0031 Ry au, 

        Potential amp.       -0.2655 Ry
        Total length         42.5188 bohr


     Adding charged plate to compensate the charge of the system - add_gatefield
     see PRB 89, 245406 (2014), works only for 2D systems perpendicular to z
                                i.e. 3rd lattice vector is (0,0,c)

        prefactor of the potential in [Ha a.u.]:     0.002815
               position of the gate within cell:     0.90000
         ion-gate + gate-gate contribution to the total energy:     2.490443
                         gate-gate contribution:     0.022166


     total cpu time spent up to now is      327.8 secs

     Self-consistent Calculation

     iteration #  1     ecut=    40.00 Ry     beta= 0.40
     Davidson diagonalization with overlap

---- Real-time Memory Report at c_bands before calling an iterative solver
           589 MiB given to the printing process from OS
             0 MiB allocation reported by mallinfo(arena+hblkhd)
         29729 MiB available memory on the node where the printing process lives
------------------
     ethr =  1.00E-06,  avg # of iterations = 19.0

     negative rho (up, down):  1.171E-02 0.000E+00

     Adding external electric field

     Computed dipole along edir(3) : 
        Elec. dipole          0.0784 Ry au,          0.1993 Debye
        Ion. dipole           0.0815 Ry au,          0.2072 Debye
        Dipole               26.1741 Ry au,         66.5280 Debye
        Dipole field          0.0031 Ry au, 

        Potential amp.       -0.2653 Ry
        Total length         42.5188 bohr


     total cpu time spent up to now is      365.3 secs

     total energy              =    -138.03519033 Ry
     estimated scf accuracy    <       0.00320578 Ry

     iteration #  2     ecut=    40.00 Ry     beta= 0.40
     Davidson diagonalization with overlap

---- Real-time Memory Report at c_bands before calling an iterative solver
           589 MiB given to the printing process from OS
             0 MiB allocation reported by mallinfo(arena+hblkhd)
         28384 MiB available memory on the node where the printing process lives
------------------
     ethr =  8.90E-06,  avg # of iterations =  2.0

     negative rho (up, down):  1.182E-02 0.000E+00

     Adding external electric field

     Computed dipole along edir(3) : 
        Elec. dipole          0.0784 Ry au,          0.1993 Debye
        Ion. dipole           0.0815 Ry au,          0.2072 Debye
        Dipole               26.1732 Ry au,         66.5256 Debye
        Dipole field          0.0031 Ry au, 

        Potential amp.       -0.2653 Ry
        Total length         42.5188 bohr


     total cpu time spent up to now is      381.3 secs

     total energy              =    -138.03534656 Ry
     estimated scf accuracy    <       0.00051049 Ry

     iteration #  3     ecut=    40.00 Ry     beta= 0.40
     Davidson diagonalization with overlap

---- Real-time Memory Report at c_bands before calling an iterative solver
           589 MiB given to the printing process from OS
             0 MiB allocation reported by mallinfo(arena+hblkhd)
         28276 MiB available memory on the node where the printing process lives
------------------
     ethr =  1.42E-06,  avg # of iterations =  5.0

     negative rho (up, down):  1.191E-02 0.000E+00

     Adding external electric field

     Computed dipole along edir(3) : 
        Elec. dipole          0.0784 Ry au,          0.1993 Debye
        Ion. dipole           0.0815 Ry au,          0.2072 Debye
        Dipole               26.1778 Ry au,         66.5372 Debye
        Dipole field          0.0031 Ry au, 

        Potential amp.       -0.2653 Ry
        Total length         42.5188 bohr


     total cpu time spent up to now is      398.6 secs

     total energy              =    -138.03539971 Ry
     estimated scf accuracy    <       0.00006250 Ry

     iteration #  4     ecut=    40.00 Ry     beta= 0.40
     Davidson diagonalization with overlap

---- Real-time Memory Report at c_bands before calling an iterative solver
           589 MiB given to the printing process from OS
             0 MiB allocation reported by mallinfo(arena+hblkhd)
         28161 MiB available memory on the node where the printing process lives
------------------
     ethr =  1.74E-07,  avg # of iterations =  2.0

     negative rho (up, down):  1.196E-02 0.000E+00

     Adding external electric field

     Computed dipole along edir(3) : 
        Elec. dipole          0.0784 Ry au,          0.1993 Debye
        Ion. dipole           0.0815 Ry au,          0.2072 Debye
        Dipole               26.1813 Ry au,         66.5462 Debye
        Dipole field          0.0031 Ry au, 

        Potential amp.       -0.2653 Ry
        Total length         42.5188 bohr


     total cpu time spent up to now is      414.7 secs

     total energy              =    -138.03540794 Ry
     estimated scf accuracy    <       0.00000934 Ry

     iteration #  5     ecut=    40.00 Ry     beta= 0.40
     Davidson diagonalization with overlap

---- Real-time Memory Report at c_bands before calling an iterative solver
           589 MiB given to the printing process from OS
             0 MiB allocation reported by mallinfo(arena+hblkhd)
         28031 MiB available memory on the node where the printing process lives
------------------
     ethr =  2.59E-08,  avg # of iterations =  2.0

     negative rho (up, down):  1.198E-02 0.000E+00

     Adding external electric field

     Computed dipole along edir(3) : 
        Elec. dipole          0.0784 Ry au,          0.1993 Debye
        Ion. dipole           0.0815 Ry au,          0.2072 Debye
        Dipole               26.1826 Ry au,         66.5496 Debye
        Dipole field          0.0031 Ry au, 

        Potential amp.       -0.2653 Ry
        Total length         42.5188 bohr


     total cpu time spent up to now is      430.4 secs

     total energy              =    -138.03540893 Ry
     estimated scf accuracy    <       0.00000100 Ry

     iteration #  6     ecut=    40.00 Ry     beta= 0.40
     Davidson diagonalization with overlap

---- Real-time Memory Report at c_bands before calling an iterative solver
           589 MiB given to the printing process from OS
             0 MiB allocation reported by mallinfo(arena+hblkhd)
         27930 MiB available memory on the node where the printing process lives
------------------
     ethr =  2.78E-09,  avg # of iterations =  2.0

     negative rho (up, down):  1.203E-02 0.000E+00

     Adding external electric field

     Computed dipole along edir(3) : 
        Elec. dipole          0.0784 Ry au,          0.1993 Debye
        Ion. dipole           0.0815 Ry au,          0.2072 Debye
        Dipole               26.1826 Ry au,         66.5495 Debye
        Dipole field          0.0031 Ry au, 

        Potential amp.       -0.2653 Ry
        Total length         42.5188 bohr


     total cpu time spent up to now is      447.7 secs

     End of self-consistent calculation

          k = 0.0000 0.0000 0.0000 (450991 PWs)   bands (ev):

   -30.7011 -26.1063 -23.3833 -23.3250 -20.6560 -20.2176 -19.5751 -19.0475
   -18.2594 -16.6062 -15.7570 -15.1736 -15.0175 -13.8799 -13.1974 -12.9393
   -11.0877 -11.0492  -6.0554  -5.9171  -5.8955  -4.3711

     occupation numbers 
     1.0000   1.0000   1.0000   1.0000   1.0000   1.0000   1.0000   1.0000
     1.0000   1.0000   1.0000   1.0000   1.0000   1.0000   1.0000   1.0000
     1.0000   1.0000   0.0000   0.0000   0.0000   0.0000

          k = 0.0000 0.3333 0.0000 (450515 PWs)   bands (ev):

   -30.7011 -26.1063 -23.3833 -23.3250 -20.6560 -20.2176 -19.5751 -19.0475
   -18.2594 -16.6062 -15.7570 -15.1736 -15.0175 -13.8799 -13.1973 -12.9393
   -11.0877 -11.0492  -6.0553  -5.9171  -5.8955  -4.3711

     occupation numbers 
     1.0000   1.0000   1.0000   1.0000   1.0000   1.0000   1.0000   1.0000
     1.0000   1.0000   1.0000   1.0000   1.0000   1.0000   1.0000   1.0000
     1.0000   1.0000   0.0000   0.0000   0.0000   0.0000

          k = 0.3333 0.0000 0.0000 (450515 PWs)   bands (ev):

   -30.7011 -26.1063 -23.3833 -23.3250 -20.6560 -20.2176 -19.5751 -19.0475
   -18.2594 -16.6062 -15.7570 -15.1736 -15.0175 -13.8799 -13.1973 -12.9393
   -11.0877 -11.0492  -6.0554  -5.9171  -5.8955  -4.3711

     occupation numbers 
     1.0000   1.0000   1.0000   1.0000   1.0000   1.0000   1.0000   1.0000
     1.0000   1.0000   1.0000   1.0000   1.0000   1.0000   1.0000   1.0000
     1.0000   1.0000   0.0000   0.0000   0.0000   0.0000

          k = 0.3333 0.3333 0.0000 (450333 PWs)   bands (ev):

   -30.7011 -26.1063 -23.3833 -23.3249 -20.6560 -20.2176 -19.5751 -19.0475
   -18.2594 -16.6062 -15.7570 -15.1736 -15.0175 -13.8799 -13.1973 -12.9393
   -11.0877 -11.0492  -6.0553  -5.9171  -5.8955  -4.3711

     occupation numbers 
     1.0000   1.0000   1.0000   1.0000   1.0000   1.0000   1.0000   1.0000
     1.0000   1.0000   1.0000   1.0000   1.0000   1.0000   1.0000   1.0000
     1.0000   1.0000   0.0000   0.0000   0.0000   0.0000

          k = 0.3333-0.3333 0.0000 (450333 PWs)   bands (ev):

   -30.7011 -26.1063 -23.3833 -23.3249 -20.6560 -20.2176 -19.5751 -19.0475
   -18.2594 -16.6062 -15.7570 -15.1736 -15.0175 -13.8799 -13.1973 -12.9393
   -11.0877 -11.0492  -6.0553  -5.9171  -5.8955  -4.3711

     occupation numbers 
     1.0000   1.0000   1.0000   1.0000   1.0000   1.0000   1.0000   1.0000
     1.0000   1.0000   1.0000   1.0000   1.0000   1.0000   1.0000   1.0000
     1.0000   1.0000   0.0000   0.0000   0.0000   0.0000

     the Fermi energy is    -9.5930 ev

!    total energy              =    -138.03540906 Ry
     estimated scf accuracy    <       0.00000009 Ry
     smearing contrib. (-TS)   =       0.00000000 Ry
     internal energy E=F+TS    =    -138.03540906 Ry

     The total energy is F=E-TS. E is the sum of the following terms:
     one-electron contribution =    -552.29723697 Ry
     hartree contribution      =     275.29643848 Ry
     xc contribution           =     -38.34514084 Ry
     ewald contribution        =     211.75497388 Ry
     DFT-D3 Dispersion         =      -0.00963230 Ry
     electric field correction =       0.08169929 Ry
     gate field correction     =       2.49044308 Ry
     one-center paw contrib.   =     -37.00695368 Ry
      -> PAW hartree energy AE =       0.00000000 Ry
      -> PAW hartree energy PS =       0.00000000 Ry
      -> PAW xc energy AE      =       0.00000000 Ry
      -> PAW xc energy PS      =       0.00000000 Ry
      -> total E_H with PAW    =     275.29643848 Ry
      -> total E_XC with PAW   =     -38.34514084 Ry

     convergence has been achieved in   6 iterations

     negative rho (up, down):  1.203E-02 0.000E+00

     Forces acting on atoms (cartesian axes, Ry/au):

     atom    1 type  1   force =    -0.02329659    0.00864312    0.05636543
     atom    2 type  2   force =     0.00180640   -0.00003190   -0.00273008
     atom    3 type  2   force =    -0.00881436    0.00132843   -0.00738279
     atom    4 type  2   force =     0.01457879    0.00266133    0.00101681
     atom    5 type  2   force =     0.00139444   -0.00075631   -0.00279834
     atom    6 type  2   force =    -0.00402287    0.00099507    0.00108309
     atom    7 type  2   force =     0.01286948   -0.00772767    0.00133771
     atom    8 type  3   force =    -0.00398199    0.00675020   -0.00092474
     atom    9 type  3   force =     0.00537296   -0.00406793   -0.02000524
     atom   10 type  3   force =    -0.00060217    0.00127334    0.00066360
     atom   11 type  3   force =    -0.00625243   -0.00539064   -0.00036085
     atom   12 type  3   force =    -0.00034285    0.00003151   -0.00016466
     atom   13 type  3   force =    -0.00085303   -0.00099557    0.00070496
     atom   14 type  3   force =     0.00293518   -0.01676709   -0.01342470
     atom   15 type  3   force =     0.00920905    0.01405410   -0.01338020
     The non-local contrib.  to forces
     atom    1 type  1   force =    -0.22449695    0.05787614    0.18076742
     atom    2 type  2   force =    -0.11703588   -0.05962385    0.00896209
     atom    3 type  2   force =    -0.66326749    0.11963340    0.01035331
     atom    4 type  2   force =    -0.08298422   -0.00425004    0.00686180
     atom    5 type  2   force =    -0.08902984    0.09569106    0.00044721
     atom    6 type  2   force =    -0.06200044    0.01131685    0.00383224
     atom    7 type  2   force =    -0.07681360    0.03116313    0.00430440
     atom    8 type  3   force =     0.02391248   -0.07600177    0.00306565
     atom    9 type  3   force =     0.02580588   -0.01242804   -0.08924872
     atom   10 type  3   force =    -0.05230037   -0.06090571    0.00425502
     atom   11 type  3   force =     0.04876633    0.06299375   -0.00386628
     atom   12 type  3   force =    -0.07917002    0.01417284    0.00120726
     atom   13 type  3   force =    -0.02796089    0.07529659   -0.00256397
     atom   14 type  3   force =     0.02454665   -0.08464501    0.04298863
     atom   15 type  3   force =     0.05339464    0.07597828    0.03020446
     The ionic contribution  to forces
     atom    1 type  1   force =    -8.12656190    1.39869593   -0.36621425
     atom    2 type  2   force =    -0.45736000    7.31533948   -0.27552522
     atom    3 type  2   force =    -2.40145449    0.40858400   -0.19234018
     atom    4 type  2   force =     5.53430194    5.45711870   -0.33059724
     atom    5 type  2   force =    -2.96031190   -6.70315493    0.42039998
     atom    6 type  2   force =     7.68044995   -1.37322717   -0.09131494
     atom    7 type  2   force =     3.30404691   -7.03790865    0.29002096
     atom    8 type  3   force =    -0.76208878    3.45714075   -0.13484488
     atom    9 type  3   force =    -2.02551884    0.64225041    3.33123428
     atom   10 type  3   force =     2.32271020    2.60292035   -0.16746988
     atom   11 type  3   force =    -1.91189840   -2.97812880    0.18596367
     atom   12 type  3   force =     3.41597636   -0.61195420   -0.04166073
     atom   13 type  3   force =     1.27857865   -3.24830884    0.12508903
     atom   14 type  3   force =    -1.95191281    3.07466522   -1.59995867
     atom   15 type  3   force =    -2.93895689   -2.40403224   -1.15278191
     The local contribution  to forces
     atom    1 type  1   force =     8.32641340   -1.44756778    0.27123112
     atom    2 type  2   force =     0.57375685   -7.25478506    0.28654964
     atom    3 type  2   force =     3.04028860   -0.52408168    0.19695231
     atom    4 type  2   force =    -5.43671989   -5.44911804    0.34746296
     atom    5 type  2   force =     3.04815929    6.60673123   -0.40152012
     atom    6 type  2   force =    -7.62171644    1.36271136    0.11046760
     atom    7 type  2   force =    -3.21499598    6.99791669   -0.27060450
     atom    8 type  3   force =     0.73419618   -3.37432252    0.13566453
     atom    9 type  3   force =     2.00484281   -0.63383666   -3.25765873
     atom   10 type  3   force =    -2.27099698   -2.54072139    0.16870926
     atom   11 type  3   force =     1.85685737    2.90968474   -0.17773865
     atom   12 type  3   force =    -3.33713069    0.59781258    0.04507940
     atom   13 type  3   force =    -1.25146311    3.17199928   -0.11708232
     atom   14 type  3   force =     1.93036696   -3.00674917    1.54858483
     atom   15 type  3   force =     2.89483571    2.34205893    1.11417721
     The core correction contribution to forces
     atom    1 type  1   force =     0.00121342   -0.00032073   -0.00129752
     atom    2 type  2   force =     0.00231626   -0.00098475   -0.00033823
     atom    3 type  2   force =     0.01537873   -0.00274679    0.00012102
     atom    4 type  2   force =     0.00017527   -0.00116366   -0.00036154
     atom    5 type  2   force =     0.00247502    0.00004539    0.00003388
     atom    6 type  2   force =    -0.00079833    0.00020158    0.00034872
     atom    7 type  2   force =     0.00083686    0.00110938   -0.00024962
[...]
     atom    1 type  1   force =    -8.06080625    1.42211640   -0.47224436
     atom    2 type  2   force =    -0.45032773    7.27840133   -0.19341929
     atom    3 type  2   force =    -2.36728575    0.40064548   -0.06413359
     atom    4 type  2   force =     5.49735123    5.47492618    0.06232000
     atom    5 type  2   force =    -2.93241450   -6.68199945    0.29717734
     atom    6 type  2   force =     7.60156725   -1.33954122    0.28297015
     atom    7 type  2   force =     3.27572973   -7.01314297    0.49302946
     atom    8 type  3   force =    -0.77256296    3.42219664   -0.18286802
     atom    9 type  3   force =    -2.43350531    0.77456002    3.13015393
     atom   10 type  3   force =     2.31061440    2.60780701    0.00468868
     atom   11 type  3   force =    -1.90157000   -2.95109523    0.04588913
     atom   12 type  3   force =     3.41864770   -0.60378978    0.07939515
     atom   13 type  3   force =     1.27434227   -3.23583115    0.21291778
     atom   14 type  3   force =    -1.72296224    2.91280681   -2.14269582
     atom   15 type  3   force =    -2.73681784   -2.46806007   -1.55318056
     The local contribution  to forces
     atom    1 type  1   force =     8.24645493   -1.45751590    0.49524154
     atom    2 type  2   force =     0.56588187   -7.21831922    0.21168262
     atom    3 type  2   force =     3.00613864   -0.51410890    0.11575457
     atom    4 type  2   force =    -5.40189530   -5.46591577   -0.04228502
     atom    5 type  2   force =     3.01966792    6.58730562   -0.27293849
     atom    6 type  2   force =    -7.54138368    1.32886336   -0.26036876
     atom    7 type  2   force =    -3.18820053    6.97286456   -0.47086489
     atom    8 type  3   force =     0.74821038   -3.34718495    0.18363256
     atom    9 type  3   force =     2.39221536   -0.75749174   -3.03656195
     atom   10 type  3   force =    -2.25869416   -2.54661166   -0.00096942
     atom   11 type  3   force =     1.85312326    2.88924850   -0.04036045
     atom   12 type  3   force =    -3.33843277    0.58958164   -0.07153082
     atom   13 type  3   force =    -1.24662871    3.16064139   -0.20454990
     atom   14 type  3   force =     1.70505259   -2.83312450    2.08973214
     atom   15 type  3   force =     2.68986000    2.39006259    1.51726377
     The core correction contribution to forces
     atom    1 type  1   force =     0.00080442   -0.00016411   -0.00016493
     atom    2 type  2   force =     0.00226971   -0.00095815    0.00027372
     atom    3 type  2   force =     0.01528582   -0.00268221    0.00097103
     atom    4 type  2   force =     0.00042595   -0.00116388   -0.00010776
     atom    5 type  2   force =     0.00244605    0.00003068    0.00025272
     atom    6 type  2   force =    -0.00075132    0.00017875   -0.00017395
     atom    7 type  2   force =     0.00110172    0.00096386   -0.00041858
     atom    8 type  3   force =     0.00000000    0.00000000    0.00000000
     atom    9 type  3   force =     0.00000000    0.00000000    0.00000000
     atom   10 type  3   force =     0.00000000    0.00000000    0.00000000
     atom   11 type  3   force =     0.00000000    0.00000000    0.00000000
     atom   12 type  3   force =     0.00000000    0.00000000    0.00000000
     atom   13 type  3   force =     0.00000000    0.00000000    0.00000000
     atom   14 type  3   force =     0.00000000    0.00000000    0.00000000
     atom   15 type  3   force =     0.00000000    0.00000000    0.00000000
     The Hubbard contrib.    to forces
     atom    1 type  1   force =     0.00000000    0.00000000    0.00000000
     atom    2 type  2   force =     0.00000000    0.00000000    0.00000000
     atom    3 type  2   force =     0.00000000    0.00000000    0.00000000
     atom    4 type  2   force =     0.00000000    0.00000000    0.00000000
     atom    5 type  2   force =     0.00000000    0.00000000    0.00000000
     atom    6 type  2   force =     0.00000000    0.00000000    0.00000000
     atom    7 type  2   force =     0.00000000    0.00000000    0.00000000
     atom    8 type  3   force =     0.00000000    0.00000000    0.00000000
     atom    9 type  3   force =     0.00000000    0.00000000    0.00000000
     atom   10 type  3   force =     0.00000000    0.00000000    0.00000000
     atom   11 type  3   force =     0.00000000    0.00000000    0.00000000
     atom   12 type  3   force =     0.00000000    0.00000000    0.00000000
     atom   13 type  3   force =     0.00000000    0.00000000    0.00000000
     atom   14 type  3   force =     0.00000000    0.00000000    0.00000000
     atom   15 type  3   force =     0.00000000    0.00000000    0.00000000
     The SCF correction term to forces
     atom    1 type  1   force =    -0.00002219   -0.00000963    0.00002352
     atom    2 type  2   force =     0.00008919   -0.00005992   -0.00008904
     atom    3 type  2   force =     0.00007435   -0.00005988   -0.00001952
     atom    4 type  2   force =     0.00001652   -0.00008878   -0.00013521
     atom    5 type  2   force =     0.00008167   -0.00000662   -0.00007251
     atom    6 type  2   force =    -0.00005455    0.00000196   -0.00015302
     atom    7 type  2   force =     0.00000463    0.00005664   -0.00012192
     atom    8 type  3   force =     0.00000551    0.00000103   -0.00001214
     atom    9 type  3   force =    -0.00000125   -0.00000273    0.00000180
     atom   10 type  3   force =    -0.00000450   -0.00001745   -0.00001602
     atom   11 type  3   force =     0.00001318    0.00000603   -0.00000935
     atom   12 type  3   force =    -0.00001533    0.00000139   -0.00001843
     atom   13 type  3   force =    -0.00000218    0.00001394   -0.00001467
     atom   14 type  3   force =    -0.00000285    0.00000130    0.00000056
     atom   15 type  3   force =     0.00000103   -0.00000322   -0.00000016

     DFT-D3 dispersion contribution to forces:
     atom    1 type  1   force =    -0.00007722    0.00000952   -0.00000873
     atom    2 type  2   force =     0.00005685    0.00017698    0.00004882
     atom    3 type  2   force =     0.00012412   -0.00002250    0.00001082
     atom    4 type  2   force =    -0.00005593    0.00014698   -0.00000944
     atom    5 type  2   force =     0.00000545   -0.00017872    0.00005708
     atom    6 type  2   force =     0.00010222   -0.00001831   -0.00000128
     atom    7 type  2   force =    -0.00010202   -0.00011863   -0.00000032
     atom    8 type  3   force =    -0.00003907   -0.00003514    0.00001679
     atom    9 type  3   force =     0.00021145   -0.00004502    0.00001954
     atom   10 type  3   force =    -0.00001680    0.00000043    0.00000033
     atom   11 type  3   force =    -0.00000987    0.00004342    0.00001962
     atom   12 type  3   force =    -0.00000909    0.00000148   -0.00000399
     atom   13 type  3   force =    -0.00001575    0.00000553    0.00000022
     atom   14 type  3   force =    -0.00007524   -0.00004793   -0.00007391
     atom   15 type  3   force =    -0.00009911    0.00008192   -0.00007555

     Gate contribution to forces:
     atom    1 type  1   force =     0.00000000    0.00000000    0.00184091
     atom    2 type  2   force =     0.00000000    0.00000000    0.00165485
     atom    3 type  2   force =     0.00000000    0.00000000    0.00165443
     atom    4 type  2   force =     0.00000000    0.00000000    0.00177112
     atom    5 type  2   force =     0.00000000    0.00000000    0.00180771
     atom    6 type  2   force =     0.00000000    0.00000000    0.00187630
     atom    7 type  2   force =     0.00000000    0.00000000    0.00192151
     atom    8 type  3   force =     0.00000000    0.00000000    0.00038266
     atom    9 type  3   force =     0.00000000    0.00000000    0.00078384
     atom   10 type  3   force =     0.00000000    0.00000000    0.00044214
     atom   11 type  3   force =     0.00000000    0.00000000    0.00045106
     atom   12 type  3   force =     0.00000000    0.00000000    0.00047853
     atom   13 type  3   force =     0.00000000    0.00000000    0.00050974
     atom   14 type  3   force =     0.00000000    0.00000000    0.00010020
     atom   15 type  3   force =     0.00000000    0.00000000    0.00017768

     Total force =     0.004291     Total SCF correction =     0.000339

     DFT-D3 dispersion Force =     0.000493
     Energy error            =      5.1E-05 Ry
     Gradient error          =      2.0E-03 Ry/Bohr

     number of scf cycles    =  40
     number of bfgs steps    =  39

     energy             old  =    -138.0406617475 Ry
     energy             new  =    -138.0407130954 Ry

     CASE: energy            _new < energy            _old

     new trust radius        =       0.0213853371 bohr
     new conv_thr            =       0.0000000402 Ry


ATOMIC_POSITIONS (angstrom)
N                9.4665711852       11.7951104589       10.8162534683
C               11.7934318763       12.6255690033       10.9171193002
C               10.9343152674       11.5334097406       10.9150428118
C               13.1653661801       12.3744815758       10.9850658361
C               11.3656244654       10.2152299949       11.0002844672
C               13.6344151897       11.0594895914       11.0444691520
C               12.7417938924        9.9856367262       11.0667067863
H               11.4172739371       13.6484873449       10.8459057193
H                9.0466629388       11.9733188358       11.7405023564
H               13.8641848504       13.2101168681       10.9831611855
H               10.6608373488        9.3804899374       10.9962538783
H               14.7078252413       10.8707674371       11.0733446115
H               13.1117044674        8.9625887379       11.1313225248
H                9.2807605563       12.6162606569       10.2219437468
H                8.9770620683       10.9929204391       10.3948947754



     Writing config-only to output data dir ./tmp/aniline_protonated.save/ :
     XML data file
     NEW-OLD atomic charge density approx. for the potential

     negative rho (up, down):  1.208E-02 0.000E+00

     Adding external electric field

     Computed dipole along edir(3) : 
        Elec. dipole          0.0786 Ry au,          0.1997 Debye
        Ion. dipole           0.0817 Ry au,          0.2076 Debye
        Dipole               25.9981 Ry au,         66.0806 Debye
        Dipole field          0.0031 Ry au, 

        Potential amp.       -0.2635 Ry
        Total length         42.5188 bohr


     Adding charged plate to compensate the charge of the system - add_gatefield
     see PRB 89, 245406 (2014), works only for 2D systems perpendicular to z
                                i.e. 3rd lattice vector is (0,0,c)

        prefactor of the potential in [Ha a.u.]:     0.002815
               position of the gate within cell:     0.90000
         ion-gate + gate-gate contribution to the total energy:     2.489798
                         gate-gate contribution:     0.022166


     total cpu time spent up to now is     4110.4 secs

     Self-consistent Calculation

     iteration #  1     ecut=    40.00 Ry     beta= 0.40
     Davidson diagonalization with overlap

---- Real-time Memory Report at c_bands before calling an iterative solver
           602 MiB given to the printing process from OS
             0 MiB allocation reported by mallinfo(arena+hblkhd)
         34214 MiB available memory on the node where the printing process lives
------------------
     ethr =  1.00E-06,  avg # of iterations =  4.0

     negative rho (up, down):  1.208E-02 0.000E+00

     Adding external electric field

     Computed dipole along edir(3) : 
        Elec. dipole          0.0786 Ry au,          0.1997 Debye
        Ion. dipole           0.0817 Ry au,          0.2076 Debye
        Dipole               25.9985 Ry au,         66.0816 Debye
        Dipole field          0.0031 Ry au, 

        Potential amp.       -0.2635 Ry
        Total length         42.5188 bohr


     total cpu time spent up to now is     4136.7 secs

     total energy              =    -138.04074812 Ry
     estimated scf accuracy    <       0.00005038 Ry

     iteration #  2     ecut=    40.00 Ry     beta= 0.40
     Davidson diagonalization with overlap

---- Real-time Memory Report at c_bands before calling an iterative solver
           602 MiB given to the printing process from OS
             0 MiB allocation reported by mallinfo(arena+hblkhd)
         33301 MiB available memory on the node where the printing process lives
------------------
     ethr =  1.40E-07,  avg # of iterations =  2.0

     negative rho (up, down):  1.208E-02 0.000E+00

     Adding external electric field

     Computed dipole along edir(3) : 
        Elec. dipole          0.0786 Ry au,          0.1997 Debye
        Ion. dipole           0.0817 Ry au,          0.2076 Debye
        Dipole               25.9991 Ry au,         66.0830 Debye
        Dipole field          0.0031 Ry au, 

        Potential amp.       -0.2635 Ry
        Total length         42.5188 bohr


     total cpu time spent up to now is     4155.6 secs

     total energy              =    -138.04074995 Ry
     estimated scf accuracy    <       0.00001203 Ry

     iteration #  3     ecut=    40.00 Ry     beta= 0.40
     Davidson diagonalization with overlap

---- Real-time Memory Report at c_bands before calling an iterative solver
           602 MiB given to the printing process from OS
             0 MiB allocation reported by mallinfo(arena+hblkhd)
         33057 MiB available memory on the node where the printing process lives
------------------
     ethr =  3.34E-08,  avg # of iterations =  2.0

     negative rho (up, down):  1.208E-02 0.000E+00

     Adding external electric field

     Computed dipole along edir(3) : 
        Elec. dipole          0.0786 Ry au,          0.1997 Debye
        Ion. dipole           0.0817 Ry au,          0.2076 Debye
        Dipole               25.9988 Ry au,         66.0823 Debye
        Dipole field          0.0031 Ry au, 

        Potential amp.       -0.2635 Ry
        Total length         42.5188 bohr


     total cpu time spent up to now is     4170.4 secs

     total energy              =    -138.04075161 Ry
     estimated scf accuracy    <       0.00000098 Ry

     iteration #  4     ecut=    40.00 Ry     beta= 0.40
     Davidson diagonalization with overlap

---- Real-time Memory Report at c_bands before calling an iterative solver
           602 MiB given to the printing process from OS
             0 MiB allocation reported by mallinfo(arena+hblkhd)
         33206 MiB available memory on the node where the printing process lives
------------------
     ethr =  2.72E-09,  avg # of iterations =  2.0

     negative rho (up, down):  1.208E-02 0.000E+00

     Adding external electric field

     Computed dipole along edir(3) : 
        Elec. dipole          0.0786 Ry au,          0.1997 Debye
        Ion. dipole           0.0817 Ry au,          0.2076 Debye
        Dipole               25.9985 Ry au,         66.0815 Debye
        Dipole field          0.0031 Ry au, 

        Potential amp.       -0.2635 Ry
        Total length         42.5188 bohr


     total cpu time spent up to now is     4187.0 secs

     total energy              =    -138.04075171 Ry
     estimated scf accuracy    <       0.00000028 Ry

     iteration #  5     ecut=    40.00 Ry     beta= 0.40
     Davidson diagonalization with overlap

---- Real-time Memory Report at c_bands before calling an iterative solver
           602 MiB given to the printing process from OS
             0 MiB allocation reported by mallinfo(arena+hblkhd)
         33090 MiB available memory on the node where the printing process lives
------------------
     ethr =  7.66E-10,  avg # of iterations =  2.0

     negative rho (up, down):  1.208E-02 0.000E+00

     Adding external electric field

     Computed dipole along edir(3) : 
        Elec. dipole          0.0786 Ry au,          0.1997 Debye
        Ion. dipole           0.0817 Ry au,          0.2076 Debye
        Dipole               25.9987 Ry au,         66.0821 Debye
        Dipole field          0.0031 Ry au, 

        Potential amp.       -0.2635 Ry
        Total length         42.5188 bohr


     total cpu time spent up to now is     4204.9 secs

     End of self-consistent calculation

          k = 0.0000 0.0000 0.0000 (450991 PWs)   bands (ev):

   -30.7283 -26.0458 -23.3355 -23.2935 -20.5458 -20.1499 -19.9638 -18.9517
   -18.1992 -16.5803 -15.7033 -15.1788 -14.9859 -13.8548 -13.1620 -12.9789
   -11.0947 -11.0277  -6.0586  -5.9577  -5.8240  -4.3019

     occupation numbers 
     1.0000   1.0000   1.0000   1.0000   1.0000   1.0000   1.0000   1.0000
     1.0000   1.0000   1.0000   1.0000   1.0000   1.0000   1.0000   1.0000
     1.0000   1.0000   0.0000   0.0000   0.0000   0.0000

          k = 0.0000 0.3333 0.0000 (450515 PWs)   bands (ev):

   -30.7283 -26.0458 -23.3355 -23.2935 -20.5458 -20.1499 -19.9637 -18.9517
   -18.1992 -16.5803 -15.7033 -15.1788 -14.9858 -13.8548 -13.1620 -12.9789
   -11.0947 -11.0277  -6.0586  -5.9577  -5.8240  -4.3019

     occupation numbers 
     1.0000   1.0000   1.0000   1.0000   1.0000   1.0000   1.0000   1.0000
     1.0000   1.0000   1.0000   1.0000   1.0000   1.0000   1.0000   1.0000
     1.0000   1.0000   0.0000   0.0000   0.0000   0.0000

          k = 0.3333 0.0000 0.0000 (450515 PWs)   bands (ev):

   -30.7283 -26.0458 -23.3355 -23.2935 -20.5458 -20.1499 -19.9637 -18.9517
   -18.1991 -16.5803 -15.7033 -15.1788 -14.9858 -13.8548 -13.1620 -12.9789
   -11.0947 -11.0276  -6.0586  -5.9577  -5.8240  -4.3019

     occupation numbers 
     1.0000   1.0000   1.0000   1.0000   1.0000   1.0000   1.0000   1.0000
     1.0000   1.0000   1.0000   1.0000   1.0000   1.0000   1.0000   1.0000
     1.0000   1.0000   0.0000   0.0000   0.0000   0.0000

          k = 0.3333 0.3333 0.0000 (450333 PWs)   bands (ev):

   -30.7283 -26.0458 -23.3355 -23.2935 -20.5458 -20.1499 -19.9637 -18.9517
   -18.1991 -16.5803 -15.7033 -15.1788 -14.9858 -13.8548 -13.1620 -12.9789
   -11.0947 -11.0276  -6.0586  -5.9577  -5.8240  -4.3019

     occupation numbers 
     1.0000   1.0000   1.0000   1.0000   1.0000   1.0000   1.0000   1.0000
     1.0000   1.0000   1.0000   1.0000   1.0000   1.0000   1.0000   1.0000
     1.0000   1.0000   0.0000   0.0000   0.0000   0.0000

          k = 0.3333-0.3333 0.0000 (450333 PWs)   bands (ev):

   -30.7283 -26.0458 -23.3355 -23.2935 -20.5458 -20.1499 -19.9637 -18.9517
   -18.1991 -16.5803 -15.7033 -15.1788 -14.9858 -13.8548 -13.1620 -12.9789
   -11.0947 -11.0276  -6.0586  -5.9577  -5.8240  -4.3019

     occupation numbers 
     1.0000   1.0000   1.0000   1.0000   1.0000   1.0000   1.0000   1.0000
     1.0000   1.0000   1.0000   1.0000   1.0000   1.0000   1.0000   1.0000
     1.0000   1.0000   0.0000   0.0000   0.0000   0.0000

     the Fermi energy is    -9.5479 ev

!    total energy              =    -138.04075174 Ry
     estimated scf accuracy    <       0.00000002 Ry
     smearing contrib. (-TS)   =       0.00000000 Ry
     internal energy E=F+TS    =    -138.04075174 Ry

     The total energy is F=E-TS. E is the sum of the following terms:
     one-electron contribution =    -551.14727670 Ry
     hartree contribution      =     274.71390920 Ry
     xc contribution           =     -38.32609659 Ry
     ewald contribution        =     211.16342799 Ry
     DFT-D3 Dispersion         =      -0.00962033 Ry
     electric field correction =       0.08055578 Ry
     gate field correction     =       2.48979755 Ry
     one-center paw contrib.   =     -37.00544864 Ry
      -> PAW hartree energy AE =       0.00000000 Ry
      -> PAW hartree energy PS =       0.00000000 Ry
      -> PAW xc energy AE      =       0.00000000 Ry
      -> PAW xc energy PS      =       0.00000000 Ry
      -> total E_H with PAW    =     274.71390920 Ry
      -> total E_XC with PAW   =     -38.32609659 Ry

     convergence has been achieved in   5 iterations
