--------------------------------------------------------------------------
By default, for Open MPI 4.0 and later, infiniband ports on a device
are not used by default.  The intent is to use UCX for these devices.
You can override this policy by setting the btl_openib_allow_ib MCA parameter
to true.

  Local host:              psid10
  Local adapter:           mlx4_0
  Local port:              1

--------------------------------------------------------------------------
--------------------------------------------------------------------------
WARNING: There was an error initializing an OpenFabrics device.

  Local host:   psid10
  Local device: mlx4_0
--------------------------------------------------------------------------

     Program PWSCF v.7.3.1 starts on 22Mar2025 at  2:54:53 

     This program is part of the open-source Quantum ESPRESSO suite
     for quantum simulation of materials; please cite
         "P. Giannozzi et al., J. Phys.:Condens. Matter 21 395502 (2009);
         "P. Giannozzi et al., J. Phys.:Condens. Matter 29 465901 (2017);
         "P. Giannozzi et al., J. Chem. Phys. 152 154105 (2020);
          URL http://www.quantum-espresso.org", 
     in publications or presentations arising from this work. More details at
     http://www.quantum-espresso.org/quote

     Parallel version (MPI), running on    32 processors

     MPI processes distributed on     1 nodes
     144932 MiB available memory on the printing compute node when the environment starts

     Waiting for input...
     Reading input from standard input
Warning: card &CELL ignored
Warning: card   CELL_DOFREE = 'ALL' ignored
Warning: card / ignored

     Current dimensions of program PWSCF are:
     Max number of different atomic species (ntypx) = 10
     Max number of k-points (npk) =  40000
     Max angular momentum in pseudopotentials (lmaxx) =  4
     file O.pbe-n-kjpaw_psl.0.1.UPF: wavefunction(s)  2P renormalized

     R & G space division:  proc/nbgrp/npool/nimage =      32
     Subspace diagonalization in iterative solution of the eigenvalue problem:
     one sub-group per band group will be used
     custom distributed-memory algorithm (size of sub-group:  5*  5 procs)


     Parallelization info
     --------------------
     sticks:   dense  smooth     PW     G-vecs:    dense   smooth      PW
     Min         108     108     28                10997    10997    1499
     Max         109     109     29                11002    11002    1509
     Sum        3477    3477    923               351985   351985   48189

     Using Slab Decomposition



     bravais-lattice index     =            0
     lattice parameter (alat)  =      18.4179  a.u.
     unit-cell volume          =   15858.2170 (a.u.)^3
     number of atoms/cell      =           67
     number of atomic types    =            3
     number of electrons       =      1288.00
     number of Kohn-Sham states=          773
     kinetic-energy cutoff     =      30.0000  Ry
     charge density cutoff     =     120.0000  Ry
     scf convergence threshold =      7.3E-07
     mixing beta               =       0.7000
     number of iterations used =            8  plain     mixing
     energy convergence thresh.=      1.0E-05
     force convergence thresh. =      5.0E-04
     Exchange-correlation= PBE
                           (   1   4   3   4   0   0   0)
     nstep                     =          100


     celldm(1)=  18.417879  celldm(2)=   0.000000  celldm(3)=   0.000000
     celldm(4)=   0.000000  celldm(5)=   0.000000  celldm(6)=   0.000000

     crystal axes: (cart. coord. in units of alat)
               a(1) = (   1.000000   0.000000   0.000000 )  
               a(2) = (   0.000000   1.072963   0.000000 )  
               a(3) = (   0.000000  -1.365810   2.365652 )  

     reciprocal axes: (cart. coord. in units 2 pi/alat)
               b(1) = (  1.000000  0.000000 -0.000000 )  
               b(2) = ( -0.000000  0.931999  0.538090 )  
               b(3) = (  0.000000  0.000000  0.422716 )  


     PseudoPot. # 1 for Zn read from file:
     /home/ys/qepseudo/SSSP_1.3.0_PBE_efficiency/Zn_pbe_v1.uspp.F.UPF
     MD5 check sum: df62231357ef9e81f77b2b3087fa5675
     Pseudo is Ultrasoft, Zval = 20.0
     Generated by new atomic code, or converted to UPF format
     Using radial grid of  943 points,  6 beta functions with: 
                l(1) =   0
                l(2) =   0
                l(3) =   1
                l(4) =   1
                l(5) =   2
                l(6) =   2
     Q(r) pseudized with  8 coefficients,  rinner =    1.100   1.100   1.100
                                                       1.100   1.100

     PseudoPot. # 2 for O  read from file:
     /home/ys/qepseudo/SSSP_1.3.0_PBE_efficiency/O.pbe-n-kjpaw_psl.0.1.UPF
     MD5 check sum: 0234752ac141de4415c5fc33072bef88
     Pseudo is Projector augmented-wave + core cor, Zval =  6.0
     Generated using "atomic" code by A. Dal Corso  v.5.0.99 svn rev. 10869
     Shape of augmentation charge: BESSEL
     Using radial grid of 1095 points,  4 beta functions with: 
                l(1) =   0
                l(2) =   0
                l(3) =   1
                l(4) =   1
     Q(r) pseudized with 0 coefficients 


     PseudoPot. # 3 for H  read from file:
     /home/ys/qepseudo/SSSP_1.3.0_PBE_efficiency/H.pbe-rrkjus_psl.1.0.0.UPF
     MD5 check sum: f52b6d4d1c606e5624b1dc7b2218f220
     Pseudo is Ultrasoft, Zval =  1.0
     Generated using "atomic" code by A. Dal Corso  v.5.1
     Using radial grid of  929 points,  2 beta functions with: 
                l(1) =   0
                l(2) =   0
     Q(r) pseudized with 0 coefficients 


     atomic species   valence    mass     pseudopotential
     Zn               20.00    65.38000     Zn( 1.00)
     O                 6.00    16.00000     O ( 1.00)
     H                 1.00     1.00800     H ( 1.00)

     No symmetry found


                                    s                        frac. trans.

      isym =  1     identity                                     

 cryst.   s( 1) = (     1          0          0      )
                  (     0          1          0      )
                  (     0          0          1      )

 cart.    s( 1) = (  1.0000000  0.0000000  0.0000000 )
                  (  0.0000000  1.0000000 -0.0000000 )
                  (  0.0000000  0.0000000  1.0000000 )


   Cartesian axes

     site n.     atom                  positions (alat units)
         1        Zn     tau(   1) = (   0.1250000   0.1341203   0.0774344  )
         2        Zn     tau(   2) = (   0.1250000   0.6706017   0.0774344  )
         3        Zn     tau(   3) = (   0.1250000   0.0000000   0.3097376  )
         4        Zn     tau(   4) = (   0.1250000   0.5364813   0.3097376  )
         5        Zn     tau(   5) = (   0.1250290  -0.1341417   0.5820584  )
         6        Zn     tau(   6) = (   0.1250405   0.4023616   0.5819647  )
         7        Zn     tau(   7) = (   0.1250408  -0.2682706   0.8528810  )
         8        Zn     tau(   8) = (   0.1250466   0.2682807   0.8528293  )
         9        Zn     tau(   9) = (   0.1250000   0.4023610   0.0774344  )
        10        Zn     tau(  10) = (   0.1250000   0.9388423   0.0774344  )
        11        Zn     tau(  11) = (   0.1250000   0.2682407   0.3097376  )
        12        Zn     tau(  12) = (   0.1250000   0.8047220   0.3097376  )
        13        Zn     tau(  13) = (   0.1250408   0.1341312   0.5819983  )
        14        Zn     tau(  14) = (   0.1250279   0.6705889   0.5820360  )
        15        Zn     tau(  15) = (   0.1250442  -0.0000368   0.8528823  )
        16        Zn     tau(  16) = (   0.1250426   0.5365266   0.8528201  )
        17        Zn     tau(  17) = (   0.6250000   0.1341203   0.0774344  )
        18        Zn     tau(  18) = (   0.6250000   0.6706017   0.0774344  )
        19        Zn     tau(  19) = (   0.6250000   0.0000000   0.3097376  )
        20        Zn     tau(  20) = (   0.6250000   0.5364813   0.3097376  )
        21        Zn     tau(  21) = (   0.6249675  -0.1341249   0.5822560  )
        22        Zn     tau(  22) = (   0.6249625   0.4023466   0.5821830  )
        23        Zn     tau(  23) = (   0.6249647  -0.2682775   0.8528614  )
        24        Zn     tau(  24) = (   0.6249499   0.2682885   0.8528196  )
        25        Zn     tau(  25) = (   0.6250000   0.4023610   0.0774344  )
        26        Zn     tau(  26) = (   0.6250000   0.9388423   0.0774344  )
        27        Zn     tau(  27) = (   0.6250000   0.2682407   0.3097376  )
        28        Zn     tau(  28) = (   0.6250000   0.8047220   0.3097376  )
        29        Zn     tau(  29) = (   0.6249643   0.1341641   0.5822135  )
        30        Zn     tau(  30) = (   0.6249672   0.6705553   0.5822335  )
        31        Zn     tau(  31) = (   0.6249591  -0.0000159   0.8528717  )
        32        Zn     tau(  32) = (   0.6249573   0.5365055   0.8528056  )
        33        Zn     tau(  33) = (   0.3750000  -0.0000000   0.1548688  )
        34        Zn     tau(  34) = (   0.3750000   0.5364813   0.1548688  )
        35        Zn     tau(  35) = (   0.3750000  -0.1341203   0.3871721  )
        36        Zn     tau(  36) = (   0.3750000   0.4023610   0.3871721  )
        37        Zn     tau(  37) = (   0.3749795  -0.2682828   0.6236034  )
        38        Zn     tau(  38) = (   0.3749869   0.2682730   0.6235323  )
        39        Zn     tau(  39) = (   0.3751136  -0.4023763   0.8687437  )
        40        Zn     tau(  40) = (   0.3751189   0.1341221   0.8687719  )
        41        Zn     tau(  41) = (   0.3750000   0.2682407   0.1548688  )
        42        Zn     tau(  42) = (   0.3750000   0.8047220   0.1548688  )
        43        Zn     tau(  43) = (   0.3750000   0.1341203   0.3871721  )
        44        Zn     tau(  44) = (   0.3750000   0.6706017   0.3871721  )
        45        Zn     tau(  45) = (   0.3749870   0.0000171   0.6235532  )
        46        Zn     tau(  46) = (   0.3749914   0.5364504   0.6235764  )
        47        Zn     tau(  47) = (   0.3751105  -0.1341730   0.8687759  )
        48        Zn     tau(  48) = (   0.3751210   0.4023978   0.8687386  )
        49        Zn     tau(  49) = (   0.8750000  -0.0000000   0.1548688  )
        50        Zn     tau(  50) = (   0.8750000   0.5364813   0.1548688  )
        51        Zn     tau(  51) = (   0.8750000  -0.1341203   0.3871721  )
        52        Zn     tau(  52) = (   0.8750000   0.4023610   0.3871721  )
        53        Zn     tau(  53) = (   0.8750137  -0.2682816   0.6236127  )
        54        Zn     tau(  54) = (   0.8750145   0.2682702   0.6235379  )
        55        Zn     tau(  55) = (   0.8748930  -0.4023645   0.8688529  )
        56        Zn     tau(  56) = (   0.8748831   0.1341076   0.8688814  )
        57        Zn     tau(  57) = (   0.8750000   0.2682407   0.1548688  )
        58        Zn     tau(  58) = (   0.8750000   0.8047220   0.1548688  )
        59        Zn     tau(  59) = (   0.8750000   0.1341203   0.3871721  )
        60        Zn     tau(  60) = (   0.8750000   0.6706017   0.3871721  )
        61        Zn     tau(  61) = (   0.8750191  -0.0000014   0.6235616  )
        62        Zn     tau(  62) = (   0.8750146   0.5364705   0.6235843  )
        63        Zn     tau(  63) = (   0.8748974  -0.1341803   0.8688835  )
        64        Zn     tau(  64) = (   0.8748800   0.4024084   0.8688483  )
        65        O      tau(  65) = (   0.6353326   0.2349179   1.1607954  )
        66        H      tau(  66) = (   0.7317546   0.2362585   1.1887387  )
        67        H      tau(  67) = (   0.6029297   0.1447546   1.1908130  )

   Crystallographic axes

     site n.     atom                  positions (cryst. coord.)
         1        Zn     tau(   1) = (  0.1250000  0.1666667  0.0327328  )
         2        Zn     tau(   2) = (  0.1250000  0.6666667  0.0327328  )
         3        Zn     tau(   3) = (  0.1250000  0.1666667  0.1309312  )
         4        Zn     tau(   4) = (  0.1250000  0.6666667  0.1309312  )
         5        Zn     tau(   5) = (  0.1250290  0.1881798  0.2460456  )
         6        Zn     tau(   6) = (  0.1250405  0.6881498  0.2460060  )
         7        Zn     tau(   7) = (  0.1250408  0.2088987  0.3605268  )
         8        Zn     tau(   8) = (  0.1250466  0.7089361  0.3605049  )
         9        Zn     tau(   9) = (  0.1250000  0.4166667  0.0327328  )
        10        Zn     tau(  10) = (  0.1250000  0.9166667  0.0327328  )
        11        Zn     tau(  11) = (  0.1250000  0.4166667  0.1309312  )
        12        Zn     tau(  12) = (  0.1250000  0.9166667  0.1309312  )
        13        Zn     tau(  13) = (  0.1250408  0.4381774  0.2460202  )
        14        Zn     tau(  14) = (  0.1250279  0.9381757  0.2460362  )
        15        Zn     tau(  15) = (  0.1250442  0.4588930  0.3605273  )
        16        Zn     tau(  16) = (  0.1250426  0.9589360  0.3605011  )
        17        Zn     tau(  17) = (  0.6250000  0.1666667  0.0327328  )
        18        Zn     tau(  18) = (  0.6250000  0.6666667  0.0327328  )
        19        Zn     tau(  19) = (  0.6250000  0.1666667  0.1309312  )
        20        Zn     tau(  20) = (  0.6250000  0.6666667  0.1309312  )
        21        Zn     tau(  21) = (  0.6249675  0.1883018  0.2461292  )
        22        Zn     tau(  22) = (  0.6249625  0.6882533  0.2460983  )
        23        Zn     tau(  23) = (  0.6249647  0.2088817  0.3605185  )
        24        Zn     tau(  24) = (  0.6249499  0.7089381  0.3605008  )
        25        Zn     tau(  25) = (  0.6250000  0.4166667  0.0327328  )
        26        Zn     tau(  26) = (  0.6250000  0.9166667  0.0327328  )
        27        Zn     tau(  27) = (  0.6250000  0.4166667  0.1309312  )
        28        Zn     tau(  28) = (  0.6250000  0.9166667  0.1309312  )
        29        Zn     tau(  29) = (  0.6249643  0.4383239  0.2461112  )
        30        Zn     tau(  30) = (  0.6249672  0.9382507  0.2461196  )
        31        Zn     tau(  31) = (  0.6249591  0.4589067  0.3605228  )
        32        Zn     tau(  32) = (  0.6249573  0.9589085  0.3604949  )
        33        Zn     tau(  33) = (  0.3750000  0.0833333  0.0654656  )
        34        Zn     tau(  34) = (  0.3750000  0.5833333  0.0654656  )
        35        Zn     tau(  35) = (  0.3750000  0.0833333  0.1636640  )
        36        Zn     tau(  36) = (  0.3750000  0.5833333  0.1636640  )
        37        Zn     tau(  37) = (  0.3749795  0.0855154  0.2636074  )
        38        Zn     tau(  38) = (  0.3749869  0.5855465  0.2635773  )
        39        Zn     tau(  39) = (  0.3751136  0.0924479  0.3672322  )
        40        Zn     tau(  40) = (  0.3751189  0.5924790  0.3672441  )
        41        Zn     tau(  41) = (  0.3750000  0.3333333  0.0654656  )
        42        Zn     tau(  42) = (  0.3750000  0.8333333  0.0654656  )
        43        Zn     tau(  43) = (  0.3750000  0.3333333  0.1636640  )
        44        Zn     tau(  44) = (  0.3750000  0.8333333  0.1636640  )
        45        Zn     tau(  45) = (  0.3749870  0.3355436  0.2635862  )
        46        Zn     tau(  46) = (  0.3749914  0.8355113  0.2635959  )
        47        Zn     tau(  47) = (  0.3751105  0.3424304  0.3672458  )
        48        Zn     tau(  48) = (  0.3751210  0.8424936  0.3672300  )
        49        Zn     tau(  49) = (  0.8750000  0.0833333  0.0654656  )
        50        Zn     tau(  50) = (  0.8750000  0.5833333  0.0654656  )
        51        Zn     tau(  51) = (  0.8750000  0.0833333  0.1636640  )
        52        Zn     tau(  52) = (  0.8750000  0.5833333  0.1636640  )
        53        Zn     tau(  53) = (  0.8750137  0.0855215  0.2636113  )
        54        Zn     tau(  54) = (  0.8750145  0.5855469  0.2635797  )
        55        Zn     tau(  55) = (  0.8748930  0.0925177  0.3672784  )
        56        Zn     tau(  56) = (  0.8748831  0.5925243  0.3672904  )
        57        Zn     tau(  57) = (  0.8750000  0.3333333  0.0654656  )
        58        Zn     tau(  58) = (  0.8750000  0.8333333  0.0654656  )
        59        Zn     tau(  59) = (  0.8750000  0.3333333  0.1636640  )
        60        Zn     tau(  60) = (  0.8750000  0.8333333  0.1636640  )
        61        Zn     tau(  61) = (  0.8750191  0.3355308  0.2635897  )
        62        Zn     tau(  62) = (  0.8750146  0.8355343  0.2635993  )
        63        Zn     tau(  63) = (  0.8748974  0.3424815  0.3672913  )
        64        Zn     tau(  64) = (  0.8748800  0.8425626  0.3672764  )
        65        O      tau(  65) = (  0.6353326  0.8435554  0.4906872  )
        66        H      tau(  66) = (  0.7317546  0.8598408  0.5024994  )
        67        H      tau(  67) = (  0.6029297  0.7756754  0.5033762  )

     number of k points=     5  Marzari-Vanderbilt smearing, width (Ry)=  0.0200
                       cart. coord. in units 2pi/alat
        k(    1) = (   0.0000000   0.0000000   0.0000000), wk =   0.2222222
        k(    2) = (   0.0000000   0.3106663   0.1793633), wk =   0.4444444
        k(    3) = (   0.3333333   0.0000000   0.0000000), wk =   0.4444444
        k(    4) = (   0.3333333   0.3106663   0.1793633), wk =   0.4444444
        k(    5) = (   0.3333333  -0.3106663  -0.1793633), wk =   0.4444444

                       cryst. coord.
        k(    1) = (   0.0000000   0.0000000   0.0000000), wk =   0.2222222
        k(    2) = (   0.0000000   0.3333333  -0.0000000), wk =   0.4444444
        k(    3) = (   0.3333333   0.0000000   0.0000000), wk =   0.4444444
        k(    4) = (   0.3333333   0.3333333  -0.0000000), wk =   0.4444444
        k(    5) = (   0.3333333  -0.3333333   0.0000000), wk =   0.4444444

     Dense  grid:   351985 G-vectors     FFT dimensions: (  72,  72, 180)

     Dynamical RAM for                 wfc:      16.22 MB

     Dynamical RAM for     wfc (w. buffer):      97.31 MB

     Dynamical RAM for           str. fact:       0.50 MB

     Dynamical RAM for           local pot:       0.00 MB

     Dynamical RAM for          nlocal pot:      24.42 MB

     Dynamical RAM for                qrad:       2.64 MB

     Dynamical RAM for          rho,v,vnew:       1.22 MB

     Dynamical RAM for               rhoin:       0.41 MB

     Dynamical RAM for            rho*nmix:       2.69 MB

     Dynamical RAM for           G-vectors:       0.71 MB

     Dynamical RAM for          h,s,v(r/c):       4.37 MB

     Dynamical RAM for          <psi|beta>:      13.73 MB

     Dynamical RAM for                 psi:      32.44 MB

     Dynamical RAM for                hpsi:      32.44 MB

     Dynamical RAM for                spsi:      32.44 MB

     Dynamical RAM for      wfcinit/wfcrot:      51.24 MB

     Dynamical RAM for           addusdens:      41.97 MB

     Dynamical RAM for          addusforce:      63.46 MB

     Dynamical RAM for         addusstress:      33.74 MB

     Estimated static dynamical RAM per process >     129.07 MB

     Estimated max dynamical RAM per process >     247.16 MB

     Estimated total dynamical RAM >       7.72 GB

     Check: negative core charge=   -0.000010

     Initial potential from superposition of free atoms

     starting charge    1287.9910, renormalised to    1288.0000

     negative rho (up, down):  6.365E-03 0.000E+00
     Starting wfcs are  838 randomized atomic wfcs
[psid10:253443] 31 more processes have sent help message help-mpi-btl-openib.txt / ib port not selected
[psid10:253443] Set MCA parameter "orte_base_help_aggregate" to 0 to see all help / error messages
[psid10:253443] 31 more processes have sent help message help-mpi-btl-openib.txt / error in device init
     Checking if some PAW data can be deallocated... 
       PAW data deallocated on   31 nodes for type:  2

     total cpu time spent up to now is       67.4 secs

     Self-consistent Calculation

     iteration #  1     ecut=    30.00 Ry     beta= 0.70
     Davidson diagonalization with overlap

---- Real-time Memory Report at c_bands before calling an iterative solver
           209 MiB given to the printing process from OS
             0 MiB allocation reported by mallinfo(arena+hblkhd)
        140441 MiB available memory on the node where the printing process lives
------------------
     ethr =  1.00E-02,  avg # of iterations =  7.2

     Threshold (ethr) on eigenvalues was too large:
     Diagonalizing with lowered threshold

     Davidson diagonalization with overlap

---- Real-time Memory Report at c_bands before calling an iterative solver
           287 MiB given to the printing process from OS
             0 MiB allocation reported by mallinfo(arena+hblkhd)
        139105 MiB available memory on the node where the printing process lives
------------------
     ethr =  2.12E-04,  avg # of iterations =  2.6

     negative rho (up, down):  1.019E-02 0.000E+00

     total cpu time spent up to now is      578.0 secs

     total energy              =  -29577.66131737 Ry
     estimated scf accuracy    <       2.91174603 Ry

     iteration #  2     ecut=    30.00 Ry     beta= 0.70
     Davidson diagonalization with overlap

---- Real-time Memory Report at c_bands before calling an iterative solver
           302 MiB given to the printing process from OS
             0 MiB allocation reported by mallinfo(arena+hblkhd)
        139002 MiB available memory on the node where the printing process lives
------------------
     ethr =  2.26E-04,  avg # of iterations =  7.4

     negative rho (up, down):  1.050E-02 0.000E+00

     total cpu time spent up to now is      971.6 secs

     total energy              =  -29577.32570552 Ry
     estimated scf accuracy    <       7.97252466 Ry

     iteration #  3     ecut=    30.00 Ry     beta= 0.70
     Davidson diagonalization with overlap

---- Real-time Memory Report at c_bands before calling an iterative solver
           302 MiB given to the printing process from OS
             0 MiB allocation reported by mallinfo(arena+hblkhd)
        138972 MiB available memory on the node where the printing process lives
------------------
     ethr =  2.26E-04,  avg # of iterations =  8.8

     negative rho (up, down):  1.054E-02 0.000E+00

     total cpu time spent up to now is     1350.2 secs

     total energy              =  -29575.39475012 Ry
     estimated scf accuracy    <      94.92316585 Ry

     iteration #  4     ecut=    30.00 Ry     beta= 0.70
     Davidson diagonalization with overlap

---- Real-time Memory Report at c_bands before calling an iterative solver
           313 MiB given to the printing process from OS
             0 MiB allocation reported by mallinfo(arena+hblkhd)
        138950 MiB available memory on the node where the printing process lives
------------------
     ethr =  2.26E-04,  avg # of iterations =  8.0

     negative rho (up, down):  1.161E-02 0.000E+00

     total cpu time spent up to now is     1624.8 secs

     total energy              =  -29579.12706751 Ry
     estimated scf accuracy    <       0.15515580 Ry

     iteration #  5     ecut=    30.00 Ry     beta= 0.70
     Davidson diagonalization with overlap

---- Real-time Memory Report at c_bands before calling an iterative solver
           313 MiB given to the printing process from OS
             0 MiB allocation reported by mallinfo(arena+hblkhd)
        138937 MiB available memory on the node where the printing process lives
------------------
     ethr =  1.20E-05,  avg # of iterations = 14.6

     negative rho (up, down):  1.275E-02 0.000E+00

     total cpu time spent up to now is     1963.5 secs

     total energy              =  -29579.10943877 Ry
     estimated scf accuracy    <       0.65963690 Ry

     iteration #  6     ecut=    30.00 Ry     beta= 0.70
     Davidson diagonalization with overlap

---- Real-time Memory Report at c_bands before calling an iterative solver
           313 MiB given to the printing process from OS
             0 MiB allocation reported by mallinfo(arena+hblkhd)
        138921 MiB available memory on the node where the printing process lives
------------------
     c_bands:  1 eigenvalues not converged
     c_bands:  1 eigenvalues not converged
     c_bands:  2 eigenvalues not converged
     c_bands:  1 eigenvalues not converged
     ethr =  1.20E-05,  avg # of iterations = 18.2

     negative rho (up, down):  1.319E-02 0.000E+00

     total cpu time spent up to now is     2270.8 secs

     total energy              =  -29579.16747065 Ry
     estimated scf accuracy    <       0.08928038 Ry

     iteration #  7     ecut=    30.00 Ry     beta= 0.70
     Davidson diagonalization with overlap

---- Real-time Memory Report at c_bands before calling an iterative solver
           313 MiB given to the printing process from OS
             0 MiB allocation reported by mallinfo(arena+hblkhd)
        138903 MiB available memory on the node where the printing process lives
------------------
     c_bands:  1 eigenvalues not converged
     ethr =  6.93E-06,  avg # of iterations = 14.6

     negative rho (up, down):  1.328E-02 0.000E+00

     total cpu time spent up to now is     2545.4 secs

     total energy              =  -29579.17731129 Ry
     estimated scf accuracy    <       0.02412594 Ry

     iteration #  8     ecut=    30.00 Ry     beta= 0.70
     Davidson diagonalization with overlap

---- Real-time Memory Report at c_bands before calling an iterative solver
           313 MiB given to the printing process from OS
             0 MiB allocation reported by mallinfo(arena+hblkhd)
        138888 MiB available memory on the node where the printing process lives
------------------
     ethr =  1.87E-06,  avg # of iterations =  5.6

     negative rho (up, down):  1.332E-02 0.000E+00

     total cpu time spent up to now is     2787.5 secs

     total energy              =  -29579.18016923 Ry
     estimated scf accuracy    <       0.00450450 Ry

     iteration #  9     ecut=    30.00 Ry     beta= 0.70
     Davidson diagonalization with overlap

---- Real-time Memory Report at c_bands before calling an iterative solver
           313 MiB given to the printing process from OS
             0 MiB allocation reported by mallinfo(arena+hblkhd)
        138872 MiB available memory on the node where the printing process lives
------------------
     ethr =  3.50E-07,  avg # of iterations =  2.2

     negative rho (up, down):  1.336E-02 0.000E+00

     total cpu time spent up to now is     3011.5 secs

     total energy              =  -29579.18072207 Ry
     estimated scf accuracy    <       0.00219265 Ry

     iteration # 10     ecut=    30.00 Ry     beta= 0.70
     Davidson diagonalization with overlap

---- Real-time Memory Report at c_bands before calling an iterative solver
           313 MiB given to the printing process from OS
             0 MiB allocation reported by mallinfo(arena+hblkhd)
        138857 MiB available memory on the node where the printing process lives
------------------
     ethr =  1.70E-07,  avg # of iterations =  2.0

     negative rho (up, down):  1.335E-02 0.000E+00

     total cpu time spent up to now is     3232.3 secs

     total energy              =  -29579.18093496 Ry
     estimated scf accuracy    <       0.00056371 Ry

     iteration # 11     ecut=    30.00 Ry     beta= 0.70
     Davidson diagonalization with overlap

---- Real-time Memory Report at c_bands before calling an iterative solver
           313 MiB given to the printing process from OS
             0 MiB allocation reported by mallinfo(arena+hblkhd)
        138833 MiB available memory on the node where the printing process lives
------------------
     ethr =  4.38E-08,  avg # of iterations =  2.0

     negative rho (up, down):  1.337E-02 0.000E+00

     total cpu time spent up to now is     3454.6 secs

     total energy              =  -29579.18100111 Ry
     estimated scf accuracy    <       0.00013575 Ry

     iteration # 12     ecut=    30.00 Ry     beta= 0.70
     Davidson diagonalization with overlap

---- Real-time Memory Report at c_bands before calling an iterative solver
           313 MiB given to the printing process from OS
             0 MiB allocation reported by mallinfo(arena+hblkhd)
        138843 MiB available memory on the node where the printing process lives
------------------
     ethr =  1.05E-08,  avg # of iterations =  2.0

     negative rho (up, down):  1.337E-02 0.000E+00

     total cpu time spent up to now is     3676.4 secs

     total energy              =  -29579.18102010 Ry
     estimated scf accuracy    <       0.00007995 Ry

     iteration # 13     ecut=    30.00 Ry     beta= 0.70
     Davidson diagonalization with overlap

---- Real-time Memory Report at c_bands before calling an iterative solver
           313 MiB given to the printing process from OS
             0 MiB allocation reported by mallinfo(arena+hblkhd)
        138842 MiB available memory on the node where the printing process lives
------------------
     ethr =  6.21E-09,  avg # of iterations =  2.0

     negative rho (up, down):  1.337E-02 0.000E+00

     total cpu time spent up to now is     3898.2 secs

     total energy              =  -29579.18102871 Ry
     estimated scf accuracy    <       0.00001112 Ry

     iteration # 14     ecut=    30.00 Ry     beta= 0.70
     Davidson diagonalization with overlap

---- Real-time Memory Report at c_bands before calling an iterative solver
           313 MiB given to the printing process from OS
             0 MiB allocation reported by mallinfo(arena+hblkhd)
        138841 MiB available memory on the node where the printing process lives
------------------
     ethr =  8.63E-10,  avg # of iterations =  2.0

     negative rho (up, down):  1.337E-02 0.000E+00

     total cpu time spent up to now is     4120.9 secs

     total energy              =  -29579.18102847 Ry
     estimated scf accuracy    <       0.00004487 Ry

     iteration # 15     ecut=    30.00 Ry     beta= 0.70
     Davidson diagonalization with overlap

---- Real-time Memory Report at c_bands before calling an iterative solver
           313 MiB given to the printing process from OS
             0 MiB allocation reported by mallinfo(arena+hblkhd)
        138840 MiB available memory on the node where the printing process lives
------------------
     ethr =  8.63E-10,  avg # of iterations =  1.0

     negative rho (up, down):  1.337E-02 0.000E+00

     total cpu time spent up to now is     4303.0 secs

     total energy              =  -29579.18103049 Ry
     estimated scf accuracy    <       0.00000650 Ry

     iteration # 16     ecut=    30.00 Ry     beta= 0.70
     Davidson diagonalization with overlap

---- Real-time Memory Report at c_bands before calling an iterative solver
           313 MiB given to the printing process from OS
             0 MiB allocation reported by mallinfo(arena+hblkhd)
        138839 MiB available memory on the node where the printing process lives
------------------
     ethr =  5.05E-10,  avg # of iterations =  2.0

     negative rho (up, down):  1.337E-02 0.000E+00

     total cpu time spent up to now is     4524.3 secs

     total energy              =  -29579.18103081 Ry
     estimated scf accuracy    <       0.00000139 Ry

     iteration # 17     ecut=    30.00 Ry     beta= 0.70
     Davidson diagonalization with overlap

---- Real-time Memory Report at c_bands before calling an iterative solver
           313 MiB given to the printing process from OS
             0 MiB allocation reported by mallinfo(arena+hblkhd)
        138839 MiB available memory on the node where the printing process lives
------------------
     ethr =  1.08E-10,  avg # of iterations =  2.0

     negative rho (up, down):  1.337E-02 0.000E+00

     total cpu time spent up to now is     4746.4 secs

     total energy              =  -29579.18103091 Ry
     estimated scf accuracy    <       0.00000119 Ry

     iteration # 18     ecut=    30.00 Ry     beta= 0.70
     Davidson diagonalization with overlap

---- Real-time Memory Report at c_bands before calling an iterative solver
           313 MiB given to the printing process from OS
             0 MiB allocation reported by mallinfo(arena+hblkhd)
        138838 MiB available memory on the node where the printing process lives
------------------
     ethr =  9.26E-11,  avg # of iterations =  2.0

     negative rho (up, down):  1.337E-02 0.000E+00

     total cpu time spent up to now is     4968.0 secs

     End of self-consistent calculation

          k = 0.0000 0.0000 0.0000 ( 44003 PWs)   bands (ev):

  -123.4932-123.4919-123.4918-123.4911-123.4907-123.4905-123.4905-123.4901
  -123.4288-123.4277-123.4270-123.4269-123.4266-123.4258-123.4255-123.4245
  -123.4208-123.4196-123.4194-123.4187-123.4182-123.4179-123.4178-123.4172
  -123.3081-123.3069-123.3068-123.3063-123.3059-123.3057-123.3036-123.3026
  -123.3026-123.3012-123.3011-123.3005-123.3004-123.3003-123.3001-123.3000
  -123.2675-123.2663-123.2659-123.2652-123.2651-123.2648-123.2646-123.2641
  -123.2198-123.2182-123.2175-123.2171-123.2164-123.2158-123.2139-123.2098
  -123.1503-123.1479-123.1470-123.1463-123.1458-123.1444-123.1392-123.1038
   -77.5955 -77.5924 -77.5861 -77.5847 -77.5847 -77.5846 -77.5842 -77.5837
   -77.5836 -77.5833 -77.5820 -77.5789 -77.5788 -77.5749 -77.5747 -77.5731
   -77.5725 -77.5724 -77.5716 -77.5713 -77.5711 -77.5708 -77.5635 -77.5566
   -77.5284 -77.5257 -77.5214 -77.5211 -77.5197 -77.5195 -77.5189 -77.5189
   -77.5187 -77.5185 -77.5169 -77.5168 -77.5166 -77.5164 -77.5163 -77.5152
   -77.5140 -77.5132 -77.5123 -77.5120 -77.5114 -77.5110 -77.5110 -77.5110
   -77.5105 -77.5102 -77.5093 -77.5080 -77.5076 -77.5076 -77.5073 -77.5067
   -77.5066 -77.5062 -77.5058 -77.5054 -77.5042 -77.5041 -77.5034 -77.4998
   -77.4993 -77.4992 -77.4978 -77.4968 -77.4965 -77.4935 -77.4882 -77.4764
   -77.4101 -77.4094 -77.4075 -77.4046 -77.4045 -77.4038 -77.4021 -77.4015
   -77.3987 -77.3983 -77.3973 -77.3970 -77.3969 -77.3964 -77.3951 -77.3949
   -77.3944 -77.3926 -77.3924 -77.3920 -77.3911 -77.3908 -77.3905 -77.3896
   -77.3895 -77.3894 -77.3892 -77.3890 -77.3889 -77.3888 -77.3883 -77.3883
   -77.3880 -77.3879 -77.3878 -77.3871 -77.3856 -77.3855 -77.3854 -77.3843
   -77.3834 -77.3833 -77.3817 -77.3816 -77.3792 -77.3774 -77.3770 -77.3764
   -77.3762 -77.3760 -77.3756 -77.3745 -77.3739 -77.3734 -77.3718 -77.3655
   -77.3611 -77.3586 -77.3523 -77.3479 -77.3476 -77.3413 -77.3409 -77.3406
   -77.3405 -77.3403 -77.3397 -77.3393 -77.3389 -77.3388 -77.3305 -77.3202
   -77.3184 -77.3183 -77.3170 -77.3157 -77.3156 -77.3154 -77.3149 -77.3137
   -77.3123 -77.3080 -77.3073 -77.3022 -77.3021 -77.2978 -77.2975 -77.2969
   -77.2962 -77.2956 -77.2949 -77.2945 -77.2933 -77.2901 -77.2866 -77.2797
   -77.2464 -77.2456 -77.2436 -77.2434 -77.2430 -77.2419 -77.2416 -77.2412
   -77.2405 -77.2397 -77.2395 -77.2364 -77.2344 -77.2344 -77.2340 -77.2293
   -77.2231 -77.2224 -77.2205 -77.2154 -77.2069 -77.2001 -77.1943 -77.1818
   -18.4138  -6.6516  -6.0454  -5.7464  -5.5882  -5.3805  -5.3804  -5.2998
    -5.1530  -5.0888  -5.0781  -5.0264  -4.9997  -4.9994  -4.9916  -4.9760
    -4.9745  -4.9744  -4.9724  -4.9259  -4.9227  -4.9076  -4.9075  -4.8499
    -4.8481  -4.8480  -4.8392  -4.8286  -4.8250  -4.8190  -4.8175  -4.8174
    -4.7979  -4.7916  -4.7878  -4.7877  -4.7849  -4.7787  -4.7703  -4.7702
    -4.7667  -4.7623  -4.7459  -4.7457  -4.7419  -4.7355  -4.7300  -4.7300
    -4.7033  -4.7033  -4.7014  -4.6781  -4.6771  -4.6731  -4.6692  -4.6480
    -4.6480  -4.6470  -4.6469  -4.6312  -4.6283  -4.6139  -4.6138  -4.6057
    -4.6056  -4.5698  -4.5697  -4.5673  -4.5655  -4.5654  -4.5640  -4.5638
    -4.5604  -4.5594  -4.5474  -4.5474  -4.5459  -4.5387  -4.5322  -4.5293
    -4.5292  -4.5260  -4.5259  -4.5200  -4.5142  -4.5125  -4.5125  -4.5077
    -4.4795  -4.4652  -4.4577  -4.4575  -4.4548  -4.4525  -4.4400  -4.4392
    -4.4392  -4.4151  -4.4086  -4.4052  -4.4049  -4.4000  -4.3853  -4.3847
    -4.3838  -4.3743  -4.3731  -4.3711  -4.3682  -4.3663  -4.3594  -4.3593
    -4.3559  -4.3554  -4.3466  -4.3256  -4.3163  -4.3162  -4.3113  -4.3105
    -4.3100  -4.3047  -4.3047  -4.3029  -4.2994  -4.2994  -4.2953  -4.2872
    -4.2844  -4.2823  -4.2767  -4.2751  -4.2739  -4.2690  -4.2685  -4.2678
    -4.2496  -4.2451  -4.2450  -4.2421  -4.2389  -4.2388  -4.2347  -4.2307
    -4.2299  -4.2294  -4.2292  -4.2070  -4.2052  -4.1928  -4.1919  -4.1899
    -4.1893  -4.1876  -4.1848  -4.1816  -4.1771  -4.1706  -4.1705  -4.1626
    -4.1578  -4.1566  -4.1533  -4.1464  -4.1310  -4.1274  -4.1271  -4.1257
    -4.1256  -4.1199  -4.1154  -4.1129  -4.1128  -4.1121  -4.0981  -4.0903
    -4.0895  -4.0894  -4.0885  -4.0876  -4.0871  -4.0848  -4.0756  -4.0737
    -4.0736  -4.0701  -4.0695  -4.0644  -4.0642  -4.0362  -4.0358  -4.0301
    -4.0254  -4.0238  -4.0152  -4.0117  -4.0116  -4.0085  -4.0084  -4.0064
    -4.0063  -4.0059  -4.0051  -3.9990  -3.9984  -3.9751  -3.9742  -3.9717
    -3.9664  -3.9635  -3.9626  -3.9620  -3.9603  -3.9592  -3.9591  -3.9588
    -3.9556  -3.9544  -3.9518  -3.9494  -3.9487  -3.9458  -3.9457  -3.9347
    -3.9328  -3.9260  -3.9245  -3.9214  -3.9211  -3.9197  -3.9151  -3.9143
    -3.9109  -3.9104  -3.9068  -3.8979  -3.8977  -3.8966  -3.8929  -3.8898
    -3.8894  -3.8877  -3.8874  -3.8825  -3.8700  -3.8688  -3.8495  -3.8494
    -3.8481  -3.8448  -3.8422  -3.8421  -3.8372  -3.8369  -3.8345  -3.8326
    -3.8304  -3.8298  -3.8283  -3.8265  -3.8248  -3.8222  -3.8156  -3.8134
    -3.8086  -3.8013  -3.7961  -3.7913  -3.7843  -3.7836  -3.7834  -3.7808
    -3.7795  -3.7710  -3.7584  -3.7581  -3.7566  -3.7517  -3.7471  -3.7467
    -3.7463  -3.7440  -3.7390  -3.7381  -3.7307  -3.7303  -3.7230  -3.7218
    -3.7214  -3.7207  -3.7194  -3.7193  -3.7185  -3.7168  -3.7156  -3.7067
    -3.7062  -3.6869  -3.6659  -3.6638  -3.6614  -3.6570  -3.6551  -3.6524
    -3.6490  -3.6481  -3.6474  -3.6436  -3.6426  -3.6394  -3.6349  -3.6334
    -3.6290  -3.6218  -3.6180  -3.6043  -3.6039  -3.6028  -3.6019  -3.5885
    -3.5730  -3.5700  -3.5623  -3.5504  -3.5336  -3.4215  -3.4191  -3.4095
    -3.4068  -3.3813  -3.3254  -3.2898  -3.2274  -2.9473  -2.9472  -2.7765
    -2.7757  -2.5098  -2.0771  -2.0766  -1.9889  -1.9833  -1.9805  -1.9604
    -1.8950  -1.7953  -1.1298  -0.5436  -0.4673  -0.4599  -0.4083  -0.2907
    -0.2850  -0.2594   0.1025   0.1334   0.3208   0.3419   0.4236   0.5079
     0.7393   0.8838   0.9144   1.0123   1.0741   1.2524   1.3394   1.4581
     1.5541   1.5758   1.6458   1.7921   1.7964   1.7992   1.8410   1.8418
     1.8493   1.9471   1.9530   2.1848   2.2442   2.2443   2.3659   2.6246
     2.6282   2.7628   2.7930   2.7989   2.8377   3.0636   3.0643   3.2555
     3.2573   3.8287   3.8910   4.2073   4.2504   4.2704   4.2729   4.2928
     4.3495   4.4142   4.4240   4.4454   4.4536   4.4553   4.7820   4.7857
     4.9260   5.1796   5.2834   5.2969   5.3932   5.6390   5.7895   5.8251
     5.8972   5.9602   6.0890   6.1620   6.1775   6.3497   6.3576   6.5143
     6.5537   6.5770   6.5789   6.6239   6.6455   6.7933   6.8097   6.8649
     7.0082   7.0221   7.0243   7.1278   7.1413   7.2185   7.2597   7.3008
     7.3515   7.4117   7.4530   7.5078   7.5502   7.7915   7.8329   7.8979
     7.9013   8.2093   8.2250   8.2285   8.2856   8.3373   8.3636   8.3956
     8.3974   8.4073   8.4380   8.5022   8.6010   8.6078   8.6277   8.6279
     8.6788   8.7413   8.7636   8.7983   8.8327   8.8399   8.8600   8.9005
     8.9176   8.9332   8.9448   8.9761   9.0160   9.3164   9.3414   9.3585
     9.3758   9.4057   9.4141   9.4659   9.4766   9.4840   9.5270   9.5416
     9.5497   9.5713   9.5830   9.6429   9.6511   9.6641   9.6842   9.9702
    10.0171  10.0263  10.0418  10.0545  10.1313  10.1770  10.1951  10.2226
    10.3140  10.3670  10.3849  10.4267  10.5882  10.6669  10.6916  10.7180
    10.7357  10.7433  10.7622  10.8291  10.8961

     occupation numbers 
     1.0000   1.0000   1.0000   1.0000   1.0000   1.0000   1.0000   1.0000
     1.0000   1.0000   1.0000   1.0000   1.0000   1.0000   1.0000   1.0000
     1.0000   1.0000   1.0000   1.0000   1.0000   1.0000   1.0000   1.0000
     1.0000   1.0000   1.0000   1.0000   1.0000   1.0000   1.0000   1.0000
     1.0000   1.0000   1.0000   1.0000   1.0000   1.0000   1.0000   1.0000
     1.0000   1.0000   1.0000   1.0000   1.0000   1.0000   1.0000   1.0000
     1.0000   1.0000   1.0000   1.0000   1.0000   1.0000   1.0000   1.0000
     1.0000   1.0000   1.0000   1.0000   1.0000   1.0000   1.0000   1.0000
     1.0000   1.0000   1.0000   1.0000   1.0000   1.0000   1.0000   1.0000
     1.0000   1.0000   1.0000   1.0000   1.0000   1.0000   1.0000   1.0000
     1.0000   1.0000   1.0000   1.0000   1.0000   1.0000   1.0000   1.0000
     1.0000   1.0000   1.0000   1.0000   1.0000   1.0000   1.0000   1.0000
     1.0000   1.0000   1.0000   1.0000   1.0000   1.0000   1.0000   1.0000
     1.0000   1.0000   1.0000   1.0000   1.0000   1.0000   1.0000   1.0000
     1.0000   1.0000   1.0000   1.0000   1.0000   1.0000   1.0000   1.0000
     1.0000   1.0000   1.0000   1.0000   1.0000   1.0000   1.0000   1.0000
     1.0000   1.0000   1.0000   1.0000   1.0000   1.0000   1.0000   1.0000
     1.0000   1.0000   1.0000   1.0000   1.0000   1.0000   1.0000   1.0000
     1.0000   1.0000   1.0000   1.0000   1.0000   1.0000   1.0000   1.0000
     1.0000   1.0000   1.0000   1.0000   1.0000   1.0000   1.0000   1.0000
     1.0000   1.0000   1.0000   1.0000   1.0000   1.0000   1.0000   1.0000
     1.0000   1.0000   1.0000   1.0000   1.0000   1.0000   1.0000   1.0000
     1.0000   1.0000   1.0000   1.0000   1.0000   1.0000   1.0000   1.0000
     1.0000   1.0000   1.0000   1.0000   1.0000   1.0000   1.0000   1.0000
     1.0000   1.0000   1.0000   1.0000   1.0000   1.0000   1.0000   1.0000
     1.0000   1.0000   1.0000   1.0000   1.0000   1.0000   1.0000   1.0000
     1.0000   1.0000   1.0000   1.0000   1.0000   1.0000   1.0000   1.0000
     1.0000   1.0000   1.0000   1.0000   1.0000   1.0000   1.0000   1.0000
     1.0000   1.0000   1.0000   1.0000   1.0000   1.0000   1.0000   1.0000
     1.0000   1.0000   1.0000   1.0000   1.0000   1.0000   1.0000   1.0000
     1.0000   1.0000   1.0000   1.0000   1.0000   1.0000   1.0000   1.0000
     1.0000   1.0000   1.0000   1.0000   1.0000   1.0000   1.0000   1.0000
     1.0000   1.0000   1.0000   1.0000   1.0000   1.0000   1.0000   1.0000
     1.0000   1.0000   1.0000   1.0000   1.0000   1.0000   1.0000   1.0000
     1.0000   1.0000   1.0000   1.0000   1.0000   1.0000   1.0000   1.0000
     1.0000   1.0000   1.0000   1.0000   1.0000   1.0000   1.0000   1.0000
     1.0000   1.0000   1.0000   1.0000   1.0000   1.0000   1.0000   1.0000
     1.0000   1.0000   1.0000   1.0000   1.0000   1.0000   1.0000   1.0000
     1.0000   1.0000   1.0000   1.0000   1.0000   1.0000   1.0000   1.0000
     1.0000   1.0000   1.0000   1.0000   1.0000   1.0000   1.0000   1.0000
     1.0000   1.0000   1.0000   1.0000   1.0000   1.0000   1.0000   1.0000
     1.0000   1.0000   1.0000   1.0000   1.0000   1.0000   1.0000   1.0000
     1.0000   1.0000   1.0000   1.0000   1.0000   1.0000   1.0000   1.0000
     1.0000   1.0000   1.0000   1.0000   1.0000   1.0000   1.0000   1.0000
     1.0000   1.0000   1.0000   1.0000   1.0000   1.0000   1.0000   1.0000
     1.0000   1.0000   1.0000   1.0000   1.0000   1.0000   1.0000   1.0000
     1.0000   1.0000   1.0000   1.0000   1.0000   1.0000   1.0000   1.0000
     1.0000   1.0000   1.0000   1.0000   1.0000   1.0000   1.0000   1.0000
     1.0000   1.0000   1.0000   1.0000   1.0000   1.0000   1.0000   1.0000
     1.0000   1.0000   1.0000   1.0000   1.0000   1.0000   1.0000   1.0000
     1.0000   1.0000   1.0000   1.0000   1.0000   1.0000   1.0000   1.0000
     1.0000   1.0000   1.0000   1.0000   1.0000   1.0000   1.0000   1.0000
     1.0000   1.0000   1.0000   1.0000   1.0000   1.0000   1.0000   1.0000
     1.0000   1.0000   1.0000   1.0000   1.0000   1.0000   1.0000   1.0000
     1.0000   1.0000   1.0000   1.0000   1.0000   1.0000   1.0000   1.0000
     1.0000   1.0000   1.0000   1.0000   1.0000   1.0000   1.0000   1.0000
     1.0000   1.0000   1.0000   1.0000   1.0000   1.0000   1.0000   1.0000
     1.0000   1.0000   1.0000   1.0000   1.0000   1.0000   1.0000   1.0000
     1.0000   1.0000   1.0000   1.0000   1.0000   1.0000   1.0000   1.0000
     1.0000   1.0000   1.0000   1.0000   1.0000   1.0000   1.0000   1.0000
     1.0000   1.0000   1.0000   1.0000   1.0000   1.0000   1.0000   1.0000
     1.0000   1.0000   1.0000   1.0000   1.0000   1.0000   1.0000   1.0000
     1.0000   1.0000   1.0000   1.0000   1.0000   1.0000   1.0000   1.0000
     1.0000   1.0000   1.0000   1.0000   1.0000   1.0000   1.0000   1.0000
     1.0000   1.0000   1.0000   1.0000   1.0000   1.0000   1.0000   1.0000
     1.0000   1.0000   1.0000   1.0000   1.0000   1.0000   1.0000   1.0000
     1.0000   1.0000   1.0000   1.0000   1.0000   1.0000   1.0000   1.0000
     1.0000   1.0000   1.0000   1.0000   1.0000   1.0000   1.0000   1.0000
     1.0000   1.0000   1.0000   1.0000   1.0000   1.0000   1.0000   1.0000
     1.0000   1.0000   1.0000   1.0000   1.0000   1.0000   1.0000   1.0000
     1.0000   1.0000   1.0000   1.0000   1.0000   1.0000   1.0000   1.0000
     1.0000   1.0000   1.0000   1.0000   1.0000   1.0000   1.0000   1.0000
     1.0000   1.0000   1.0000   1.0000   1.0000   1.0000   1.0000   1.0000
     1.0000   1.0000   1.0000   1.0000   1.0000   1.0000   1.0000   1.0000
     1.0000   1.0000   1.0000   1.0000   1.0000   1.0000   1.0000   1.0000
     1.0000   1.0000   1.0000   1.0000   1.0000   1.0000   1.0000   1.0000
     1.0000   1.0000   1.0000   1.0000   1.0000   1.0000   1.0000   1.0000
     1.0000   1.0000   1.0000   1.0000   1.0000   1.0000   1.0000   1.0000
     1.0000   1.0000   1.0000   1.0000   1.0000   1.0000   1.0000   1.0000
     1.0000   1.0000   1.0000   1.0000   1.0001   1.0001   1.0011   1.0319
     1.0329   1.0760   1.0819   1.0825   1.0815   0.7671   0.7654   0.2721
     0.2685   0.0001   0.0000   0.0000   0.0000   0.0000   0.0000   0.0000
     0.0000   0.0000   0.0000   0.0000   0.0000   0.0000   0.0000   0.0000
     0.0000   0.0000   0.0000   0.0000   0.0000   0.0000   0.0000   0.0000
     0.0000   0.0000   0.0000   0.0000   0.0000   0.0000   0.0000   0.0000
     0.0000   0.0000   0.0000   0.0000   0.0000   0.0000   0.0000   0.0000
     0.0000   0.0000   0.0000   0.0000   0.0000   0.0000   0.0000   0.0000
     0.0000   0.0000   0.0000   0.0000   0.0000   0.0000   0.0000   0.0000
     0.0000   0.0000   0.0000   0.0000   0.0000   0.0000   0.0000   0.0000
     0.0000   0.0000   0.0000   0.0000   0.0000   0.0000   0.0000   0.0000
     0.0000   0.0000   0.0000   0.0000   0.0000   0.0000   0.0000   0.0000
     0.0000   0.0000   0.0000   0.0000   0.0000   0.0000   0.0000   0.0000
     0.0000   0.0000   0.0000   0.0000   0.0000   0.0000   0.0000   0.0000
     0.0000   0.0000   0.0000   0.0000   0.0000   0.0000   0.0000   0.0000
     0.0000   0.0000   0.0000   0.0000   0.0000   0.0000   0.0000   0.0000
     0.0000   0.0000   0.0000   0.0000   0.0000   0.0000   0.0000   0.0000
     0.0000   0.0000   0.0000   0.0000   0.0000

          k = 0.0000 0.3107 0.1794 ( 43969 PWs)   bands (ev):

  -123.4928-123.4919-123.4915-123.4912-123.4908-123.4906-123.4904-123.4900
  -123.4285-123.4276-123.4270-123.4268-123.4263-123.4258-123.4254-123.4245
  -123.4204-123.4196-123.4191-123.4187-123.4184-123.4181-123.4177-123.4172
  -123.3077-123.3070-123.3065-123.3063-123.3060-123.3055-123.3035-123.3025
  -123.3022-123.3013-123.3009-123.3006-123.3004-123.3002-123.3002-123.3000
  -123.2671-123.2663-123.2657-123.2652-123.2650-123.2648-123.2647-123.2641
  -123.2196-123.2182-123.2174-123.2168-123.2164-123.2158-123.2138-123.2098
  -123.1502-123.1477-123.1470-123.1463-123.1457-123.1443-123.1392-123.1037
   -77.5916 -77.5883 -77.5859 -77.5852 -77.5848 -77.5845 -77.5838 -77.5833
   -77.5832 -77.5830 -77.5826 -77.5818 -77.5806 -77.5795 -77.5759 -77.5724
   -77.5707 -77.5703 -77.5700 -77.5697 -77.5674 -77.5665 -77.5632 -77.5624
   -77.5248 -77.5217 -77.5205 -77.5203 -77.5192 -77.5189 -77.5185 -77.5178
   -77.5175 -77.5168 -77.5164 -77.5160 -77.5158 -77.5153 -77.5149 -77.5143
   -77.5141 -77.5139 -77.5138 -77.5132 -77.5130 -77.5128 -77.5124 -77.5118
   -77.5111 -77.5108 -77.5098 -77.5083 -77.5075 -77.5067 -77.5064 -77.5064
   -77.5056 -77.5051 -77.5049 -77.5046 -77.5033 -77.5024 -77.5022 -77.5012
   -77.5011 -77.5004 -77.4974 -77.4966 -77.4920 -77.4906 -77.4879 -77.4863
   -77.4083 -77.4066 -77.4046 -77.4032 -77.4017 -77.4007 -77.3998 -77.3985
   -77.3973 -77.3972 -77.3972 -77.3969 -77.3964 -77.3952 -77.3951 -77.3946
   -77.3940 -77.3940 -77.3938 -77.3928 -77.3922 -77.3917 -77.3914 -77.3903
   -77.3899 -77.3896 -77.3891 -77.3887 -77.3885 -77.3882 -77.3881 -77.3878
   -77.3875 -77.3873 -77.3872 -77.3871 -77.3865 -77.3863 -77.3862 -77.3854
   -77.3827 -77.3816 -77.3795 -77.3783 -77.3777 -77.3771 -77.3768 -77.3767
   -77.3765 -77.3763 -77.3760 -77.3755 -77.3750 -77.3745 -77.3731 -77.3717
   -77.3572 -77.3546 -77.3512 -77.3481 -77.3477 -77.3469 -77.3448 -77.3411
   -77.3399 -77.3391 -77.3387 -77.3381 -77.3338 -77.3332 -77.3300 -77.3288
   -77.3182 -77.3173 -77.3162 -77.3156 -77.3152 -77.3148 -77.3136 -77.3124
   -77.3115 -77.3083 -77.3065 -77.3050 -77.3027 -77.3024 -77.2994 -77.2961
   -77.2955 -77.2936 -77.2924 -77.2911 -77.2898 -77.2892 -77.2872 -77.2838
   -77.2457 -77.2452 -77.2437 -77.2433 -77.2423 -77.2413 -77.2409 -77.2403
   -77.2390 -77.2385 -77.2369 -77.2357 -77.2346 -77.2336 -77.2330 -77.2302
   -77.2283 -77.2236 -77.2161 -77.2135 -77.2119 -77.1990 -77.1945 -77.1833
   -18.4137  -6.4926  -6.0447  -6.0336  -5.5970  -5.4602  -5.1920  -5.1815
    -5.1390  -5.0844  -5.0125  -5.0101  -5.0005  -4.9757  -4.9739  -4.9633
    -4.9542  -4.9182  -4.9162  -4.9158  -4.9135  -4.9134  -4.9064  -4.9061
    -4.8988  -4.8948  -4.8871  -4.8774  -4.8574  -4.8525  -4.8461  -4.8226
    -4.8141  -4.7909  -4.7909  -4.7899  -4.7897  -4.7825  -4.7822  -4.7748
    -4.7619  -4.7611  -4.7502  -4.7483  -4.7477  -4.7471  -4.7354  -4.7138
    -4.7127  -4.7002  -4.6964  -4.6949  -4.6896  -4.6872  -4.6861  -4.6826
    -4.6727  -4.6657  -4.6564  -4.6498  -4.6451  -4.6402  -4.6375  -4.6301
    -4.6204  -4.6144  -4.6030  -4.6001  -4.5953  -4.5909  -4.5838  -4.5835
    -4.5758  -4.5675  -4.5568  -4.5513  -4.5436  -4.5276  -4.5252  -4.5189
    -4.5185  -4.5171  -4.5099  -4.5082  -4.4947  -4.4930  -4.4892  -4.4866
    -4.4829  -4.4826  -4.4816  -4.4789  -4.4751  -4.4727  -4.4656  -4.4506
    -4.4469  -4.4463  -4.4459  -4.4361  -4.4355  -4.4262  -4.4112  -4.4039
    -4.3912  -4.3858  -4.3841  -4.3826  -4.3727  -4.3704  -4.3582  -4.3498
    -4.3489  -4.3483  -4.3461  -4.3443  -4.3299  -4.3293  -4.3280  -4.3098
    -4.3059  -4.3007  -4.3002  -4.2943  -4.2913  -4.2880  -4.2868  -4.2854
    -4.2832  -4.2821  -4.2801  -4.2783  -4.2753  -4.2687  -4.2670  -4.2584
    -4.2498  -4.2468  -4.2451  -4.2404  -4.2400  -4.2332  -4.2316  -4.2312
    -4.2226  -4.2208  -4.2195  -4.2179  -4.2128  -4.2111  -4.1995  -4.1986
    -4.1981  -4.1948  -4.1914  -4.1906  -4.1900  -4.1783  -4.1752  -4.1741
    -4.1725  -4.1718  -4.1712  -4.1703  -4.1683  -4.1663  -4.1482  -4.1440
    -4.1369  -4.1325  -4.1290  -4.1241  -4.1166  -4.1142  -4.1050  -4.0995
    -4.0914  -4.0894  -4.0859  -4.0816  -4.0766  -4.0735  -4.0702  -4.0605
    -4.0577  -4.0555  -4.0529  -4.0509  -4.0351  -4.0331  -4.0296  -4.0290
    -4.0265  -4.0249  -4.0163  -4.0153  -4.0148  -4.0138  -4.0134  -4.0121
    -4.0108  -4.0075  -4.0044  -4.0037  -4.0004  -3.9972  -3.9961  -3.9888
    -3.9873  -3.9871  -3.9801  -3.9704  -3.9629  -3.9603  -3.9599  -3.9544
    -3.9509  -3.9453  -3.9442  -3.9385  -3.9375  -3.9250  -3.9207  -3.9205
    -3.9187  -3.9155  -3.9089  -3.9016  -3.9011  -3.8964  -3.8941  -3.8907
    -3.8834  -3.8819  -3.8787  -3.8774  -3.8760  -3.8678  -3.8567  -3.8550
    -3.8514  -3.8501  -3.8493  -3.8472  -3.8433  -3.8342  -3.8340  -3.8295
    -3.8232  -3.8225  -3.8221  -3.8207  -3.8197  -3.8165  -3.8107  -3.8074
    -3.8055  -3.8020  -3.8014  -3.7993  -3.7871  -3.7869  -3.7802  -3.7800
    -3.7723  -3.7684  -3.7666  -3.7658  -3.7622  -3.7594  -3.7573  -3.7562
    -3.7551  -3.7519  -3.7506  -3.7506  -3.7421  -3.7314  -3.7312  -3.7298
    -3.7282  -3.7258  -3.7239  -3.7210  -3.7183  -3.7176  -3.7171  -3.7157
    -3.7146  -3.7121  -3.7107  -3.7079  -3.7071  -3.7069  -3.7067  -3.6955
    -3.6951  -3.6899  -3.6887  -3.6840  -3.6828  -3.6825  -3.6788  -3.6737
    -3.6696  -3.6675  -3.6625  -3.6547  -3.6515  -3.6461  -3.6448  -3.6430
    -3.6409  -3.6392  -3.6304  -3.6241  -3.6201  -3.6148  -3.6142  -3.6103
    -3.6084  -3.5944  -3.5731  -3.5701  -3.5594  -3.4916  -3.4662  -3.4314
    -3.3989  -3.3221  -3.3035  -3.1586  -3.1153  -3.0568  -2.7481  -2.6973
    -2.6555  -2.5639  -2.4509  -2.0488  -2.0219  -1.8036  -1.7202  -1.6341
    -1.2323  -1.1727  -1.1501  -1.0637  -1.0001  -0.9681  -0.9475  -0.6899
    -0.6107  -0.4140  -0.3140   0.2828   0.4177   0.4285   0.4571   0.5747
     0.5810   0.5850   0.6461   0.8679   0.9814   1.0522   1.0978   1.2467
     1.2672   1.2874   1.6768   1.7591   1.7912   1.7952   1.8160   1.8820
     2.1208   2.2995   2.3353   2.5253   2.7014   2.7659   2.7736   2.9034
     2.9610   3.0087   3.0495   3.2004   3.2688   3.5140   3.5366   3.5436
     3.5549   3.6065   3.8592   3.8664   3.9085   3.9962   4.0475   4.2331
     4.4848   4.4929   4.4973   4.6845   4.7295   4.7739   4.8265   5.0191
     5.1190   5.2823   5.3342   5.4187   5.5286   5.5684   5.6235   5.6810
     5.6903   5.7581   5.8722   5.9274   5.9602   5.9908   6.0499   6.0834
     6.1173   6.1523   6.2339   6.4117   6.4239   6.4822   6.5558   6.6527
     6.6735   6.8489   6.8535   6.9431   6.9813   7.0840   7.1156   7.1772
     7.3823   7.3959   7.5489   7.6016   7.6587   7.7668   7.7849   7.7939
     7.8652   7.8992   7.9077   7.9344   8.0270   8.0541   8.0909   8.1794
     8.1923   8.2083   8.2510   8.3511   8.5384   8.5908   8.6394   8.6851
     8.7328   8.7579   8.8211   8.8629   8.9162   8.9254   8.9265   8.9850
     9.0960   9.1066   9.1240   9.2274   9.2374   9.2631   9.2813   9.3071
     9.4181   9.4404   9.4733   9.5084   9.6128   9.6648   9.6979   9.7293
     9.7515   9.7803   9.8493   9.9036   9.9409   9.9847  10.0115  10.0992
    10.1575  10.1902  10.2211  10.2386  10.3054  10.3227  10.3672  10.3913
    10.4276  10.4926  10.5065  10.5189  10.5600  10.6004  10.7011  10.7302
    10.7350  10.7494  10.7543  10.8777  10.9115

     occupation numbers 
     1.0000   1.0000   1.0000   1.0000   1.0000   1.0000   1.0000   1.0000
     1.0000   1.0000   1.0000   1.0000   1.0000   1.0000   1.0000   1.0000
     1.0000   1.0000   1.0000   1.0000   1.0000   1.0000   1.0000   1.0000
     1.0000   1.0000   1.0000   1.0000   1.0000   1.0000   1.0000   1.0000
     1.0000   1.0000   1.0000   1.0000   1.0000   1.0000   1.0000   1.0000
     1.0000   1.0000   1.0000   1.0000   1.0000   1.0000   1.0000   1.0000
     1.0000   1.0000   1.0000   1.0000   1.0000   1.0000   1.0000   1.0000
     1.0000   1.0000   1.0000   1.0000   1.0000   1.0000   1.0000   1.0000
     1.0000   1.0000   1.0000   1.0000   1.0000   1.0000   1.0000   1.0000
     1.0000   1.0000   1.0000   1.0000   1.0000   1.0000   1.0000   1.0000
     1.0000   1.0000   1.0000   1.0000   1.0000   1.0000   1.0000   1.0000
     1.0000   1.0000   1.0000   1.0000   1.0000   1.0000   1.0000   1.0000
     1.0000   1.0000   1.0000   1.0000   1.0000   1.0000   1.0000   1.0000
     1.0000   1.0000   1.0000   1.0000   1.0000   1.0000   1.0000   1.0000
     1.0000   1.0000   1.0000   1.0000   1.0000   1.0000   1.0000   1.0000
     1.0000   1.0000   1.0000   1.0000   1.0000   1.0000   1.0000   1.0000
     1.0000   1.0000   1.0000   1.0000   1.0000   1.0000   1.0000   1.0000
     1.0000   1.0000   1.0000   1.0000   1.0000   1.0000   1.0000   1.0000
     1.0000   1.0000   1.0000   1.0000   1.0000   1.0000   1.0000   1.0000
     1.0000   1.0000   1.0000   1.0000   1.0000   1.0000   1.0000   1.0000
     1.0000   1.0000   1.0000   1.0000   1.0000   1.0000   1.0000   1.0000
     1.0000   1.0000   1.0000   1.0000   1.0000   1.0000   1.0000   1.0000
     1.0000   1.0000   1.0000   1.0000   1.0000   1.0000   1.0000   1.0000
     1.0000   1.0000   1.0000   1.0000   1.0000   1.0000   1.0000   1.0000
     1.0000   1.0000   1.0000   1.0000   1.0000   1.0000   1.0000   1.0000
     1.0000   1.0000   1.0000   1.0000   1.0000   1.0000   1.0000   1.0000
     1.0000   1.0000   1.0000   1.0000   1.0000   1.0000   1.0000   1.0000
     1.0000   1.0000   1.0000   1.0000   1.0000   1.0000   1.0000   1.0000
     1.0000   1.0000   1.0000   1.0000   1.0000   1.0000   1.0000   1.0000
     1.0000   1.0000   1.0000   1.0000   1.0000   1.0000   1.0000   1.0000
     1.0000   1.0000   1.0000   1.0000   1.0000   1.0000   1.0000   1.0000
     1.0000   1.0000   1.0000   1.0000   1.0000   1.0000   1.0000   1.0000
     1.0000   1.0000   1.0000   1.0000   1.0000   1.0000   1.0000   1.0000
     1.0000   1.0000   1.0000   1.0000   1.0000   1.0000   1.0000   1.0000
     1.0000   1.0000   1.0000   1.0000   1.0000   1.0000   1.0000   1.0000
     1.0000   1.0000   1.0000   1.0000   1.0000   1.0000   1.0000   1.0000
     1.0000   1.0000   1.0000   1.0000   1.0000   1.0000   1.0000   1.0000
     1.0000   1.0000   1.0000   1.0000   1.0000   1.0000   1.0000   1.0000
     1.0000   1.0000   1.0000   1.0000   1.0000   1.0000   1.0000   1.0000
     1.0000   1.0000   1.0000   1.0000   1.0000   1.0000   1.0000   1.0000
     1.0000   1.0000   1.0000   1.0000   1.0000   1.0000   1.0000   1.0000
     1.0000   1.0000   1.0000   1.0000   1.0000   1.0000   1.0000   1.0000
     1.0000   1.0000   1.0000   1.0000   1.0000   1.0000   1.0000   1.0000
     1.0000   1.0000   1.0000   1.0000   1.0000   1.0000   1.0000   1.0000
     1.0000   1.0000   1.0000   1.0000   1.0000   1.0000   1.0000   1.0000
     1.0000   1.0000   1.0000   1.0000   1.0000   1.0000   1.0000   1.0000
     1.0000   1.0000   1.0000   1.0000   1.0000   1.0000   1.0000   1.0000
     1.0000   1.0000   1.0000   1.0000   1.0000   1.0000   1.0000   1.0000
     1.0000   1.0000   1.0000   1.0000   1.0000   1.0000   1.0000   1.0000
     1.0000   1.0000   1.0000   1.0000   1.0000   1.0000   1.0000   1.0000
     1.0000   1.0000   1.0000   1.0000   1.0000   1.0000   1.0000   1.0000
     1.0000   1.0000   1.0000   1.0000   1.0000   1.0000   1.0000   1.0000
     1.0000   1.0000   1.0000   1.0000   1.0000   1.0000   1.0000   1.0000
     1.0000   1.0000   1.0000   1.0000   1.0000   1.0000   1.0000   1.0000
     1.0000   1.0000   1.0000   1.0000   1.0000   1.0000   1.0000   1.0000
     1.0000   1.0000   1.0000   1.0000   1.0000   1.0000   1.0000   1.0000
     1.0000   1.0000   1.0000   1.0000   1.0000   1.0000   1.0000   1.0000
     1.0000   1.0000   1.0000   1.0000   1.0000   1.0000   1.0000   1.0000
     1.0000   1.0000   1.0000   1.0000   1.0000   1.0000   1.0000   1.0000
     1.0000   1.0000   1.0000   1.0000   1.0000   1.0000   1.0000   1.0000
     1.0000   1.0000   1.0000   1.0000   1.0000   1.0000   1.0000   1.0000
     1.0000   1.0000   1.0000   1.0000   1.0000   1.0000   1.0000   1.0000
     1.0000   1.0000   1.0000   1.0000   1.0000   1.0000   1.0000   1.0000
     1.0000   1.0000   1.0000   1.0000   1.0000   1.0000   1.0000   1.0000
     1.0000   1.0000   1.0000   1.0000   1.0000   1.0000   1.0000   1.0000
     1.0000   1.0000   1.0000   1.0000   1.0000   1.0000   1.0000   1.0000
     1.0000   1.0000   1.0000   1.0000   1.0000   1.0000   1.0000   1.0000
     1.0000   1.0000   1.0000   1.0000   1.0000   1.0000   1.0000   1.0000
     1.0000   1.0000   1.0000   1.0000   1.0000   1.0000   1.0000   1.0000
     1.0000   1.0000   1.0000   1.0000   1.0000   1.0000   1.0000   1.0000
     1.0000   1.0000   1.0000   1.0000   1.0000   1.0000   1.0000   1.0000
     1.0000   1.0000   1.0000   1.0000   1.0000   1.0000   1.0000   1.0000
     1.0000   1.0000   1.0000   1.0000   1.0000   1.0000   1.0000   1.0000
     1.0000   1.0000   1.0000   1.0000   1.0000   1.0000   1.0000   1.0000
     1.0000   1.0000   1.0000   1.0000   1.0000   1.0000   1.0000   1.0000
     1.0000   1.0000   1.0000   1.0000   1.0000   1.0000   1.0000   1.0000
     1.0000   1.0000   1.0000   1.0000   1.0000   1.0000   1.0000   1.0000
     1.0000   1.0000   1.0000   1.0000   1.0000   1.0000   1.0000   1.0000
     1.0000   1.0000   1.0000   1.0000   1.0000   1.0000   1.0000   1.0000
     1.0000   1.0003   1.0007   1.0112   1.0568   1.0768   1.0785   1.0502
     0.9826   0.8959   0.8027   0.3989   0.2454   0.0167   0.0120   0.0109
     0.0092   0.0040   0.0000   0.0000   0.0000   0.0000   0.0000   0.0000
     0.0000   0.0000   0.0000   0.0000   0.0000   0.0000   0.0000   0.0000
     0.0000   0.0000   0.0000   0.0000   0.0000   0.0000   0.0000   0.0000
     0.0000   0.0000   0.0000   0.0000   0.0000   0.0000   0.0000   0.0000
     0.0000   0.0000   0.0000   0.0000   0.0000   0.0000   0.0000   0.0000
     0.0000   0.0000   0.0000   0.0000   0.0000   0.0000   0.0000   0.0000
     0.0000   0.0000   0.0000   0.0000   0.0000   0.0000   0.0000   0.0000
     0.0000   0.0000   0.0000   0.0000   0.0000   0.0000   0.0000   0.0000
     0.0000   0.0000   0.0000   0.0000   0.0000   0.0000   0.0000   0.0000
     0.0000   0.0000   0.0000   0.0000   0.0000   0.0000   0.0000   0.0000
     0.0000   0.0000   0.0000   0.0000   0.0000   0.0000   0.0000   0.0000
     0.0000   0.0000   0.0000   0.0000   0.0000   0.0000   0.0000   0.0000
     0.0000   0.0000   0.0000   0.0000   0.0000   0.0000   0.0000   0.0000
     0.0000   0.0000   0.0000   0.0000   0.0000   0.0000   0.0000   0.0000
     0.0000   0.0000   0.0000   0.0000   0.0000   0.0000   0.0000   0.0000
     0.0000   0.0000   0.0000   0.0000   0.0000

          k = 0.3333 0.0000 0.0000 ( 44008 PWs)   bands (ev):

  -123.4927-123.4920-123.4915-123.4912-123.4910-123.4908-123.4906-123.4904
  -123.4283-123.4277-123.4273-123.4270-123.4262-123.4259-123.4257-123.4247
  -123.4202-123.4197-123.4192-123.4187-123.4184-123.4182-123.4181-123.4174
  -123.3076-123.3068-123.3067-123.3065-123.3060-123.3059-123.3036-123.3027
  -123.3019-123.3010-123.3009-123.3009-123.3006-123.3005-123.3005-123.3003
  -123.2670-123.2663-123.2658-123.2654-123.2651-123.2651-123.2649-123.2644
  -123.2196-123.2181-123.2176-123.2168-123.2166-123.2161-123.2139-123.2099
  -123.1502-123.1476-123.1471-123.1466-123.1457-123.1445-123.1393-123.1038
   -77.5944 -77.5932 -77.5854 -77.5852 -77.5848 -77.5842 -77.5840 -77.5839
   -77.5834 -77.5829 -77.5806 -77.5769 -77.5759 -77.5756 -77.5754 -77.5753
   -77.5750 -77.5719 -77.5717 -77.5713 -77.5712 -77.5711 -77.5630 -77.5599
   -77.5272 -77.5269 -77.5198 -77.5195 -77.5191 -77.5190 -77.5187 -77.5183
   -77.5180 -77.5175 -77.5169 -77.5168 -77.5163 -77.5148 -77.5146 -77.5143
   -77.5136 -77.5129 -77.5128 -77.5126 -77.5122 -77.5117 -77.5115 -77.5112
   -77.5106 -77.5103 -77.5102 -77.5099 -77.5090 -77.5078 -77.5076 -77.5074
   -77.5072 -77.5068 -77.5062 -77.5056 -77.5052 -77.5042 -77.5039 -77.5013
   -77.4978 -77.4974 -77.4972 -77.4960 -77.4955 -77.4951 -77.4872 -77.4823
   -77.4092 -77.4077 -77.4062 -77.4030 -77.4025 -77.4022 -77.4015 -77.4014
   -77.4012 -77.3998 -77.3981 -77.3980 -77.3946 -77.3945 -77.3940 -77.3940
   -77.3936 -77.3934 -77.3933 -77.3931 -77.3925 -77.3922 -77.3918 -77.3916
   -77.3913 -77.3901 -77.3891 -77.3890 -77.3889 -77.3886 -77.3885 -77.3873
   -77.3873 -77.3868 -77.3867 -77.3865 -77.3862 -77.3861 -77.3860 -77.3858
   -77.3814 -77.3813 -77.3808 -77.3807 -77.3791 -77.3781 -77.3772 -77.3766
   -77.3763 -77.3760 -77.3757 -77.3752 -77.3748 -77.3743 -77.3722 -77.3698
   -77.3601 -77.3594 -77.3491 -77.3456 -77.3447 -77.3443 -77.3439 -77.3437
   -77.3435 -77.3391 -77.3389 -77.3378 -77.3377 -77.3376 -77.3300 -77.3251
   -77.3182 -77.3175 -77.3169 -77.3161 -77.3159 -77.3157 -77.3150 -77.3145
   -77.3125 -77.3084 -77.3041 -77.3008 -77.3000 -77.2993 -77.2987 -77.2982
   -77.2964 -77.2956 -77.2946 -77.2944 -77.2937 -77.2914 -77.2865 -77.2825
   -77.2456 -77.2438 -77.2436 -77.2430 -77.2428 -77.2422 -77.2413 -77.2405
   -77.2401 -77.2398 -77.2391 -77.2377 -77.2373 -77.2352 -77.2346 -77.2301
   -77.2219 -77.2213 -77.2198 -77.2145 -77.2096 -77.2005 -77.1945 -77.1826
   -18.4137  -6.4842  -6.0457  -6.0230  -5.6025  -5.2839  -5.2774  -5.2773
    -5.1454  -5.1367  -5.0497  -5.0496  -5.0494  -5.0364  -5.0253  -5.0188
    -4.9982  -4.9840  -4.9798  -4.9766  -4.9607  -4.9104  -4.8995  -4.8950
    -4.8605  -4.8584  -4.8568  -4.8419  -4.8418  -4.8346  -4.8220  -4.8219
    -4.8082  -4.7718  -4.7717  -4.7648  -4.7626  -4.7578  -4.7578  -4.7466
    -4.7425  -4.7402  -4.7402  -4.7369  -4.7367  -4.7366  -4.7250  -4.7219
    -4.7121  -4.6952  -4.6935  -4.6917  -4.6917  -4.6742  -4.6741  -4.6470
    -4.6470  -4.6462  -4.6224  -4.6224  -4.6051  -4.5998  -4.5910  -4.5910
    -4.5879  -4.5798  -4.5697  -4.5697  -4.5629  -4.5608  -4.5608  -4.5554
    -4.5553  -4.5514  -4.5513  -4.5504  -4.5496  -4.5398  -4.5375  -4.5262
    -4.5182  -4.5181  -4.5179  -4.5042  -4.5005  -4.4954  -4.4952  -4.4818
    -4.4817  -4.4733  -4.4610  -4.4610  -4.4555  -4.4553  -4.4543  -4.4537
    -4.4450  -4.4435  -4.4417  -4.4415  -4.4347  -4.4336  -4.4333  -4.4252
    -4.4250  -4.4209  -4.4202  -4.4094  -4.4087  -4.4081  -4.4073  -4.4036
    -4.3740  -4.3739  -4.3597  -4.3594  -4.3591  -4.3521  -4.3311  -4.3304
    -4.3291  -4.3114  -4.3112  -4.3055  -4.3039  -4.3036  -4.2894  -4.2851
    -4.2849  -4.2828  -4.2787  -4.2783  -4.2761  -4.2743  -4.2689  -4.2686
    -4.2683  -4.2278  -4.2205  -4.2191  -4.2187  -4.2103  -4.2099  -4.2081
    -4.2001  -4.1997  -4.1960  -4.1953  -4.1913  -4.1849  -4.1846  -4.1742
    -4.1742  -4.1666  -4.1641  -4.1638  -4.1619  -4.1616  -4.1554  -4.1507
    -4.1506  -4.1501  -4.1423  -4.1423  -4.1407  -4.1388  -4.1272  -4.1268
    -4.1198  -4.1170  -4.1122  -4.1122  -4.1044  -4.1043  -4.0991  -4.0990
    -4.0915  -4.0910  -4.0895  -4.0874  -4.0871  -4.0683  -4.0669  -4.0514
    -4.0505  -4.0501  -4.0487  -4.0363  -4.0354  -4.0226  -4.0221  -4.0183
    -4.0181  -4.0172  -4.0038  -4.0038  -4.0023  -4.0013  -3.9947  -3.9947
    -3.9878  -3.9821  -3.9818  -3.9818  -3.9798  -3.9793  -3.9754  -3.9669
    -3.9667  -3.9653  -3.9641  -3.9637  -3.9628  -3.9598  -3.9533  -3.9532
    -3.9489  -3.9420  -3.9419  -3.9414  -3.9388  -3.9262  -3.9259  -3.9255
    -3.9246  -3.9229  -3.9194  -3.9187  -3.9170  -3.9132  -3.9128  -3.9073
    -3.8971  -3.8969  -3.8848  -3.8837  -3.8829  -3.8812  -3.8795  -3.8791
    -3.8766  -3.8746  -3.8738  -3.8726  -3.8721  -3.8585  -3.8554  -3.8491
    -3.8466  -3.8465  -3.8429  -3.8427  -3.8405  -3.8399  -3.8373  -3.8370
    -3.8362  -3.8329  -3.8319  -3.8291  -3.8285  -3.8279  -3.8235  -3.8113
    -3.8073  -3.8068  -3.8019  -3.7976  -3.7973  -3.7926  -3.7923  -3.7821
    -3.7794  -3.7790  -3.7752  -3.7745  -3.7741  -3.7652  -3.7598  -3.7592
    -3.7591  -3.7579  -3.7561  -3.7497  -3.7482  -3.7445  -3.7439  -3.7362
    -3.7325  -3.7284  -3.7282  -3.7233  -3.7231  -3.7169  -3.7090  -3.7088
    -3.6963  -3.6960  -3.6936  -3.6820  -3.6748  -3.6623  -3.6603  -3.6584
    -3.6559  -3.6534  -3.6459  -3.6347  -3.6268  -3.6260  -3.6256  -3.6155
    -3.6114  -3.6061  -3.6045  -3.6031  -3.6019  -3.5980  -3.5895  -3.5870
    -3.5868  -3.5862  -3.5682  -3.5662  -3.5607  -3.5487  -3.5137  -3.4794
    -3.4551  -3.4362  -3.3273  -3.3242  -3.1178  -3.0280  -2.9274  -2.9222
    -2.6625  -2.4835  -2.1254  -1.8414  -1.8260  -1.6887  -1.6850  -1.4348
    -1.2915  -1.2848  -1.0085  -0.7573  -0.7322  -0.7144  -0.4586  -0.4221
    -0.2044  -0.1392  -0.1283  -0.0274  -0.0197   0.2908   0.3091   0.3179
     0.3521   0.6385   0.6411   0.6579   0.8589   0.9515   0.9827   0.9842
     1.0138   1.0489   1.0952   1.2305   1.4362   1.5253   1.9195   2.0216
     2.0314   2.4100   2.4268   2.4611   2.4727   2.4800   2.6614   2.8565
     2.8608   2.9550   3.0473   3.0563   3.1095   3.5565   3.6149   3.6359
     3.7286   3.8724   3.8814   4.0262   4.0972   4.2858   4.3783   4.3807
     4.5271   4.5360   4.8346   5.0034   5.0855   5.1023   5.1286   5.1470
     5.2975   5.3042   5.3299   5.3553   5.3600   5.4042   5.4169   5.4406
     5.4906   5.5107   5.7321   5.8818   6.3246   6.3945   6.4428   6.5021
     6.5778   6.6388   6.6462   6.7145   6.7396   6.8134   6.8963   6.9393
     7.0773   7.0805   7.0814   7.0900   7.0908   7.1904   7.2249   7.3070
     7.3800   7.4649   7.5084   7.5565   7.6079   7.6107   7.6477   7.7302
     7.7644   7.8267   7.8421   7.9224   7.9607   7.9911   8.0340   8.0754
     8.0804   8.0937   8.1835   8.1911   8.3517   8.3873   8.5195   8.5829
     8.5992   8.6036   8.6275   8.6352   8.6587   8.6924   8.7153   8.7410
     8.8086   8.8596   8.8938   8.9406   9.0055   9.1765   9.2296   9.3060
     9.3472   9.3764   9.4289   9.4435   9.4694   9.5130   9.5326   9.5560
     9.5742   9.6504   9.6662   9.7007   9.7310   9.7771   9.8574   9.8667
     9.8914   9.9411  10.0188  10.1325  10.1808  10.1996  10.2204  10.2406
    10.2476  10.2739  10.2879  10.3579  10.3814  10.6381  10.6604  10.6861
    10.7592  10.7647  10.8447  10.8960  10.9139

     occupation numbers 
     1.0000   1.0000   1.0000   1.0000   1.0000   1.0000   1.0000   1.0000
     1.0000   1.0000   1.0000   1.0000   1.0000   1.0000   1.0000   1.0000
     1.0000   1.0000   1.0000   1.0000   1.0000   1.0000   1.0000   1.0000
     1.0000   1.0000   1.0000   1.0000   1.0000   1.0000   1.0000   1.0000
     1.0000   1.0000   1.0000   1.0000   1.0000   1.0000   1.0000   1.0000
     1.0000   1.0000   1.0000   1.0000   1.0000   1.0000   1.0000   1.0000
     1.0000   1.0000   1.0000   1.0000   1.0000   1.0000   1.0000   1.0000
     1.0000   1.0000   1.0000   1.0000   1.0000   1.0000   1.0000   1.0000
     1.0000   1.0000   1.0000   1.0000   1.0000   1.0000   1.0000   1.0000
     1.0000   1.0000   1.0000   1.0000   1.0000   1.0000   1.0000   1.0000
     1.0000   1.0000   1.0000   1.0000   1.0000   1.0000   1.0000   1.0000
     1.0000   1.0000   1.0000   1.0000   1.0000   1.0000   1.0000   1.0000
     1.0000   1.0000   1.0000   1.0000   1.0000   1.0000   1.0000   1.0000
     1.0000   1.0000   1.0000   1.0000   1.0000   1.0000   1.0000   1.0000
     1.0000   1.0000   1.0000   1.0000   1.0000   1.0000   1.0000   1.0000
     1.0000   1.0000   1.0000   1.0000   1.0000   1.0000   1.0000   1.0000
     1.0000   1.0000   1.0000   1.0000   1.0000   1.0000   1.0000   1.0000
     1.0000   1.0000   1.0000   1.0000   1.0000   1.0000   1.0000   1.0000
     1.0000   1.0000   1.0000   1.0000   1.0000   1.0000   1.0000   1.0000
     1.0000   1.0000   1.0000   1.0000   1.0000   1.0000   1.0000   1.0000
     1.0000   1.0000   1.0000   1.0000   1.0000   1.0000   1.0000   1.0000
     1.0000   1.0000   1.0000   1.0000   1.0000   1.0000   1.0000   1.0000
     1.0000   1.0000   1.0000   1.0000   1.0000   1.0000   1.0000   1.0000
     1.0000   1.0000   1.0000   1.0000   1.0000   1.0000   1.0000   1.0000
     1.0000   1.0000   1.0000   1.0000   1.0000   1.0000   1.0000   1.0000
     1.0000   1.0000   1.0000   1.0000   1.0000   1.0000   1.0000   1.0000
     1.0000   1.0000   1.0000   1.0000   1.0000   1.0000   1.0000   1.0000
     1.0000   1.0000   1.0000   1.0000   1.0000   1.0000   1.0000   1.0000
     1.0000   1.0000   1.0000   1.0000   1.0000   1.0000   1.0000   1.0000
     1.0000   1.0000   1.0000   1.0000   1.0000   1.0000   1.0000   1.0000
     1.0000   1.0000   1.0000   1.0000   1.0000   1.0000   1.0000   1.0000
     1.0000   1.0000   1.0000   1.0000   1.0000   1.0000   1.0000   1.0000
     1.0000   1.0000   1.0000   1.0000   1.0000   1.0000   1.0000   1.0000
     1.0000   1.0000   1.0000   1.0000   1.0000   1.0000   1.0000   1.0000
     1.0000   1.0000   1.0000   1.0000   1.0000   1.0000   1.0000   1.0000
     1.0000   1.0000   1.0000   1.0000   1.0000   1.0000   1.0000   1.0000
     1.0000   1.0000   1.0000   1.0000   1.0000   1.0000   1.0000   1.0000
     1.0000   1.0000   1.0000   1.0000   1.0000   1.0000   1.0000   1.0000
     1.0000   1.0000   1.0000   1.0000   1.0000   1.0000   1.0000   1.0000
     1.0000   1.0000   1.0000   1.0000   1.0000   1.0000   1.0000   1.0000
     1.0000   1.0000   1.0000   1.0000   1.0000   1.0000   1.0000   1.0000
     1.0000   1.0000   1.0000   1.0000   1.0000   1.0000   1.0000   1.0000
     1.0000   1.0000   1.0000   1.0000   1.0000   1.0000   1.0000   1.0000
     1.0000   1.0000   1.0000   1.0000   1.0000   1.0000   1.0000   1.0000
     1.0000   1.0000   1.0000   1.0000   1.0000   1.0000   1.0000   1.0000
     1.0000   1.0000   1.0000   1.0000   1.0000   1.0000   1.0000   1.0000
     1.0000   1.0000   1.0000   1.0000   1.0000   1.0000   1.0000   1.0000
     1.0000   1.0000   1.0000   1.0000   1.0000   1.0000   1.0000   1.0000
     1.0000   1.0000   1.0000   1.0000   1.0000   1.0000   1.0000   1.0000
     1.0000   1.0000   1.0000   1.0000   1.0000   1.0000   1.0000   1.0000
     1.0000   1.0000   1.0000   1.0000   1.0000   1.0000   1.0000   1.0000
     1.0000   1.0000   1.0000   1.0000   1.0000   1.0000   1.0000   1.0000
     1.0000   1.0000   1.0000   1.0000   1.0000   1.0000   1.0000   1.0000
     1.0000   1.0000   1.0000   1.0000   1.0000   1.0000   1.0000   1.0000
     1.0000   1.0000   1.0000   1.0000   1.0000   1.0000   1.0000   1.0000
     1.0000   1.0000   1.0000   1.0000   1.0000   1.0000   1.0000   1.0000
     1.0000   1.0000   1.0000   1.0000   1.0000   1.0000   1.0000   1.0000
     1.0000   1.0000   1.0000   1.0000   1.0000   1.0000   1.0000   1.0000
     1.0000   1.0000   1.0000   1.0000   1.0000   1.0000   1.0000   1.0000
     1.0000   1.0000   1.0000   1.0000   1.0000   1.0000   1.0000   1.0000
     1.0000   1.0000   1.0000   1.0000   1.0000   1.0000   1.0000   1.0000
     1.0000   1.0000   1.0000   1.0000   1.0000   1.0000   1.0000   1.0000
     1.0000   1.0000   1.0000   1.0000   1.0000   1.0000   1.0000   1.0000
     1.0000   1.0000   1.0000   1.0000   1.0000   1.0000   1.0000   1.0000
     1.0000   1.0000   1.0000   1.0000   1.0000   1.0000   1.0000   1.0000
     1.0000   1.0000   1.0000   1.0000   1.0000   1.0000   1.0000   1.0000
     1.0000   1.0000   1.0000   1.0000   1.0000   1.0000   1.0000   1.0000
     1.0000   1.0000   1.0000   1.0000   1.0000   1.0000   1.0000   1.0000
     1.0000   1.0000   1.0000   1.0000   1.0000   1.0000   1.0000   1.0000
     1.0000   1.0000   1.0000   1.0000   1.0000   1.0000   1.0000   1.0000
     1.0000   1.0000   1.0000   1.0000   1.0000   1.0000   1.0000   1.0000
     1.0000   1.0000   1.0000   1.0000   1.0000   1.0000   1.0000   1.0000
     1.0000   1.0000   1.0000   1.0000   1.0000   1.0000   1.0000   1.0000
     1.0000   1.0000   1.0000   1.0000   1.0000   1.0000   1.0000   1.0000
     1.0000   1.0000   1.0000   1.0000   1.0000   1.0000   1.0000   1.0000
     1.0000   1.0000   1.0000   1.0000   1.0000   1.0000   1.0000   1.0000
     1.0000   1.0000   1.0000   1.0000   1.0000   1.0000   1.0000   1.0000
     1.0000   1.0000   1.0000   1.0000   1.0000   1.0000   1.0000   1.0000
     1.0000   1.0000   1.0000   1.0000   1.0000   1.0000   1.0000   1.0000
     1.0000   1.0023   1.0029   1.0048   1.0057   1.0063   1.0432   1.0769
     1.0754   0.9916   0.8082   0.7856   0.6442   0.0089   0.0035   0.0025
     0.0004   0.0000   0.0000   0.0000   0.0000   0.0000   0.0000   0.0000
     0.0000   0.0000   0.0000   0.0000   0.0000   0.0000   0.0000   0.0000
     0.0000   0.0000   0.0000   0.0000   0.0000   0.0000   0.0000   0.0000
     0.0000   0.0000   0.0000   0.0000   0.0000   0.0000   0.0000   0.0000
     0.0000   0.0000   0.0000   0.0000   0.0000   0.0000   0.0000   0.0000
     0.0000   0.0000   0.0000   0.0000   0.0000   0.0000   0.0000   0.0000
     0.0000   0.0000   0.0000   0.0000   0.0000   0.0000   0.0000   0.0000
     0.0000   0.0000   0.0000   0.0000   0.0000   0.0000   0.0000   0.0000
     0.0000   0.0000   0.0000   0.0000   0.0000   0.0000   0.0000   0.0000
     0.0000   0.0000   0.0000   0.0000   0.0000   0.0000   0.0000   0.0000
     0.0000   0.0000   0.0000   0.0000   0.0000   0.0000   0.0000   0.0000
     0.0000   0.0000   0.0000   0.0000   0.0000   0.0000   0.0000   0.0000
     0.0000   0.0000   0.0000   0.0000   0.0000   0.0000   0.0000   0.0000
     0.0000   0.0000   0.0000   0.0000   0.0000   0.0000   0.0000   0.0000
     0.0000   0.0000   0.0000   0.0000   0.0000   0.0000   0.0000   0.0000
     0.0000   0.0000   0.0000   0.0000   0.0000

          k = 0.3333 0.3107 0.1794 ( 44020 PWs)   bands (ev):

  -123.4924-123.4920-123.4916-123.4914-123.4911-123.4909-123.4907-123.4903
  -123.4282-123.4278-123.4273-123.4271-123.4263-123.4261-123.4257-123.4247
  -123.4201-123.4197-123.4193-123.4188-123.4186-123.4185-123.4181-123.4174
  -123.3072-123.3071-123.3068-123.3066-123.3063-123.3058-123.3037-123.3027
  -123.3015-123.3013-123.3012-123.3010-123.3008-123.3007-123.3005-123.3003
  -123.2668-123.2664-123.2658-123.2656-123.2653-123.2652-123.2650-123.2644
  -123.2196-123.2182-123.2177-123.2169-123.2167-123.2162-123.2140-123.2100
  -123.1502-123.1476-123.1472-123.1467-123.1459-123.1446-123.1394-123.1039
   -77.5922 -77.5905 -77.5858 -77.5851 -77.5848 -77.5844 -77.5840 -77.5836
   -77.5834 -77.5831 -77.5815 -77.5806 -77.5791 -77.5784 -77.5763 -77.5753
   -77.5746 -77.5742 -77.5737 -77.5727 -77.5671 -77.5663 -77.5634 -77.5613
   -77.5252 -77.5241 -77.5202 -77.5196 -77.5190 -77.5188 -77.5185 -77.5179
   -77.5176 -77.5167 -77.5162 -77.5160 -77.5155 -77.5151 -77.5149 -77.5145
   -77.5138 -77.5137 -77.5134 -77.5130 -77.5126 -77.5123 -77.5118 -77.5117
   -77.5113 -77.5110 -77.5109 -77.5107 -77.5105 -77.5100 -77.5091 -77.5086
   -77.5084 -77.5079 -77.5073 -77.5060 -77.5055 -77.5047 -77.5046 -77.5023
   -77.5006 -77.5003 -77.4970 -77.4957 -77.4916 -77.4904 -77.4876 -77.4853
   -77.4073 -77.4059 -77.4050 -77.4042 -77.4022 -77.4020 -77.4011 -77.4003
   -77.4003 -77.3996 -77.3983 -77.3972 -77.3967 -77.3960 -77.3956 -77.3945
   -77.3942 -77.3939 -77.3939 -77.3936 -77.3932 -77.3928 -77.3923 -77.3922
   -77.3919 -77.3917 -77.3910 -77.3906 -77.3899 -77.3891 -77.3888 -77.3882
   -77.3874 -77.3872 -77.3872 -77.3869 -77.3868 -77.3866 -77.3864 -77.3861
   -77.3826 -77.3815 -77.3790 -77.3777 -77.3774 -77.3769 -77.3766 -77.3764
   -77.3762 -77.3761 -77.3757 -77.3755 -77.3751 -77.3747 -77.3726 -77.3716
   -77.3580 -77.3569 -77.3482 -77.3474 -77.3472 -77.3466 -77.3451 -77.3440
   -77.3434 -77.3429 -77.3419 -77.3406 -77.3332 -77.3329 -77.3299 -77.3276
   -77.3182 -77.3172 -77.3161 -77.3156 -77.3152 -77.3150 -77.3146 -77.3136
   -77.3126 -77.3085 -77.3050 -77.3034 -77.3029 -77.3012 -77.3001 -77.2990
   -77.2979 -77.2974 -77.2954 -77.2923 -77.2906 -77.2899 -77.2870 -77.2835
   -77.2457 -77.2437 -77.2433 -77.2431 -77.2422 -77.2415 -77.2410 -77.2404
   -77.2401 -77.2397 -77.2385 -77.2380 -77.2370 -77.2363 -77.2347 -77.2314
   -77.2290 -77.2231 -77.2158 -77.2133 -77.2113 -77.2009 -77.1945 -77.1831
   -18.4137  -6.3272  -6.0454  -5.8792  -5.8750  -5.4707  -5.4589  -5.1680
    -5.0881  -5.0750  -5.0528  -5.0001  -4.9927  -4.9840  -4.9745  -4.9735
    -4.9602  -4.9577  -4.9513  -4.9271  -4.9143  -4.9118  -4.9072  -4.9034
    -4.8929  -4.8842  -4.8771  -4.8725  -4.8711  -4.8664  -4.8358  -4.8331
    -4.8188  -4.8011  -4.7977  -4.7961  -4.7952  -4.7934  -4.7876  -4.7812
    -4.7789  -4.7663  -4.7595  -4.7351  -4.7278  -4.7252  -4.7194  -4.7003
    -4.7001  -4.6986  -4.6982  -4.6911  -4.6759  -4.6706  -4.6694  -4.6668
    -4.6663  -4.6638  -4.6585  -4.6542  -4.6280  -4.6272  -4.6165  -4.6139
    -4.6076  -4.6031  -4.5918  -4.5873  -4.5826  -4.5820  -4.5811  -4.5807
    -4.5699  -4.5595  -4.5523  -4.5517  -4.5476  -4.5386  -4.5334  -4.5239
    -4.5233  -4.5140  -4.5132  -4.5116  -4.5074  -4.5060  -4.5054  -4.4916
    -4.4842  -4.4818  -4.4774  -4.4756  -4.4716  -4.4694  -4.4675  -4.4558
    -4.4499  -4.4428  -4.4423  -4.4374  -4.4340  -4.4319  -4.4300  -4.4293
    -4.4247  -4.4220  -4.4205  -4.4122  -4.4091  -4.4055  -4.4050  -4.4031
    -4.3852  -4.3824  -4.3721  -4.3673  -4.3655  -4.3623  -4.3540  -4.3534
    -4.3475  -4.3459  -4.3417  -4.3282  -4.3274  -4.3212  -4.3168  -4.3064
    -4.2955  -4.2931  -4.2879  -4.2840  -4.2750  -4.2730  -4.2695  -4.2688
[...]
     atom   65 type  2   force =     0.00000000    0.00000000    0.00000000
     atom   66 type  3   force =     0.00000000    0.00000000    0.00000000
     atom   67 type  3   force =     0.00000000    0.00000000    0.00000000
     The SCF correction term to forces
     atom    1 type  1   force =     0.00000000    0.00000000   -0.00000000
     atom    2 type  1   force =     0.00000000   -0.00000000   -0.00000000
     atom    3 type  1   force =     0.00000000    0.00000000    0.00000000
     atom    4 type  1   force =     0.00000000   -0.00000000   -0.00000000
     atom    5 type  1   force =     0.00000000    0.00000000    0.00000000
     atom    6 type  1   force =     0.00000000   -0.00000000   -0.00000000
     atom    7 type  1   force =     0.00000350    0.00005006    0.00004036
     atom    8 type  1   force =     0.00001948   -0.00003523    0.00000559
     atom    9 type  1   force =     0.00000000   -0.00000000   -0.00000000
     atom   10 type  1   force =     0.00000000    0.00000000   -0.00000000
     atom   11 type  1   force =     0.00000000    0.00000000   -0.00000000
     atom   12 type  1   force =     0.00000000   -0.00000000    0.00000000
     atom   13 type  1   force =     0.00000000    0.00000000    0.00000000
     atom   14 type  1   force =     0.00000000   -0.00000000    0.00000000
     atom   15 type  1   force =     0.00001943   -0.00001993    0.00001736
     atom   16 type  1   force =     0.00001811    0.00000412    0.00002358
     atom   17 type  1   force =    -0.00000000    0.00000000    0.00000000
     atom   18 type  1   force =    -0.00000000   -0.00000000   -0.00000000
     atom   19 type  1   force =    -0.00000000    0.00000000    0.00000000
     atom   20 type  1   force =    -0.00000000   -0.00000000   -0.00000000
     atom   21 type  1   force =    -0.00000000    0.00000000    0.00000000
     atom   22 type  1   force =    -0.00000000   -0.00000000   -0.00000000
     atom   23 type  1   force =     0.00000313    0.00004297    0.00002132
     atom   24 type  1   force =     0.00000748   -0.00004310    0.00002302
     atom   25 type  1   force =    -0.00000000   -0.00000000    0.00000000
     atom   26 type  1   force =    -0.00000000    0.00000000   -0.00000000
     atom   27 type  1   force =    -0.00000000    0.00000000   -0.00000000
     atom   28 type  1   force =    -0.00000000   -0.00000000    0.00000000
     atom   29 type  1   force =    -0.00000000    0.00000000   -0.00000000
     atom   30 type  1   force =    -0.00000000   -0.00000000   -0.00000000
     atom   31 type  1   force =    -0.00001035   -0.00001803   -0.00000891
     atom   32 type  1   force =    -0.00000973    0.00002349    0.00003263
     atom   33 type  1   force =     0.00000000    0.00000000   -0.00000000
     atom   34 type  1   force =     0.00000000   -0.00000000   -0.00000000
     atom   35 type  1   force =     0.00000000    0.00000000    0.00000000
     atom   36 type  1   force =     0.00000000   -0.00000000   -0.00000000
     atom   37 type  1   force =     0.00000000    0.00000000    0.00000000
     atom   38 type  1   force =     0.00000000   -0.00000000   -0.00000000
     atom   39 type  1   force =     0.00000175    0.00006277    0.00002826
     atom   40 type  1   force =    -0.00000733   -0.00003449   -0.00000802
     atom   41 type  1   force =     0.00000000    0.00000000    0.00000000
     atom   42 type  1   force =     0.00000000   -0.00000000   -0.00000000
     atom   43 type  1   force =     0.00000000    0.00000000   -0.00000000
     atom   44 type  1   force =     0.00000000   -0.00000000   -0.00000000
     atom   45 type  1   force =     0.00000000    0.00000000    0.00000000
     atom   46 type  1   force =     0.00000000   -0.00000000   -0.00000000
     atom   47 type  1   force =    -0.00000311    0.00000380    0.00000965
     atom   48 type  1   force =    -0.00001374   -0.00003410    0.00001884
     atom   49 type  1   force =    -0.00000000    0.00000000   -0.00000000
     atom   50 type  1   force =    -0.00000000   -0.00000000   -0.00000000
     atom   51 type  1   force =    -0.00000000    0.00000000    0.00000000
     atom   52 type  1   force =    -0.00000000   -0.00000000   -0.00000000
     atom   53 type  1   force =    -0.00000000    0.00000000    0.00000000
     atom   54 type  1   force =    -0.00000000   -0.00000000   -0.00000000
     atom   55 type  1   force =    -0.00000899    0.00008754    0.00002915
     atom   56 type  1   force =    -0.00001141   -0.00001870    0.00001459
     atom   57 type  1   force =    -0.00000000    0.00000000   -0.00000000
     atom   58 type  1   force =    -0.00000000   -0.00000000   -0.00000000
     atom   59 type  1   force =    -0.00000000    0.00000000    0.00000000
     atom   60 type  1   force =    -0.00000000   -0.00000000    0.00000000
     atom   61 type  1   force =    -0.00000000    0.00000000    0.00000000
     atom   62 type  1   force =    -0.00000000   -0.00000000   -0.00000000
     atom   63 type  1   force =    -0.00000414   -0.00002366    0.00001573
     atom   64 type  1   force =    -0.00000363   -0.00004728    0.00003490
     atom   65 type  2   force =     0.00000678   -0.00000252   -0.00000060
     atom   66 type  3   force =    -0.00000027   -0.00000039   -0.00000046
     atom   67 type  3   force =     0.00000044   -0.00000046   -0.00000034

     Total force =     0.003398     Total SCF correction =     0.000190


     Computing stress (Cartesian axis) and pressure


     negative rho (up, down):  1.323E-02 0.000E+00
          total   stress  (Ry/bohr**3)                   (kbar)     P=     -304.65
  -0.00219303   0.00000071   0.00000039         -322.61        0.10        0.06
   0.00000071  -0.00204488   0.00000018            0.10     -300.81        0.03
   0.00000039   0.00000018  -0.00197499            0.06        0.03     -290.53

     kinetic stress (kbar)  16128.82     -5.75     -3.05
                               -5.75  16105.92      3.55
                               -3.05      3.55  16180.29

     local   stress (kbar)**********    -13.83    -33.58
                              -13.83**********     43.72
                              -33.58     43.721310048.31

     nonloc. stress (kbar)  -1962.11      0.09     -0.07
                                0.09  -1923.15      0.06
                               -0.07      0.06  -1974.15

     hartree stress (kbar) 682863.61      2.45     12.83
                                2.45 690105.87    -17.22
                               12.83    -17.22-611107.55

     exc-cor stress (kbar)  -8034.20      0.07      0.04
                                0.07  -8029.78     -0.05
                                0.04     -0.05  -8037.76

     corecor stress (kbar)     -3.72      0.01      0.01
                                0.01     -3.73     -0.01
                                0.01     -0.01     -3.86

     ewald   stress (kbar) 604279.28     17.06     23.88
                               17.06 613885.98    -30.02
                               23.88    -30.02-705395.80

     hubbard stress (kbar)      0.00      0.00      0.00
                                0.00      0.00      0.00
                                0.00      0.00      0.00

     DFT-D   stress (kbar)      0.00      0.00      0.00
                                0.00      0.00      0.00
                                0.00      0.00      0.00

     XDM     stress (kbar)      0.00      0.00      0.00
                                0.00      0.00      0.00
                                0.00      0.00      0.00

     dft-nl  stress (kbar)      0.00      0.00      0.00
                                0.00      0.00      0.00
                                0.00      0.00      0.00

     TS-vdW  stress (kbar)      0.00      0.00      0.00
                                0.00      0.00      0.00
                                0.00      0.00      0.00

     MDB     stress (kbar)      0.00      0.00      0.00
                                0.00      0.00      0.00
                                0.00      0.00      0.00

     3D-RISM stress (kbar)      0.00      0.00      0.00
                                0.00      0.00      0.00
                                0.00      0.00      0.00

     Energy error            =      1.7E-05 Ry
     Gradient error          =      1.2E-03 Ry/Bohr

     number of scf cycles    =  26
     number of bfgs steps    =  25

     energy             old  =  -29579.1842034919 Ry
     energy             new  =  -29579.1842201670 Ry

     CASE: energy            _new < energy            _old

     new trust radius        =       0.0095160762 bohr
     new conv_thr            =       0.0000000123 Ry


ATOMIC_POSITIONS (angstrom)
Zn               1.2182902100        1.3071799380        0.7547006810    0   0   0
Zn               1.2182902100        6.5358996490        0.7547006810    0   0   0
Zn               1.2182902100        0.0000000010        3.0188027470    0   0   0
Zn               1.2182902100        5.2287197120        3.0188027470    0   0   0
Zn               1.2185726075       -1.3073880994        5.6729282852    0   0   0
Zn               1.2186851431        3.9215451479        5.6720151579    0   0   0
Zn               1.2195241261       -2.6168310277        8.3028972855
Zn               1.2249244829        2.6119144327        8.2902803185
Zn               1.2182902100        3.9215397940        0.7547006810    0   0   0
Zn               1.2182902100        9.1502595050        0.7547006810    0   0   0
Zn               1.2182902100        2.6143598570        3.0188027470    0   0   0
Zn               1.2182902100        7.8430795680        3.0188027470    0   0   0
Zn               1.2186883199        1.3072854268        5.6723424169    0   0   0
Zn               1.2185625130        6.5357747424        5.6727099542    0   0   0
Zn               1.2223061166        0.0028995760        8.3011876439
Zn               1.2215456535        5.2200966286        8.2995772628
Zn               6.0914510490        1.3071799380        0.7547006810    0   0   0
Zn               6.0914510490        6.5358996490        0.7547006810    0   0   0
Zn               6.0914510490        0.0000000010        3.0188027470    0   0   0
Zn               6.0914510490        5.2287197120        3.0188027470    0   0   0
Zn               6.0911338514       -1.3072242637        5.6748546444    0   0   0
Zn               6.0910857638        3.9213990650        5.6741431289    0   0   0
Zn               6.0939729769       -2.6189766188        8.3056067386
Zn               6.0907926273        2.6080988370        8.7628908077
Zn               6.0914510490        3.9215397940        0.7547006810    0   0   0
Zn               6.0914510490        9.1502595050        0.7547006810    0   0   0
Zn               6.0914510490        2.6143598570        3.0188027470    0   0   0
Zn               6.0914510490        7.8430795680        3.0188027470    0   0   0
Zn               6.0911030401        1.3076064174        5.6744400348    0   0   0
Zn               6.0911314819        6.5354481156        5.6746346244    0   0   0
Zn               6.0941556260        0.0037454691        8.2892201862
Zn               6.0941822058        5.2155698325        8.3425748773
Zn               3.6548706290       -0.0000000190        1.5094013850    0   0   0
Zn               3.6548706290        5.2287196920        1.5094013850    0   0   0
Zn               3.6548706290       -1.3071799560        3.7735034500    0   0   0
Zn               3.6548706290        3.9215397550        3.7735034500    0   0   0
Zn               3.6546710580       -2.6147701593        6.0778389286    0   0   0
Zn               3.6547432516        2.6146750712        6.0771464013    0   0   0
Zn               3.6649786557       -3.9244512413        8.4688968206
Zn               3.6866362014        1.3049383542        8.4639348471
Zn               3.6548706290        2.6143598370        1.5094013850    0   0   0
Zn               3.6548706290        7.8430795480        1.5094013850    0   0   0
Zn               3.6548706290        1.3071799000        3.7735034500    0   0   0
Zn               3.6548706290        6.5358996110        3.7735034500    0   0   0
Zn               3.6547437702        0.0001669099        6.0773502731    0   0   0
Zn               3.6547864959        5.2284186199        6.0775758154    0   0   0
Zn               3.6588022111       -1.3100690278        8.4697445106
Zn               3.6902337884        3.9122134391        8.4650126485
Zn               8.5280314680       -0.0000000190        1.5094013850    0   0   0
Zn               8.5280314680        5.2287196920        1.5094013850    0   0   0
Zn               8.5280314680       -1.3071799560        3.7735034500    0   0   0
Zn               8.5280314680        3.9215397550        3.7735034500    0   0   0
Zn               8.5281647867       -2.6147587956        6.0779299812    0   0   0
Zn               8.5281732184        2.6146472247        6.0772010317    0   0   0
Zn               8.5251476576       -3.9245973359        8.4691222957
Zn               8.5113630301        1.3048979729        8.4611424503
Zn               8.5280314680        2.6143598370        1.5094013850    0   0   0
Zn               8.5280314680        7.8430795480        1.5094013850    0   0   0
Zn               8.5280314680        1.3071799000        3.7735034500    0   0   0
Zn               8.5280314680        6.5358996110        3.7735034500    0   0   0
Zn               8.5282171944       -0.0000137934        6.0774321744    0   0   0
Zn               8.5281738077        5.2286143460        6.0776528160    0   0   0
Zn               8.5277840650       -1.3108382875        8.4699352614
Zn               8.5022584257        3.9122327032        8.4651146359
O                6.1818541542        2.3706597689       11.3487999060
H                7.1440226616        2.3297634188       11.5408755231
H                5.8742599029        1.4507733243       11.5031074507



     Writing config-only to output data dir ./tmp/Zn100_optimized_topsite_H2O.save/ :
     XML data file
     NEW-OLD atomic charge density approx. for the potential

     Check: negative core charge=   -0.000010

     negative rho (up, down):  1.323E-02 0.000E+00

     total cpu time spent up to now is    74963.2 secs

     Self-consistent Calculation

     iteration #  1     ecut=    30.00 Ry     beta= 0.70
     Davidson diagonalization with overlap

---- Real-time Memory Report at c_bands before calling an iterative solver
           314 MiB given to the printing process from OS
             0 MiB allocation reported by mallinfo(arena+hblkhd)
        138994 MiB available memory on the node where the printing process lives
------------------
     ethr =  1.00E-06,  avg # of iterations =  3.0

     Threshold (ethr) on eigenvalues was too large:
     Diagonalizing with lowered threshold

     Davidson diagonalization with overlap

---- Real-time Memory Report at c_bands before calling an iterative solver
           314 MiB given to the printing process from OS
             0 MiB allocation reported by mallinfo(arena+hblkhd)
        138961 MiB available memory on the node where the printing process lives
------------------
     ethr =  1.09E-09,  avg # of iterations =  3.0

     negative rho (up, down):  1.322E-02 0.000E+00

     total cpu time spent up to now is    75486.6 secs

     total energy              =  -29579.18423592 Ry
     estimated scf accuracy    <       0.00001431 Ry

     iteration #  2     ecut=    30.00 Ry     beta= 0.70
     Davidson diagonalization with overlap

---- Real-time Memory Report at c_bands before calling an iterative solver
           314 MiB given to the printing process from OS
             0 MiB allocation reported by mallinfo(arena+hblkhd)
        138858 MiB available memory on the node where the printing process lives
------------------
     ethr =  1.11E-09,  avg # of iterations =  3.0

     negative rho (up, down):  1.322E-02 0.000E+00

     total cpu time spent up to now is    75714.5 secs

     total energy              =  -29579.18422742 Ry
     estimated scf accuracy    <       0.00003529 Ry

     iteration #  3     ecut=    30.00 Ry     beta= 0.70
     Davidson diagonalization with overlap

---- Real-time Memory Report at c_bands before calling an iterative solver
           314 MiB given to the printing process from OS
             0 MiB allocation reported by mallinfo(arena+hblkhd)
        138837 MiB available memory on the node where the printing process lives
------------------
     ethr =  1.11E-09,  avg # of iterations =  2.0

     negative rho (up, down):  1.322E-02 0.000E+00

     total cpu time spent up to now is    75937.6 secs

     total energy              =  -29579.18421770 Ry
     estimated scf accuracy    <       0.00038722 Ry

     iteration #  4     ecut=    30.00 Ry     beta= 0.70
     Davidson diagonalization with overlap

---- Real-time Memory Report at c_bands before calling an iterative solver
           314 MiB given to the printing process from OS
             0 MiB allocation reported by mallinfo(arena+hblkhd)
        138823 MiB available memory on the node where the printing process lives
------------------
     ethr =  1.11E-09,  avg # of iterations =  2.0

     negative rho (up, down):  1.322E-02 0.000E+00

     total cpu time spent up to now is    76159.4 secs

     total energy              =  -29579.18423032 Ry
     estimated scf accuracy    <       0.00011141 Ry

     iteration #  5     ecut=    30.00 Ry     beta= 0.70
     Davidson diagonalization with overlap

---- Real-time Memory Report at c_bands before calling an iterative solver
           314 MiB given to the printing process from OS
             0 MiB allocation reported by mallinfo(arena+hblkhd)
        138810 MiB available memory on the node where the printing process lives
------------------
     ethr =  1.11E-09,  avg # of iterations =  2.0

     negative rho (up, down):  1.322E-02 0.000E+00

     total cpu time spent up to now is    76381.0 secs

     total energy              =  -29579.18423762 Ry
     estimated scf accuracy    <       0.00000309 Ry

     iteration #  6     ecut=    30.00 Ry     beta= 0.70
     Davidson diagonalization with overlap

---- Real-time Memory Report at c_bands before calling an iterative solver
           314 MiB given to the printing process from OS
             0 MiB allocation reported by mallinfo(arena+hblkhd)
        138797 MiB available memory on the node where the printing process lives
------------------
     ethr =  2.40E-10,  avg # of iterations =  2.0

     negative rho (up, down):  1.322E-02 0.000E+00

     total cpu time spent up to now is    76604.4 secs

     total energy              =  -29579.18423794 Ry
     estimated scf accuracy    <       0.00000203 Ry

     iteration #  7     ecut=    30.00 Ry     beta= 0.70
     Davidson diagonalization with overlap

---- Real-time Memory Report at c_bands before calling an iterative solver
           314 MiB given to the printing process from OS
             0 MiB allocation reported by mallinfo(arena+hblkhd)
        138785 MiB available memory on the node where the printing process lives
------------------
     ethr =  1.58E-10,  avg # of iterations =  2.0

     negative rho (up, down):  1.322E-02 0.000E+00

     total cpu time spent up to now is    76825.0 secs

     total energy              =  -29579.18423816 Ry
     estimated scf accuracy    <       0.00000033 Ry

     iteration #  8     ecut=    30.00 Ry     beta= 0.70
     Davidson diagonalization with overlap

---- Real-time Memory Report at c_bands before calling an iterative solver
           314 MiB given to the printing process from OS
             0 MiB allocation reported by mallinfo(arena+hblkhd)
        138772 MiB available memory on the node where the printing process lives
------------------
