
                                 *****************
                                 * O   R   C   A *
                                 *****************

                                            #,                                       
                                            ###                                      
                                            ####                                     
                                            #####                                    
                                            ######                                   
                                           ########,                                 
                                     ,,################,,,,,                         
                               ,,#################################,,                 
                          ,,##########################################,,             
                       ,#########################################, ''#####,          
                    ,#############################################,,   '####,        
                  ,##################################################,,,,####,       
                ,###########''''           ''''###############################       
              ,#####''   ,,,,##########,,,,          '''####'''          '####       
            ,##' ,,,,###########################,,,                        '##       
           ' ,,###''''                  '''############,,,                           
         ,,##''                                '''############,,,,        ,,,,,,###''
      ,#''                                            '''#######################'''  
     '                                                          ''''####''''         
             ,#######,   #######,   ,#######,      ##                                
            ,#'     '#,  ##    ##  ,#'     '#,    #''#        ,####,   ,####,        
            ##       ##  ##   ,#'  ##            #'  '#       #'       #'  '#        
            ##       ##  #######   ##           ,######,      #####,   #    #        
            '#,     ,#'  ##    ##  '#,     ,#' ,#      #,     #,   #   #,  ,#        
             '#######'   ##     ##  '#######'  #'      '#     '####' # '####'        



                #########################################################
                #                        -***-                          #
                #          Department of theory and spectroscopy        #
                #                                                       #
                #                      Frank Neese                      #
                #                                                       #
                #     Directorship, Architecture, Infrastructure        #
                #                    SHARK, DRIVERS                     #
                #        Core code/Algorithms in most modules           #
                #                                                       #
                #        Max Planck Institute fuer Kohlenforschung      #
                #                Kaiser Wilhelm Platz 1                 #
                #                 D-45470 Muelheim/Ruhr                 #
                #                      Germany                          #
                #                                                       #
                #                  All rights reserved                  #
                #                        -***-                          #
                #########################################################


                         Program Version 6.0.1  -  RELEASE   -


 With contributions from (in alphabetic order):
[Max-Planck-Institut fuer Kohlenforschung]                               
  Daniel Aravena         : Magnetic Suceptibility                        
  Michael Atanasov       : Ab Initio Ligand Field Theory (pilot matlab implementation)
  Alexander A. Auer      : GIAO ZORA, VPT2 properties, NMR spectrum      
  Ute Becker             : All parallelization in ORCA, NUMFREQ, NUMCALC 
  Giovanni Bistoni       : ED, misc. LED, open-shell LED, HFLD           
  Martin Brehm           : Molecular dynamics                            
  Dmytro Bykov           : pre 5.0 version of the SCF Hessian            
  Marcos Casanova-Páez   : Triplet and SCS-CIS(D). UHF-(DLPNO)-IP/EA/STEOM-CCSD. UHF-CVS-IP/STEOM-CCSD   
  Vijay G. Chilkuri      : MRCI spin determinant printing, contributions to CSF-ICE 
  Pauline Colinet        : FMM embedding                                 
  Dipayan Datta          : RHF DLPNO-CCSD density                        
  Achintya Kumar Dutta   : EOM-CC, STEOM-CC                              
  Nicolas Foglia         : Exact transition moments, OPA infrastructure, MCD improvements    
  Dmitry Ganyushin       : Spin-Orbit,Spin-Spin,Magnetic field MRCI      
  Miquel Garcia-Rates    : C-PCM and meta-GGA Hessian, CCSD/C-PCM, Gaussian charge scheme 
  Tiago L. C. Gouveia    : GS-ROHF, GS-ROCIS                             
  Yang Guo               : DLPNO-NEVPT2, F12-NEVPT2, CIM, IAO-localization        
  Andreas Hansen         : Spin unrestricted coupled pair/coupled cluster methods 
  Ingolf Harden          : AUTO-CI MPn and infrastructure                
  Benjamin Helmich-Paris : MC-RPA, TRAH-(SCF,CASSCF), AVAS, COSX integrals, SCF dyn. polar. 
  Lee Huntington         : MR-EOM, pCC                                   
  Robert Izsak           : Overlap fitted RIJCOSX, COSX-SCS-MP3, EOM     
  Riya Kayal             : Wick's Theorem for AUTO-CI, AUTO-CI UHF-CCSDT 
  Emily Kempfer          : AUTO-CI, RHF CISDT and CCSDT                  
  Christian Kollmar      : KDIIS, OOCD, Brueckner-CCSD(T), CCSD density, CASPT2, CASPT2-K, improved NEVPT2 
  Axel Koslowski         : Symmetry handling                             
  Simone Kossmann        : meta-GGA functionals, TD-DFT gradient, OOMP2, (MP2 Hessian; deprecated post 5.0) 
  Lucas Lang             : DCDCAS                                        
  Marvin Lechner         : AUTO-CI (C++ implementation), FIC-MRCC        
  Spencer Leger          : CASSCF response                               
  Dagmar Lenk            : GEPOL surface, SMD, ORCA-2-JSON               
  Dimitrios Liakos       : Extrapolation schemes; Compound Job, initial MDCI parallelization 
  Dimitrios Manganas     : Further ROCIS development; embedding schemes. LFT, Crystal Embedding 
  Dimitrios Pantazis     : SARC Basis sets                               
  Anastasios Papadopoulos: AUTO-CI, single reference methods and gradients 
  Taras Petrenko         : pre 6.0 DFT Hessian and TD-DFT gradient, (ASA, deprecated), ECA, 1-Electron XAS/XES, NRVS 
  Peter Pinski           : DLPNO-MP2, DLPNO-MP2 Gradient                 
  Christoph Reimann      : Effective Core Potentials                     
  Marius Retegan         : Local ZFS, SOC                                
  Christoph Riplinger    : Optimizer, TS searches, QM/MM, DLPNO-CCSD(T), (RO)-DLPNO pert. Triples 
  Michael Roemelt        : Original ROCIS implementation                 
  Masaaki Saitow         : Open-shell DLPNO-CCSD energy and density      
  Barbara Sandhoefer     : DKH picture change effects                    
  Kantharuban Sivalingam : CASSCF convergence/infrastructure, NEVPT2 and variants, FIC-MRCI 
  Bernardo de Souza      : ESD, SOC TD-DFT                               
  Georgi L. Stoychev     : AutoAux, RI-MP2 NMR, DLPNO-MP2 response, X2C  
  Van Anh Tran           : RI-MP2 g-tensors                              
  Willem Van den Heuvel  : Paramagnetic NMR                              
  Zikuan Wang            : NOTCH, Electric field optimization            
  Frank Wennmohs         : Technical directorship and infrastructure     
  Hang Xu                : AUTO-CI-Response properties                   
                                                                         
[FACCTs GmbH]                                                            
  Markus Bursch, Miquel Garcia-Rates, Christoph Riplinger, Bernardo de Souza, Georgi L. Stoychev 
                                                                 
  APM, Basis sets (HGBS, AHGBS, def-TZVP (Ac-Lr), def2-XVPD (La-Lu)), CI-OPT, improved COSX, DLPNO-Multilevel,           
  DOCKER, DRACO, updates on ESD, GOAT, IRC, LR-CPCM, MBIS, meta-GGA TD-DFT gradient, ML-optimized integration grids, 
  MM, NACMEs, nearIR, NEB, NEB-TS, NL-DFT gradient (VV10), 2- and 3-layer-ONIOM, interface openCOSMO-RS, QMMM,   
  Crystal-QMMM, SF, symmetry and pop. for TD-DFT, r2SCAN hybrids, SOLVATOR                                   
                                                                         
[Other institutions]                                                     
  V. Asgeirsson          : NEB                                           
  Christoph Bannwarth    : sTDA-DFT, sTD-DFT, PBEh-3c, B97-3c, D3        
  Sebastian Ehlert       : rSCAN, r2SCAN, r2SCAN-3c, D4, dhf basis sets  
  Marvin Friede          : D4 for Fr, Ra, Ac-Lr                          
  Lars Goerigk           : TD-DFT with DH, B97 family of functionals     
  Stefan Grimme          : VdW corrections, initial TS optimization, DFT functionals, gCP, sTDA/sTD-DF 
  Waldemar Hujo          : DFT-NL                                        
  H. Jonsson             : NEB                                           
  Holger Kruse           : gCP                                           
  Marcel Mueller         : wB97X-3c, vDZP basis set                      
  Hagen Neugebauer       : wr2SCAN                                       
  Tobias Risthaus        : range-separated hybrid DFT                    
  Lukas Wittmann         : regularized MP2, r2SCAN double-hybrids, wr2SCAN        
                                                                         
We gratefully acknowledge several colleagues who have allowed us to      
interface, adapt or use parts of their codes:                            
  Ed Valeev, F. Pavosevic, A. Kumar             : LibInt (2-el integral package), F12 methods 
  Garnet Chan, S. Sharma, J. Yang, R. Olivares  : DMRG                   
  Ulf Ekstrom                                   : XCFun DFT Library      
  Mihaly Kallay                                 : mrcc  (arbitrary order and MRCC methods)
  Frank Weinhold                                : gennbo (NPA and NBO analysis)           
  Simon Mueller                                 : openCOSMO-RS                            
  Christopher J. Cramer and Donald G. Truhlar   : smd solvation model                     
  S Lehtola, MJT Oliveira, MAL Marques          : LibXC Library                           
  Liviu Ungur et al                             : ANISO software                          


 Your calculation uses the libint2 library for the computation of 2-el integrals
 For citations please refer to: http://libint.valeyev.net

 Your ORCA version has been built with support for libXC version: 6.2.2
 For citations please refer to: https://libxc.gitlab.io

 This ORCA versions uses:
   CBLAS   interface :  Fast vector & matrix operations
   LAPACKE interface :  Fast linear algebra routines
   SCALAPACK package :  Parallel linear algebra routines
   Shared memory     :  Shared parallel matrices
   BLAS/LAPACK       :  OpenBLAS 0.3.27  USE64BITINT DYNAMIC_ARCH NO_AFFINITY SkylakeX SINGLE_THREADED
        Core in use  :  SkylakeX
   Copyright (c) 2011-2014, The OpenBLAS Project


NOTE: MaxCore=3000 MB was set to SCF,MP2,MDCI,CIPSI,MRCI and CIS
      => If you want to overwrite this, your respective input block should be placed after the MaxCore statement
Your calculation utilizes the atom-pairwise dispersion correction
with the Becke-Johnson damping scheme (D3BJ)


Warning: RI is on but no J-basis has been assigned. Assigning Def2/J (nothing to worry about!)
================================================================================

----- Orbital basis set information -----
Your calculation utilizes the basis: def2-SVP
   F. Weigend and R. Ahlrichs, Phys. Chem. Chem. Phys. 7, 3297 (2005).

----- AuxJ basis set information -----
Your calculation utilizes the auxiliary basis: def2/J
   F. Weigend, Phys. Chem. Chem. Phys. 8, 1057 (2006).

================================================================================
                                        WARNINGS
                       Please study these warnings very carefully!
================================================================================

WARNING: Old DensityContainer found on disk!
         Will remove this file - 
         If you want to keep old densities, please start your calculation with a different basename. 


WARNING: Geometry Optimization
  ===> : Switching off AutoStart
         For restart on a previous wavefunction, please use MOREAD

================================================================================
                                       INPUT FILE
================================================================================
NAME = 4nitroaniline_water_2_OPT.inp
|  1> ! B3LYP def2-SVP OPT TightSCF D3BJ
|  2> 
|  3> 
|  4> %maxcore 3000
|  5> 
|  6> %pal
|  7> nprocs 28
|  8> end
|  9> 
| 10> * xyz 0 1
| 11>   O           2.58215760639048     -1.03197358324782      1.33995818311281
| 12>   O           2.89923299107127     -0.25177811346717     -0.65598827804794
| 13>   N           2.21439583579082     -0.41381711656824      0.34752782900100
| 14>   N          -2.93106992985070      1.84786714724770      0.39167524182048
| 15>   C           0.87873547346540      0.16539190746703      0.36128153941159
| 16>   C          -1.69446823262223      1.28583410672089      0.39258292394664
| 17>   C           0.06843262509684      0.00916560040496      1.49176906207950
| 18>   C           0.41822724384552      0.87119075464716     -0.75610598691856
| 19>   C          -1.20189913291838      0.56197820219999      1.50732834008717
| 20>   C          -0.85168239399109      1.42382979548929     -0.74367359663927
| 21>   H           0.45564303996867     -0.54808280445043      2.34424848514233
| 22>   H           1.07326852070596      0.97254911932354     -1.62099300576715
| 23>   H          -1.83613081785840      0.44294433833326      2.38980884125092
| 24>   H          -1.22106744684475      1.97054528719078     -1.61353602879930
| 25>   H          -3.53176980354442      1.77255696008601      1.19989341939426
| 26>   H          -3.24858928300402      2.35897687793931     -0.42919570371979
| 27>   O          -3.46953008252131      3.44923673353289     -1.97297709743703
| 28>   H          -3.47177109964346      3.07575186084114     -2.86618596845500
| 29>   H          -2.86764171723612      4.20408348900961     -2.02493292826269
| 30> *           
| 31> 
| 32> 
| 33>                          ****END OF INPUT****
================================================================================

                       *****************************
                       * Geometry Optimization Run *
                       *****************************

Geometry optimization settings:
Update method            Update   .... BFGS
Choice of coordinates    CoordSys .... (2022) Redundant Internals
Initial Hessian          InHess   .... Almloef's Model
Max. no of cycles        MaxIter  .... 57

Convergence Tolerances:
Energy Change            TolE     ....  5.0000e-06 Eh
Max. Gradient            TolMAXG  ....  3.0000e-04 Eh/bohr
RMS Gradient             TolRMSG  ....  1.0000e-04 Eh/bohr
Max. Displacement        TolMAXD  ....  4.0000e-03 bohr
RMS Displacement         TolRMSD  ....  2.0000e-03 bohr
Strict Convergence                .... False

------------------------------------------------------------------------------
                        ORCA OPTIMIZATION COORDINATE SETUP
------------------------------------------------------------------------------

The optimization will be done in redundant internal coordinates (2022)
Making redundant internal coordinates   ...  (2022 redundants) done
Evaluating the initial hessian          ...  (Almloef) done
Evaluating the coordinates              ...  done
Calculating the B-matrix                .... done
Calculating the G-matrix                .... done
Diagonalizing the G-matrix              .... done
Small eigenvalue found = 1.066e-02
The first mode is                       ....   41
The number of degrees of freedom        ....   51

    -----------------------------------------------------------------
                    Redundant Internal Coordinates


    -----------------------------------------------------------------
         Definition                    Initial Value    Approx d2E/dq
    -----------------------------------------------------------------
      1. B(N   2,O   1)                  1.2257         0.916573   
      2. B(N   2,O   0)                  1.2257         0.916599   
      3. B(C   4,N   2)                  1.4559         0.439266   
      4. B(C   5,N   3)                  1.3583         0.628637   
      5. B(C   6,C   4)                  1.3996         0.603051   
      6. B(C   7,C   4)                  1.3996         0.603229   
      7. B(C   8,C   5)                  1.4175         0.564802   
      8. B(C   8,C   6)                  1.3855         0.635231   
      9. B(C   9,C   7)                  1.3850         0.636370   
     10. B(C   9,C   5)                  1.4214         0.556704   
     11. B(H  10,C   6)                  1.0896         0.360660   
     12. B(H  11,C   7)                  1.0897         0.360536   
     13. B(H  12,C   8)                  1.0932         0.355829   
     14. B(H  13,C   9)                  1.0918         0.357741   
     15. B(H  14,N   3)                  1.0098         0.433000   
     16. B(H  15,N   3)                  1.0178         0.420512   
     17. B(O  16,H  15)                  1.9028         0.016284   
     18. B(H  17,O  16)                  0.9682         0.504616   
     19. B(H  18,H  15)                  2.4690         0.000435   
     20. B(H  18,O  16)                  0.9668         0.507070   
     21. A(O   0,N   2,C   4)          117.9214         0.429110   
     22. A(O   1,N   2,C   4)          117.8871         0.429108   
     23. A(O   0,N   2,O   1)          124.1914         0.487346   
     24. A(C   5,N   3,H  15)          119.4944         0.357770   
     25. A(H  14,N   3,H  15)          119.8273         0.301908   
     26. A(C   5,N   3,H  14)          120.6744         0.359556   
     27. A(C   6,C   4,C   7)          120.7071         0.429786   
     28. A(N   2,C   4,C   7)          119.6663         0.403589   
     29. A(N   2,C   4,C   6)          119.6266         0.403568   
     30. A(N   3,C   5,C   8)          121.8823         0.425131   
     31. A(C   8,C   5,C   9)          118.1771         0.418725   
     32. A(N   3,C   5,C   9)          119.9393         0.424034   
     33. A(C   4,C   6,H  10)          118.9001         0.351351   
     34. A(C   8,C   6,H  10)          121.4071         0.354456   
     35. A(C   4,C   6,C   8)          119.6928         0.433797   
     36. A(C   4,C   7,C   9)          119.7193         0.433960   
     37. A(C   9,C   7,H  11)          121.4122         0.354543   
     38. A(C   4,C   7,H  11)          118.8685         0.351348   
     39. A(C   6,C   8,H  12)          119.8372         0.353647   
     40. A(C   5,C   8,H  12)          119.2630         0.346701   
     41. A(C   5,C   8,C   6)          120.8997         0.428721   
     42. A(C   5,C   9,C   7)          120.8030         0.427750   
     43. A(C   7,C   9,H  13)          120.1901         0.354076   
     44. A(C   5,C   9,H  13)          119.0064         0.346171   
     45. A(O  16,H  15,H  18)           20.8315         0.106297   
     46. A(N   3,H  15,H  18)          148.0401         0.125106   
     47. A(N   3,H  15,O  16)          168.0428         0.190326   
     48. A(H  15,O  16,H  18)          114.7498         0.194711   
     49. A(H  15,O  16,H  17)          121.8530         0.194595   
     50. A(H  17,O  16,H  18)          104.6581         0.318951   
     51. A(H  15,H  18,O  16)           44.4188         0.126668   
     52. D(C   6,C   4,N   2,O   1)   -179.6305         0.015195   
     53. D(C   7,C   4,N   2,O   0)   -179.5806         0.015195   
     54. D(C   6,C   4,N   2,O   0)      0.3593         0.015195   
     55. D(C   7,C   4,N   2,O   1)      0.4296         0.015195   
     56. D(C   9,C   5,N   3,H  14)   -178.7644         0.032070   
     57. D(C   9,C   5,N   3,H  15)      0.5059         0.032070   
     58. D(C   8,C   5,N   3,H  15)   -179.9241         0.032070   
     59. D(C   8,C   5,N   3,H  14)      0.8057         0.032070   
     60. D(H  10,C   6,C   4,C   7)    179.8425         0.025084   
     61. D(H  10,C   6,C   4,N   2)     -0.0967         0.025084   
     62. D(C   8,C   6,C   4,C   7)     -0.1838         0.025084   
     63. D(C   8,C   6,C   4,N   2)    179.8770         0.025084   
     64. D(C   9,C   7,C   4,C   6)      0.1274         0.025100   
     65. D(C   9,C   7,C   4,N   2)   -179.9334         0.025100   
     66. D(H  11,C   7,C   4,N   2)      0.0823         0.025100   
     67. D(H  11,C   7,C   4,C   6)   -179.8569         0.025100   
     68. D(H  12,C   8,C   6,H  10)      0.0839         0.028008   
     69. D(C   5,C   8,C   6,H  10)    179.9507         0.028008   
     70. D(C   5,C   8,C   6,C   4)     -0.0222         0.028008   
     71. D(H  12,C   8,C   5,C   9)   -179.8583         0.021866   
     72. D(H  12,C   8,C   5,N   3)      0.5643         0.021866   
     73. D(H  12,C   8,C   6,C   4)   -179.8891         0.028008   
     74. D(C   6,C   8,C   5,C   9)      0.2741         0.021866   
     75. D(C   6,C   8,C   5,N   3)   -179.3033         0.021866   
     76. D(C   5,C   9,C   7,H  11)   -179.8815         0.028115   
     77. D(C   5,C   9,C   7,C   4)      0.1346         0.028115   
     78. D(H  13,C   9,C   5,C   8)    179.4202         0.021220   
     79. D(H  13,C   9,C   5,N   3)     -0.9939         0.021220   
     80. D(C   7,C   9,C   5,C   8)     -0.3308         0.021220   
     81. D(H  13,C   9,C   7,C   4)   -179.6136         0.028115   
     82. D(C   7,C   9,C   5,N   3)    179.2550         0.021220   
     83. D(H  13,C   9,C   7,H  11)      0.3703         0.028115   
     84. D(H  18,H  15,N   3,H  14)    121.9213         0.223007   
     85. D(H  18,H  15,N   3,C   5)    -57.3552         0.223007   
     86. D(O  16,H  15,N   3,H  14)    139.3701         0.223007   
     87. D(O  16,H  15,N   3,C   5)    -39.9064         0.223007   
     88. D(H  18,O  16,H  15,N   3)    -26.5078         0.001654   
     89. D(H  17,O  16,H  15,H  18)    127.9136         0.001654   
     90. D(H  17,O  16,H  15,N   3)    101.4058         0.001654   
     91. D(H  15,H  18,O  16,H  17)   -136.1580         0.324085   
     92. D(O  16,H  18,H  15,N   3)    169.9392         0.001502   
    -----------------------------------------------------------------

Number of atoms                         .... 19
Number of degrees of freedom            .... 92


         *************************************************************
         *                GEOMETRY OPTIMIZATION CYCLE   1            *
         *************************************************************
---------------------------------
CARTESIAN COORDINATES (ANGSTROEM)
---------------------------------
  O      2.582158   -1.031974    1.339958
  O      2.899233   -0.251778   -0.655988
  N      2.214396   -0.413817    0.347528
  N     -2.931070    1.847867    0.391675
  C      0.878735    0.165392    0.361282
  C     -1.694468    1.285834    0.392583
  C      0.068433    0.009166    1.491769
  C      0.418227    0.871191   -0.756106
  C     -1.201899    0.561978    1.507328
  C     -0.851682    1.423830   -0.743674
  H      0.455643   -0.548083    2.344248
  H      1.073269    0.972549   -1.620993
  H     -1.836131    0.442944    2.389809
  H     -1.221067    1.970545   -1.613536
  H     -3.531770    1.772557    1.199893
  H     -3.248589    2.358977   -0.429196
  O     -3.469530    3.449237   -1.972977
  H     -3.471771    3.075752   -2.866186
  H     -2.867642    4.204083   -2.024933

----------------------------
CARTESIAN COORDINATES (A.U.)
----------------------------
  NO LB      ZA    FRAG     MASS         X           Y           Z
   0 O     8.0000    0    15.999    4.879571   -1.950147    2.532154
   1 O     8.0000    0    15.999    5.478756   -0.475792   -1.239638
   2 N     7.0000    0    14.007    4.184602   -0.782001    0.656732
   3 N     7.0000    0    14.007   -5.538919    3.491963    0.740159
   4 C     6.0000    0    12.011    1.660569    0.312545    0.682723
   5 C     6.0000    0    12.011   -3.202081    2.429874    0.741874
   6 C     6.0000    0    12.011    0.129319    0.017320    2.819035
   7 C     6.0000    0    12.011    0.790335    1.646312   -1.428833
   8 C     6.0000    0    12.011   -2.271260    1.061985    2.848438
   9 C     6.0000    0    12.011   -1.609446    2.690648   -1.405339
  10 H     1.0000    0     1.008    0.861041   -1.035726    4.429988
  11 H     1.0000    0     1.008    2.028184    1.837851   -3.063233
  12 H     1.0000    0     1.008   -3.469784    0.837043    4.516084
  13 H     1.0000    0     1.008   -2.307483    3.723791   -3.049141
  14 H     1.0000    0     1.008   -6.674078    3.349647    2.267470
  15 H     1.0000    0     1.008   -6.138944    4.457820   -0.811062
  16 O     8.0000    0    15.999   -6.556462    6.518113   -3.728386
  17 H     1.0000    0     1.008   -6.560697    5.812329   -5.416307
  18 H     1.0000    0     1.008   -5.419057    7.944566   -3.826569

--------------------------------
INTERNAL COORDINATES (ANGSTROEM)
--------------------------------
 O      0   0   0     0.000000000000     0.00000000     0.00000000
 O      1   0   0     2.166343473796     0.00000000     0.00000000
 N      1   2   0     1.225677014949    27.90438208     0.00000000
 N      3   1   2     5.620763528974   118.11558485   180.26725196
 C      3   1   2     1.455905512580   117.92144987   180.01089039
 C      4   3   1     1.358331962415     0.86489192   327.11452736
 C      5   3   1     1.399642598666   119.62656432     0.35931469
 C      5   3   1     1.399562333812   119.66626569   180.41944038
 C      7   5   3     1.385491479316   119.69283034   179.87696753
 C      8   5   3     1.385003596407   119.71931370   180.06662314
 H      7   5   3     1.089577375336   118.90007452   359.90330967
 H      8   5   3     1.089670660270   118.86846664     0.08231800
 H      9   7   5     1.093247787953   119.83717881   180.11094106
 H     10   8   5     1.091789264016   120.19013221   180.38643743
 H      4   3   1     1.009816114501   121.38835588     1.61867209
 H      4   3   1     1.017782297776   118.77188408   180.33027144
 O     16   4   3     1.902824842490   168.04275675   320.63790845
 H     17  16   4     0.968151878350   121.85302179   101.40576951
 H     17  16   4     0.966831234951   114.74976512   333.49220931

---------------------------
INTERNAL COORDINATES (A.U.)
---------------------------
 O      0   0   0     0.000000000000     0.00000000     0.00000000
 O      1   0   0     4.093795877481     0.00000000     0.00000000
 N      1   2   0     2.316193886896    27.90438208     0.00000000
 N      3   1   2    10.621703733293   118.11558485   180.26725196
 C      3   1   2     2.751262695643   117.92144987   180.01089039
 C      4   3   1     2.566875407917     0.86489192   327.11452736
 C      5   3   1     2.644941196848   119.62656432     0.35931469
 C      5   3   1     2.644789518257   119.66626569   180.41944038
 C      7   5   3     2.618199456789   119.69283034   179.87696753
 C      8   5   3     2.617277491706   119.71931370   180.06662314
 H      7   5   3     2.059002841102   118.90007452   359.90330967
 H      8   5   3     2.059179124080   118.86846664     0.08231800
 H      9   7   5     2.065938915746   119.83717881   180.11094106
 H     10   8   5     2.063182704946   120.19013221   180.38643743
 H      4   3   1     1.908275902028   121.38835588     1.61867209
 H      4   3   1     1.923329806750   118.77188408   180.33027144
 O     16   4   3     3.595817833128   168.04275675   320.63790845
 H     17  16   4     1.829541906123   121.85302179   101.40576951
 H     17  16   4     1.827046251778   114.74976512   333.49220931

---------------------
BASIS SET INFORMATION
---------------------
There are 4 groups of distinct atoms

 Group   1 Type O   : 7s4p1d contracted to 3s2p1d pattern {511/31/1}
 Group   2 Type N   : 7s4p1d contracted to 3s2p1d pattern {511/31/1}
 Group   3 Type C   : 7s4p1d contracted to 3s2p1d pattern {511/31/1}
 Group   4 Type H   : 4s1p contracted to 2s1p pattern {31/1}

Atom   0O    basis set group =>   1
Atom   1O    basis set group =>   1
Atom   2N    basis set group =>   2
Atom   3N    basis set group =>   2
Atom   4C    basis set group =>   3
Atom   5C    basis set group =>   3
Atom   6C    basis set group =>   3
Atom   7C    basis set group =>   3
Atom   8C    basis set group =>   3
Atom   9C    basis set group =>   3
Atom  10H    basis set group =>   4
Atom  11H    basis set group =>   4
Atom  12H    basis set group =>   4
Atom  13H    basis set group =>   4
Atom  14H    basis set group =>   4
Atom  15H    basis set group =>   4
Atom  16O    basis set group =>   1
Atom  17H    basis set group =>   4
Atom  18H    basis set group =>   4
---------------------------------
AUXILIARY/J BASIS SET INFORMATION
---------------------------------
There are 4 groups of distinct atoms

 Group   1 Type O   : 12s5p4d2f1g contracted to 6s4p3d1f1g pattern {711111/2111/211/2/1}
 Group   2 Type N   : 12s5p4d2f1g contracted to 6s4p3d1f1g pattern {711111/2111/211/2/1}
 Group   3 Type C   : 12s5p4d2f1g contracted to 6s4p3d1f1g pattern {711111/2111/211/2/1}
 Group   4 Type H   : 5s2p1d contracted to 3s1p1d pattern {311/2/1}

Atom   0O    basis set group =>   1
Atom   1O    basis set group =>   1
Atom   2N    basis set group =>   2
Atom   3N    basis set group =>   2
Atom   4C    basis set group =>   3
Atom   5C    basis set group =>   3
Atom   6C    basis set group =>   3
Atom   7C    basis set group =>   3
Atom   8C    basis set group =>   3
Atom   9C    basis set group =>   3
Atom  10H    basis set group =>   4
Atom  11H    basis set group =>   4
Atom  12H    basis set group =>   4
Atom  13H    basis set group =>   4
Atom  14H    basis set group =>   4
Atom  15H    basis set group =>   4
Atom  16O    basis set group =>   1
Atom  17H    basis set group =>   4
Atom  18H    basis set group =>   4
--------------------------------------------------------------------------
WARNING: There was an error initializing an OpenFabrics device.

  Local host:   ga01
  Local device: mlx5_0
--------------------------------------------------------------------------


           ************************************************************
           *        Program running with 28 parallel MPI-processes    *
           *              working on a common directory               *
           ************************************************************
------------------------------------------------------------------------------
                             ORCA STARTUP CALCULATIONS
                           -- RI-GTO INTEGRALS CHOSEN --
------------------------------------------------------------------------------
------------------------------------------------------------------------------
                   ___                                                        
                  /   \      - P O W E R E D   B Y -                         
                 /     \                                                     
                 |  |  |   _    _      __       _____    __    __             
                 |  |  |  | |  | |    /  \     |  _  \  |  |  /  |          
                  \  \/   | |  | |   /    \    | | | |  |  | /  /          
                 / \  \   | |__| |  /  /\  \   | |_| |  |  |/  /          
                |  |  |   |  __  | /  /__\  \  |    /   |      \           
                |  |  |   | |  | | |   __   |  |    \   |  |\   \          
                \     /   | |  | | |  |  |  |  | |\  \  |  | \   \       
                 \___/    |_|  |_| |__|  |__|  |_| \__\ |__|  \__/        
                                                                              
                      - O R C A' S   B I G   F R I E N D -                    
                                      &                                       
                       - I N T E G R A L  F E E D E R -                       
                                                                              
 v1 FN, 2020, v2 2021, v3 2022-2024                                           
------------------------------------------------------------------------------


----------------------
SHARK INTEGRAL PACKAGE
----------------------

Number of atoms                             ...     19
Number of basis functions                   ...    194
Number of shells                            ...     90
Maximum angular momentum                    ...      2
Integral batch strategy                     ... SHARK/LIBINT Hybrid
RI-J (if used) integral strategy            ... SPLIT-RIJ (Revised 2003 algorithm where possible)
Printlevel                                  ...      1
Contraction scheme used                     ... SEGMENTED contraction
Prescreening option                         ... SCHWARTZ
   Thresh                                   ... 2.500e-11
   Tcut                                     ... 2.500e-12
   Tpresel                                  ... 2.500e-12 
Coulomb Range Separation                    ... NOT USED
Exchange Range Separation                   ... NOT USED
Multipole approximations                    ... NOT USED
Finite Nucleus Model                        ... NOT USED
CABS basis                                  ... NOT available
Auxiliary Coulomb fitting basis             ... AVAILABLE
   # of basis functions in Aux-J            ...    627
   # of shells in Aux-J                     ...    205
   Maximum angular momentum in Aux-J        ...      4
Auxiliary J/K fitting basis                 ... NOT available
Auxiliary Correlation fitting basis         ... NOT available
Auxiliary 'external' fitting basis          ... NOT available

Checking pre-screening integrals            ... done (  0.0 sec) Dimension = 90
Check shell pair data                       ... done (  0.0 sec)
Shell pair information
Shell pair cut-off parameter TPreSel        ...   2.5e-12
Total number of shell pairs                 ...      4095
Shell pairs after pre-screening             ...      3446
Total number of primitive shell pairs       ...     15045
Primitive shell pairs kept                  ...      8866
          la=0 lb=0:   1047 shell pairs
          la=1 lb=0:   1253 shell pairs
          la=1 lb=1:    395 shell pairs
          la=2 lb=0:    434 shell pairs
          la=2 lb=1:    265 shell pairs
          la=2 lb=2:     52 shell pairs

Calculating one electron integrals          ... done (  0.0 sec)
Calculating RI/J V-Matrix + Cholesky decomp.... done (  0.0 sec)
Calculating Nuclear repulsion               ... done (  0.0 sec) ENN=    581.698398867829 Eh

Diagonalization of the overlap matrix:
Smallest eigenvalue                        ... 2.596e-04
Time for diagonalization                   ...    0.003 sec
Threshold for overlap eigenvalues          ... 1.000e-07
Number of eigenvalues below threshold      ... 0
Time for construction of square roots      ...    0.002 sec
Total time needed                          ...    0.008 sec

-------------------
DFT GRID GENERATION
-------------------

General Integration Accuracy     IntAcc      ... 4.388
Radial Grid Type                 RadialGrid  ... OptM3 with GC (2021)
Angular Grid (max. ang.)         AngularGrid ... 4 (Lebedev-302)
Angular grid pruning method      GridPruning ... 4 (adaptive)
Weight generation scheme         WeightScheme... mBecke (2022)
Basis function cutoff            BFCut       ... 1.0000e-11
Integration weight cutoff        WCut        ... 1.0000e-14
Partially contracted basis set               ... off
Rotationally invariant grid construction     ... off
Angular grids for H and He will be reduced by one unit

Total number of grid points                  ...    92276
Total number of batches                      ...     1450
Average number of points per batch           ...       63
Average number of grid points per atom       ...     4857

--------------------
COSX GRID GENERATION
--------------------

GRIDX 1
-------
General Integration Accuracy     IntAcc      ... 3.816
Radial Grid Type                 RadialGrid  ... OptM3 with GC (2021)
Angular Grid (max. ang.)         AngularGrid ... 1 (Lebedev-50)
Angular grid pruning method      GridPruning ... 4 (adaptive)
Weight generation scheme         WeightScheme... mBecke (2022)
Basis function cutoff            BFCut       ... 1.0000e-11
Integration weight cutoff        WCut        ... 1.0000e-14
Partially contracted basis set               ... on
Rotationally invariant grid construction     ... off
Angular grids for H and He will be reduced by one unit

Total number of grid points                  ...    11762
Total number of batches                      ...      102
Average number of points per batch           ...      115
Average number of grid points per atom       ...      619
UseSFitting                                  ... on

GRIDX 2
-------
General Integration Accuracy     IntAcc      ... 4.020
Radial Grid Type                 RadialGrid  ... OptM3 with GC (2021)
Angular Grid (max. ang.)         AngularGrid ... 2 (Lebedev-110)
Angular grid pruning method      GridPruning ... 4 (adaptive)
Weight generation scheme         WeightScheme... mBecke (2022)
Basis function cutoff            BFCut       ... 1.0000e-11
Integration weight cutoff        WCut        ... 1.0000e-14
Partially contracted basis set               ... on
Rotationally invariant grid construction     ... off
Angular grids for H and He will be reduced by one unit

Total number of grid points                  ...    26018
Total number of batches                      ...      211
Average number of points per batch           ...      123
Average number of grid points per atom       ...     1369
UseSFitting                                  ... on

GRIDX 3
-------
General Integration Accuracy     IntAcc      ... 4.338
Radial Grid Type                 RadialGrid  ... OptM3 with GC (2021)
Angular Grid (max. ang.)         AngularGrid ... 3 (Lebedev-194)
Angular grid pruning method      GridPruning ... 4 (adaptive)
Weight generation scheme         WeightScheme... mBecke (2022)
Basis function cutoff            BFCut       ... 1.0000e-11
Integration weight cutoff        WCut        ... 1.0000e-14
Partially contracted basis set               ... on
Rotationally invariant grid construction     ... off
Angular grids for H and He will be reduced by one unit

Total number of grid points                  ...    57196
Total number of batches                      ...      457
Average number of points per batch           ...      125
Average number of grid points per atom       ...     3010
UseSFitting                                  ... on
Initializing property integral containers    ... done (  0.0 sec)

SHARK setup successfully completed in   0.7 seconds

Maximum memory used throughout the entire STARTUP-calculation: 23.4 MB
[ga01:1147305] 27 more processes have sent help message help-mpi-btl-openib.txt / error in device init
[ga01:1147305] Set MCA parameter "orte_base_help_aggregate" to 0 to see all help / error messages
--------------------------------------------------------------------------
WARNING: There was an error initializing an OpenFabrics device.

  Local host:   ga01
  Local device: mlx5_0
--------------------------------------------------------------------------


           ************************************************************
           *        Program running with 28 parallel MPI-processes    *
           *              working on a common directory               *
           ************************************************************
-------------------------------------------------------------------------------
                                 ORCA GUESS
                   Start orbitals & Density for SCF / CASSCF
-------------------------------------------------------------------------------

------------
SCF SETTINGS
------------
Hamiltonian:
 Density Functional     Method          .... DFT(GTOs)
 Exchange Functional    Exchange        .... B88
   X-Alpha parameter    XAlpha          ....  0.666667
   Becke's b parameter  XBeta           ....  0.004200
 Correlation Functional Correlation     .... LYP
 LDA part of GGA corr.  LDAOpt          .... VWN-5
 Gradients option       PostSCFGGA      .... off
 Hybrid DFT is turned on
   Fraction HF Exchange ScalHFX         ....  0.200000
   Scaling of DF-GGA-X  ScalDFX         ....  0.720000
   Scaling of DF-GGA-C  ScalDFC         ....  0.810000
   Scaling of DF-LDA-C  ScalLDAC        ....  1.000000
   Perturbative correction              ....  0.000000
   NL short-range parameter             ....  4.800000
 RI-approximation to the Coulomb term is turned on
   Number of AuxJ basis functions       .... 627
   RIJ-COSX (HFX calculated with COS-X)).... on


General Settings:
 Integral files         IntName         .... 4nitroaniline_water_2_OPT
 Hartree-Fock type      HFTyp           .... RHF
 Total Charge           Charge          ....    0
 Multiplicity           Mult            ....    1
 Number of Electrons    NEL             ....   82
 Basis Dimension        Dim             ....  194
 Nuclear Repulsion      ENuc            ....    581.6983988678 Eh

Convergence Acceleration:
 AO-DIIS                CNVDIIS         .... on
   Start iteration      DIISMaxIt       ....    12
   Startup error        DIISStart       ....  0.200000
   # of expansion vecs  DIISMaxEq       ....     5
   Bias factor          DIISBfac        ....   1.050
   Max. coefficient     DIISMaxC        ....  10.000
 MO-DIIS                CNVKDIIS        .... off
 Trust-Rad. Augm. Hess. CNVTRAH         .... auto
   Auto Start mean grad. ratio tolernc. ....  1.125000
   Auto Start start iteration           ....    50
   Auto Start num. interpolation iter.  ....    10
   Max. Number of Micro iterations      ....    24
   Max. Number of Macro iterations      .... Maxiter - #DIIS iter
   Number of Davidson start vectors     ....     2
   Converg. threshold    (grad. norm)   ....   1.000e-05
   Grad. Scal. Fac. for Micro threshold ....   0.100
   Minimum threshold for Micro iter.    ....   1.000e-02
   NR start threshold (gradient norm)   ....   1.000e-04
   Initial trust radius                 ....   0.400
   Minimum AH scaling param. (alpha)    ....   1.000
   Maximum AH scaling param. (alpha)    .... 1000.000
   Quad. conv. algorithm                .... NR
   White noise on init. David. guess    .... on
   Maximum white noise                  ....   0.010
   Pseudo random numbers                .... off
   Inactive MOs                         .... canonical
   Orbital update algorithm             .... Taylor
   Preconditioner                       .... Diag
   Full preconditioner red. dimension   ....   250
 SOSCF                  CNVSOSCF        .... on
   Start iteration      SOSCFMaxIt      ....   150
   Startup grad/error   SOSCFStart      ....  0.003300
   Hessian update       SOSCFHessUp     .... L-BFGS
 Level Shifting         CNVShift        .... on
   Level shift para.    LevelShift      ....    0.2500
   Turn off err/grad.   ShiftErr        ....    0.0010
 Zerner damping         CNVZerner       .... off
 Static damping         CNVDamp         .... on
   Fraction old density DampFac         ....    0.7000
   Max. Damping (<1)    DampMax         ....    0.9800
   Min. Damping (>=0)   DampMin         ....    0.0000
   Turn off err/grad.   DampErr         ....    0.1000

SCF Procedure:
 Maximum # iterations   MaxIter         ....   125
 SCF integral mode      SCFMode         .... Direct
   Integral package                     .... SHARK and LIBINT hybrid scheme
 Reset frequency        DirectResetFreq ....    20
 Integral Threshold     Thresh          ....  2.500e-11 Eh
 Primitive CutOff       TCut            ....  2.500e-12 Eh

Convergence Tolerance:
 Convergence Check Mode ConvCheckMode   .... Total+1el-Energy
 Convergence forced     ConvForced      .... 0
 Energy Change          TolE            ....  1.000e-08 Eh
 1-El. energy change                    ....  1.000e-05 Eh
 Orbital Gradient       TolG            ....  1.000e-05
 Orbital Rotation angle TolX            ....  1.000e-05
 DIIS Error             TolErr          ....  5.000e-07

------------------------------
INITIAL GUESS: MODEL POTENTIAL
------------------------------
Loading Hartree-Fock densities                     ... done
Calculating cut-offs                               ... done
Initializing the effective Hamiltonian             ... done
Setting up the integral package (SHARK)            ... done
Starting the Coulomb interaction                   ... done (   0.0 sec)
Making the grid                                    ... done (   0.1 sec)
Mapping shells                                     ... done
Starting the XC term evaluation                    ... done (   0.0 sec)
  promolecular density results
     # of electrons  =     82.002133561
     EX              =    -70.967747413
     EC              =     -2.833843518
     EX+EC           =    -73.801590931
Transforming the Hamiltonian                       ... done (   0.0 sec)
Diagonalizing the Hamiltonian                      ... done (   0.0 sec)
Back transforming the eigenvectors                 ... done (   0.0 sec)
Now organizing SCF variables                       ... done
                      ------------------
                      INITIAL GUESS DONE (   0.1 sec)
                      ------------------
             **** ENERGY FILE WAS UPDATED (4nitroaniline_water_2_OPT.en.tmp) ****
Finished Guess after   0.7 sec
Maximum memory used throughout the entire GUESS-calculation: 13.4 MB
[ga01:1147423] 27 more processes have sent help message help-mpi-btl-openib.txt / error in device init
[ga01:1147423] Set MCA parameter "orte_base_help_aggregate" to 0 to see all help / error messages
--------------------------------------------------------------------------
WARNING: There was an error initializing an OpenFabrics device.

  Local host:   ga01
  Local device: mlx5_0
--------------------------------------------------------------------------


           ************************************************************
           *        Program running with 28 parallel MPI-processes    *
           *              working on a common directory               *
           ************************************************************

-------------------------------------------------------------------------------------------
                                      ORCA LEAN-SCF
                              memory conserving SCF solver
-------------------------------------------------------------------------------------------

----------------------------------------D-I-I-S--------------------------------------------
Iteration    Energy (Eh)           Delta-E    RMSDP     MaxDP     DIISErr   Damp  Time(sec)
-------------------------------------------------------------------------------------------
               ***  Starting incremental Fock matrix formation  ***
    1    -567.4575321100234078     0.00e+00  4.04e-03  8.68e-02  2.81e-01  0.700   0.3
    2    -567.6340803042204470    -1.77e-01  2.51e-03  4.60e-02  1.16e-01  0.700   0.2
                               ***Turning on AO-DIIS***
    3    -567.6957210326864924    -6.16e-02  1.08e-03  1.74e-02  3.57e-02  0.700   0.2
    4    -567.7351441650422430    -3.94e-02  1.88e-03  3.00e-02  1.53e-02  0.000   0.2
    5    -567.8237123906225179    -8.86e-02  3.52e-04  6.31e-03  5.87e-03  0.000   0.2
                              *** Initializing SOSCF ***
---------------------------------------S-O-S-C-F--------------------------------------
Iteration    Energy (Eh)           Delta-E    RMSDP     MaxDP     MaxGrad    Time(sec)
--------------------------------------------------------------------------------------
    6    -567.8242099523316710    -4.98e-04  1.21e-04  2.98e-03  1.55e-03     0.2
               *** Restarting incremental Fock matrix formation ***
    7    -567.8242037504704740     6.20e-06  9.71e-05  2.39e-03  4.09e-04     0.3
    8    -567.8242027219711190     1.03e-06  4.06e-05  7.34e-04  6.02e-04     0.2
    9    -567.8242108175965086    -8.10e-06  2.04e-05  4.64e-04  1.23e-04     0.2
   10    -567.8242105570492413     2.61e-07  1.03e-05  4.09e-04  2.15e-04     0.2
   11    -567.8242111237874497    -5.67e-07  1.02e-05  2.41e-04  1.11e-04     0.2
   12    -567.8242110085733430     1.15e-07  6.12e-06  1.66e-04  1.17e-04     0.2
   13    -567.8242112261963257    -2.18e-07  3.52e-06  1.15e-04  3.53e-05     0.2
   14    -567.8242111985551901     2.76e-08  2.20e-06  6.09e-05  4.81e-05     0.2
   15    -567.8242112382071127    -3.97e-08  7.08e-07  1.41e-05  4.94e-06     0.2
   16    -567.8242112398555719    -1.65e-09  3.66e-07  7.35e-06  6.95e-06     0.2
                 **** Energy Check signals convergence ****

               *****************************************************
               *                     SUCCESS                       *
               *           SCF CONVERGED AFTER  16 CYCLES          *
               *****************************************************

Recomputing exchange energy using gridx3       ... done (    0.279 sec)
Old exchange energy                            :    -14.332323760 Eh
New exchange energy                            :    -14.332326471 Eh
Exchange energy change after final integration :     -0.000002711 Eh
Total energy after final integration           :   -567.824213951 Eh
             **** ENERGY FILE WAS UPDATED (4nitroaniline_water_2_OPT.en.tmp) ****

----------------
TOTAL SCF ENERGY
----------------

Total Energy       :       -567.82421395110987 Eh          -15451.28239 eV

Components:
Nuclear Repulsion  :        581.69839886782904 Eh           15828.81815 eV
Electronic Energy  :      -1149.52261010768461 Eh          -31280.10047 eV
One Electron Energy:      -1927.74181378643539 Eh          -52456.52159 eV
Two Electron Energy:        778.21920367875089 Eh           21176.42112 eV

Virial components:
Potential Energy   :      -1130.92069970345256 Eh          -30773.91675 eV
Kinetic Energy     :        563.09648575234257 Eh           15322.63436 eV
Virial Ratio       :          2.00839594690855

DFT components:
N(Alpha)           :       40.999977399757 electrons
N(Beta)            :       40.999977399757 electrons
N(Total)           :       81.999954799514 electrons
E(X)               :      -57.074251711591 Eh       
E(C)               :       -3.340663402963 Eh       
E(XC)              :      -60.414915114554 Eh       

---------------
SCF CONVERGENCE
---------------

  Last Energy change         ...    1.6485e-09  Tolerance :   1.0000e-08
  Last MAX-Density change    ...    7.3496e-06  Tolerance :   1.0000e-07
  Last RMS-Density change    ...    3.6551e-07  Tolerance :   5.0000e-09
  Last DIIS Error            ...    1.5499e-03  Tolerance :   5.0000e-07
  Last Orbital Gradient      ...    6.9542e-06  Tolerance :   1.0000e-05
  Last Orbital Rotation      ...    3.7424e-06  Tolerance :   1.0000e-05


----------------
ORBITAL ENERGIES
----------------

  NO   OCC          E(Eh)            E(eV) 
   0   2.0000     -19.177466      -521.8454 
   1   2.0000     -19.131627      -520.5980 
   2   2.0000     -19.131559      -520.5962 
   3   2.0000     -14.530712      -395.4008 
   4   2.0000     -14.341198      -390.2438 
   5   2.0000     -10.245379      -278.7909 
   6   2.0000     -10.216835      -278.0142 
   7   2.0000     -10.200880      -277.5801 
   8   2.0000     -10.200714      -277.5755 
   9   2.0000     -10.191991      -277.3382 
  10   2.0000     -10.191885      -277.3353 
  11   2.0000      -1.191332       -32.4178 
  12   2.0000      -1.033823       -28.1318 
  13   2.0000      -1.016160       -27.6511 
  14   2.0000      -0.922433       -25.1007 
  15   2.0000      -0.851815       -23.1791 
  16   2.0000      -0.766223       -20.8500 
  17   2.0000      -0.749234       -20.3877 
  18   2.0000      -0.666248       -18.1295 
  19   2.0000      -0.622113       -16.9286 
  20   2.0000      -0.576564       -15.6891 
  21   2.0000      -0.566378       -15.4119 
  22   2.0000      -0.539697       -14.6859 
  23   2.0000      -0.531555       -14.4644 
  24   2.0000      -0.514985       -14.0135 
  25   2.0000      -0.512550       -13.9472 
  26   2.0000      -0.480330       -13.0704 
  27   2.0000      -0.447375       -12.1737 
  28   2.0000      -0.445986       -12.1359 
  29   2.0000      -0.431287       -11.7359 
  30   2.0000      -0.419573       -11.4172 
  31   2.0000      -0.406355       -11.0575 
  32   2.0000      -0.397002       -10.8030 
  33   2.0000      -0.358390        -9.7523 
  34   2.0000      -0.342397        -9.3171 
  35   2.0000      -0.324726        -8.8362 
  36   2.0000      -0.285467        -7.7680 
  37   2.0000      -0.284398        -7.7389 
  38   2.0000      -0.265663        -7.2291 
  39   2.0000      -0.265144        -7.2149 
  40   2.0000      -0.212940        -5.7944 
  41   0.0000      -0.060082        -1.6349 
  42   0.0000      -0.014412        -0.3922 
  43   0.0000       0.006333         0.1723 
  44   0.0000       0.031764         0.8644 
  45   0.0000       0.061680         1.6784 
  46   0.0000       0.079874         2.1735 
  47   0.0000       0.089776         2.4429 
  48   0.0000       0.115147         3.1333 
  49   0.0000       0.143989         3.9181 
  50   0.0000       0.159435         4.3385 
  51   0.0000       0.166179         4.5220 
*Only the first 10 virtual orbitals were printed.

                    ********************************
                    * MULLIKEN POPULATION ANALYSIS *
                    ********************************

-----------------------
MULLIKEN ATOMIC CHARGES
-----------------------
   0 O :   -0.265147
   1 O :   -0.266728
   2 N :    0.236810
   3 N :   -0.048924
   4 C :    0.157203
   5 C :    0.097688
   6 C :   -0.018753
   7 C :   -0.015064
   8 C :   -0.040186
   9 C :   -0.031152
  10 H :   -0.001045
  11 H :   -0.004966
  12 H :   -0.037374
  13 H :   -0.077403
  14 H :    0.109041
  15 H :    0.103955
  16 O :   -0.251137
  17 H :    0.177110
  18 H :    0.176070
Sum of atomic charges:   -0.0000000

--------------------------------
MULLIKEN REDUCED ORBITAL CHARGES
--------------------------------
  0 O s       :     3.856749  s :     3.856749
      pz      :     1.296344  p :     4.386625
      px      :     1.720746
      py      :     1.369535
      dz2     :     0.006011  d :     0.021773
      dxz     :     0.004502
      dyz     :     0.006898
      dx2y2   :     0.002410
      dxy     :     0.001951

  1 O s       :     3.856388  s :     3.856388
      pz      :     1.285990  p :     4.388585
      px      :     1.557787
      py      :     1.544807
      dz2     :     0.006201  d :     0.021755
      dxz     :     0.007504
      dyz     :     0.003882
      dx2y2   :     0.001880
      dxy     :     0.002288

  2 N s       :     3.292285  s :     3.292285
      pz      :     1.058733  p :     3.355915
      px      :     1.140387
      py      :     1.156794
      dz2     :     0.035774  d :     0.114990
      dxz     :     0.028239
      dyz     :     0.023857
      dx2y2   :     0.013494
      dxy     :     0.013627

  3 N s       :     3.275957  s :     3.275957
      pz      :     1.101489  p :     3.758062
      px      :     1.135869
      py      :     1.520703
      dz2     :     0.002522  d :     0.014906
      dxz     :     0.004818
      dyz     :     0.001549
      dx2y2   :     0.003026
      dxy     :     0.002991

  4 C s       :     2.997234  s :     2.997234
      pz      :     0.897705  p :     2.797759
      px      :     0.855192
      py      :     1.044862
      dz2     :     0.012925  d :     0.047804
      dxz     :     0.010092
      dyz     :     0.007160
      dx2y2   :     0.008637
      dxy     :     0.008989

  5 C s       :     2.976708  s :     2.976708
      pz      :     1.029306  p :     2.862225
      px      :     0.909836
      py      :     0.923084
      dz2     :     0.011996  d :     0.063379
      dxz     :     0.014577
      dyz     :     0.007755
      dx2y2   :     0.014812
      dxy     :     0.014238

  6 C s       :     3.276588  s :     3.276588
      pz      :     0.905716  p :     2.706530
      px      :     0.912805
      py      :     0.888010
      dz2     :     0.006763  d :     0.035634
      dxz     :     0.010272
      dyz     :     0.005428
      dx2y2   :     0.005946
      dxy     :     0.007224

  7 C s       :     3.273840  s :     3.273840
      pz      :     0.901835  p :     2.705570
      px      :     0.855741
      py      :     0.947995
      dz2     :     0.006695  d :     0.035654
      dxz     :     0.010664
      dyz     :     0.005062
      dx2y2   :     0.007443
      dxy     :     0.005790

  8 C s       :     3.232830  s :     3.232830
      pz      :     0.863885  p :     2.775285
      px      :     0.879077
      py      :     1.032323
      dz2     :     0.006227  d :     0.032071
      dxz     :     0.010083
      dyz     :     0.004667
      dx2y2   :     0.005770
      dxy     :     0.005324

  9 C s       :     3.229012  s :     3.229012
      pz      :     0.867377  p :     2.770163
      px      :     0.907504
      py      :     0.995282
      dz2     :     0.006241  d :     0.031977
      dxz     :     0.010132
      dyz     :     0.004611
      dx2y2   :     0.005295
      dxy     :     0.005699

 10 H s       :     0.977455  s :     0.977455
      pz      :     0.010614  p :     0.023590
      px      :     0.005666
      py      :     0.007310

 11 H s       :     0.981396  s :     0.981396
      pz      :     0.010797  p :     0.023570
      px      :     0.008708
      py      :     0.004066

 12 H s       :     1.014340  s :     1.014340
      pz      :     0.011014  p :     0.023034
      px      :     0.007175
      py      :     0.004844

 13 H s       :     1.054334  s :     1.054334
      pz      :     0.010613  p :     0.023068
      px      :     0.004894
      py      :     0.007561

 14 H s       :     0.846076  s :     0.846076
      pz      :     0.019036  p :     0.044884
      px      :     0.014363
      py      :     0.011485

 15 H s       :     0.847869  s :     0.847869
      pz      :     0.022469  p :     0.048175
      px      :     0.009537
      py      :     0.016169

 16 O s       :     3.676389  s :     3.676389
      pz      :     1.396747  p :     4.564963
      px      :     1.711523
      py      :     1.456694
      dz2     :     0.004447  d :     0.009784
      dxz     :     0.000825
      dyz     :     0.001412
      dx2y2   :     0.000378
      dxy     :     0.002722

 17 H s       :     0.752840  s :     0.752840
      pz      :     0.031268  p :     0.070050
      px      :     0.017777
      py      :     0.021005

 18 H s       :     0.753760  s :     0.753760
      pz      :     0.015913  p :     0.070170
      px      :     0.025416
      py      :     0.028841



                     *******************************
                     * LOEWDIN POPULATION ANALYSIS *
                     *******************************

----------------------
LOEWDIN ATOMIC CHARGES
----------------------
   0 O :   -0.230033
   1 O :   -0.231527
   2 N :    0.276849
   3 N :    0.002346
   4 C :   -0.069165
   5 C :    0.049373
   6 C :    0.008150
   7 C :    0.004779
   8 C :   -0.069708
   9 C :   -0.070831
  10 H :    0.038883
  11 H :    0.037160
  12 H :    0.024357
  13 H :    0.011455
  14 H :    0.074628
  15 H :    0.054261
  16 O :   -0.093588
  17 H :    0.091663
  18 H :    0.090949

-------------------------------
LOEWDIN REDUCED ORBITAL CHARGES
-------------------------------
  0 O s       :     3.621637  s :     3.621637
      pz      :     1.410715  p :     4.566572
      px      :     1.734804
      py      :     1.421052
      dz2     :     0.011020  d :     0.041824
      dxz     :     0.008669
      dyz     :     0.015055
      dx2y2   :     0.003442
      dxy     :     0.003638

  1 O s       :     3.621515  s :     3.621515
      pz      :     1.402985  p :     4.568214
      px      :     1.612807
      py      :     1.552421
      dz2     :     0.011498  d :     0.041798
      dxz     :     0.017574
      dyz     :     0.006003
      dx2y2   :     0.003487
      dxy     :     0.003236

  2 N s       :     3.049587  s :     3.049587
      pz      :     1.123470  p :     3.432310
      px      :     1.171490
      py      :     1.137349
      dz2     :     0.076477  d :     0.241254
      dxz     :     0.062032
      dyz     :     0.049794
      dx2y2   :     0.026279
      dxy     :     0.026672

  3 N s       :     3.020574  s :     3.020574
      pz      :     1.224287  p :     3.935859
      px      :     1.213277
      py      :     1.498296
      dz2     :     0.007739  d :     0.041220
      dxz     :     0.014573
      dyz     :     0.004356
      dx2y2   :     0.007308
      dxy     :     0.007244

  4 C s       :     2.856058  s :     2.856058
      pz      :     1.091813  p :     3.090633
      px      :     0.929480
      py      :     1.069340
      dz2     :     0.033152  d :     0.122474
      dxz     :     0.028841
      dyz     :     0.017844
      dx2y2   :     0.020815
      dxy     :     0.021822

  5 C s       :     2.837487  s :     2.837487
      pz      :     1.064539  p :     2.962944
      px      :     0.962578
      py      :     0.935828
      dz2     :     0.030332  d :     0.150196
      dxz     :     0.036421
      dyz     :     0.018295
      dx2y2   :     0.032984
      dxy     :     0.032164

  6 C s       :     2.862652  s :     2.862652
      pz      :     1.031273  p :     3.036881
      px      :     1.044447
      py      :     0.961161
      dz2     :     0.018281  d :     0.092317
      dxz     :     0.028283
      dyz     :     0.012843
      dx2y2   :     0.015124
      dxy     :     0.017785

  7 C s       :     2.862445  s :     2.862445
      pz      :     1.031505  p :     3.040227
      px      :     1.045321
      py      :     0.963400
      dz2     :     0.018147  d :     0.092550
      dxz     :     0.028438
      dyz     :     0.012818
      dx2y2   :     0.018049
      dxy     :     0.015098

  8 C s       :     2.857624  s :     2.857624
      pz      :     1.025461  p :     3.126103
      px      :     1.050423
      py      :     1.050219
      dz2     :     0.017360  d :     0.085981
      dxz     :     0.027866
      dyz     :     0.012093
      dx2y2   :     0.014360
      dxy     :     0.014302

  9 C s       :     2.857891  s :     2.857891
      pz      :     1.027365  p :     3.127172
      px      :     1.049324
      py      :     1.050483
      dz2     :     0.017455  d :     0.085768
      dxz     :     0.028822
      dyz     :     0.011180
      dx2y2   :     0.013883
      dxy     :     0.014428

 10 H s       :     0.889959  s :     0.889959
      pz      :     0.031864  p :     0.071158
      px      :     0.017522
      py      :     0.021772

 11 H s       :     0.891754  s :     0.891754
      pz      :     0.032337  p :     0.071086
      px      :     0.025990
      py      :     0.012759

 12 H s       :     0.907546  s :     0.907546
      pz      :     0.032115  p :     0.068096
      px      :     0.020769
      py      :     0.015212

 13 H s       :     0.918918  s :     0.918918
      pz      :     0.031639  p :     0.069627
      px      :     0.015138
      py      :     0.022851

 14 H s       :     0.802353  s :     0.802353
      pz      :     0.051477  p :     0.123018
      px      :     0.037182
      py      :     0.034359

 15 H s       :     0.800547  s :     0.800547
      pz      :     0.069371  p :     0.145191
      px      :     0.024155
      py      :     0.051665

 16 O s       :     3.419571  s :     3.419571
      pz      :     1.465286  p :     4.655378
      px      :     1.705907
      py      :     1.484185
      dz2     :     0.008800  d :     0.018639
      dxz     :     0.000401
      dyz     :     0.003026
      dx2y2   :     0.000301
      dxy     :     0.006111

 17 H s       :     0.733619  s :     0.733619
      pz      :     0.086691  p :     0.174718
      px      :     0.044317
      py      :     0.043710

 18 H s       :     0.733742  s :     0.733742
      pz      :     0.034014  p :     0.175309
      px      :     0.068008
      py      :     0.073287



                      *****************************
                      * MAYER POPULATION ANALYSIS *
                      *****************************

  NA   - Mulliken gross atomic population
  ZA   - Total nuclear charge
  QA   - Mulliken gross atomic charge
  VA   - Mayer's total valence
  BVA  - Mayer's bonded valence
  FA   - Mayer's free valence

  ATOM       NA         ZA         QA         VA         BVA        FA
  0 O      8.2651     8.0000    -0.2651     1.9419     1.9419    -0.0000
  1 O      8.2667     8.0000    -0.2667     1.9406     1.9406    -0.0000
  2 N      6.7632     7.0000     0.2368     3.9855     3.9855    -0.0000
  3 N      7.0489     7.0000    -0.0489     3.2630     3.2630    -0.0000
  4 C      5.8428     6.0000     0.1572     3.7512     3.7512    -0.0000
  5 C      5.9023     6.0000     0.0977     4.0305     4.0305     0.0000
  6 C      6.0188     6.0000    -0.0188     3.8516     3.8516    -0.0000
  7 C      6.0151     6.0000    -0.0151     3.8369     3.8369    -0.0000
  8 C      6.0402     6.0000    -0.0402     3.7388     3.7388     0.0000
  9 C      6.0312     6.0000    -0.0312     3.7188     3.7188    -0.0000
 10 H      1.0010     1.0000    -0.0010     1.0188     1.0188    -0.0000
 11 H      1.0050     1.0000    -0.0050     1.0192     1.0192    -0.0000
 12 H      1.0374     1.0000    -0.0374     0.9882     0.9882    -0.0000
 13 H      1.0774     1.0000    -0.0774     1.0378     1.0378     0.0000
 14 H      0.8910     1.0000     0.1090     1.0009     1.0009    -0.0000
 15 H      0.8960     1.0000     0.1040     1.0799     1.0799    -0.0000
 16 O      8.2511     8.0000    -0.2511     2.1627     2.1627    -0.0000
 17 H      0.8229     1.0000     0.1771     1.0005     1.0005    -0.0000
 18 H      0.8239     1.0000     0.1761     1.0013     1.0013     0.0000

  Mayer bond orders larger than 0.100000
B(  0-O ,  1-O ) :   0.2594 B(  0-O ,  2-N ) :   1.5264 B(  1-O ,  2-N ) :   1.5249 
B(  2-N ,  4-C ) :   0.8998 B(  3-N ,  5-C ) :   1.3407 B(  3-N , 14-H ) :   0.9436 
B(  3-N , 15-H ) :   0.8952 B(  4-C ,  6-C ) :   1.3370 B(  4-C ,  7-C ) :   1.3332 
B(  5-C ,  8-C ) :   1.2620 B(  5-C ,  9-C ) :   1.2600 B(  6-C ,  8-C ) :   1.3987 
B(  6-C , 10-H ) :   0.9807 B(  7-C ,  9-C ) :   1.3969 B(  7-C , 11-H ) :   0.9810 
B(  8-C , 12-H ) :   0.9873 B(  9-C , 13-H ) :   0.9748 B( 15-H , 16-O ) :   0.1313 
B( 16-O , 17-H ) :   0.9871 B( 16-O , 18-H ) :   0.9878 

-------
TIMINGS
-------

Total SCF time: 0 days 0 hours 0 min 4 sec 

Total time                  ....       4.532 sec
Sum of individual times     ....       4.449 sec  ( 98.2%)

SCF preparation             ....       0.633 sec  ( 14.0%)
Fock matrix formation       ....       3.352 sec  ( 74.0%)
  Startup                   ....       0.054 sec  (  1.6% of F)
  Split-RI-J                ....       0.381 sec  ( 11.4% of F)
  Chain of spheres X        ....       1.972 sec  ( 58.8% of F)
  XC integration            ....       0.821 sec  ( 24.5% of F)
    XC Preparation          ....       0.000 sec  (  0.0% of XC)
    Basis function eval.    ....       0.135 sec  ( 16.4% of XC)
    Density eval.           ....       0.077 sec  (  9.4% of XC)
    XC-Functional eval.     ....       0.031 sec  (  3.7% of XC)
    XC-Potential eval.      ....       0.088 sec  ( 10.7% of XC)
Diagonalization             ....       0.000 sec  (  0.0%)
Density matrix formation    ....       0.087 sec  (  1.9%)
Total Energy calculation    ....       0.060 sec  (  1.3%)
Population analysis         ....       0.023 sec  (  0.5%)
Orbital Transformation      ....       0.026 sec  (  0.6%)
Orbital Orthonormalization  ....       0.000 sec  (  0.0%)
DIIS solution               ....       0.144 sec  (  3.2%)
SOSCF solution              ....       0.124 sec  (  2.7%)
Finished LeanSCF after   4.5 sec

Maximum memory used throughout the entire LEANSCF-calculation: 19.9 MB
[ga01:1147541] 27 more processes have sent help message help-mpi-btl-openib.txt / error in device init
[ga01:1147541] Set MCA parameter "orte_base_help_aggregate" to 0 to see all help / error messages


-------------------------------------------------------------------------------
                          DFT DISPERSION CORRECTION                            
                                                                               
                              DFTD3 V3.1  Rev 1                                
                          USING Becke-Johnson damping                          
-------------------------------------------------------------------------------
The B3LYP functional is recognized
Active option DFTDOPT                   ...         4   

molecular C6(AA) [au] = 3866.485924 


            DFT-D V3
 parameters
 s6 scaling factor         :     1.0000 
 a1 scaling factor         :     0.3981 
 s8 scaling factor         :     1.9889 
 a2 scaling factor         :     4.4211 
 ad hoc parameters k1-k3   :    16.0000     1.3333    -4.0000 

 Edisp/kcal,au: -19.841744922072  -0.031619829860 
 E6   /kcal   :  -9.379064308 
 E8   /kcal   : -10.462680614 
 % E8         :  52.730647709 

-------------------------   ----------------
Dispersion correction           -0.031619830
-------------------------   ----------------


-------------------------   --------------------
FINAL SINGLE POINT ENERGY      -567.855833780970
-------------------------   --------------------

--------------------------------------------------------------------------
WARNING: There was an error initializing an OpenFabrics device.

  Local host:   ga01
  Local device: mlx5_0
--------------------------------------------------------------------------


           ************************************************************
           *        Program running with 28 parallel MPI-processes    *
           *              working on a common directory               *
           ************************************************************
------------------------------------------------------------------------------
                         ORCA SCF GRADIENT CALCULATION
------------------------------------------------------------------------------

Nuc. rep. gradient        (SHARK) ... done (  0.0 sec)
HCore & Overlap gradient  (SHARK) ... done (  0.0 sec)
Split-RIJ-J gradient      (SHARK) ... done (  0.1 sec)
COSX-gradient                     ... done (  1.0 sec)
XC gradient                       ... done (  0.2 sec)
Dispersion correction             ... done (  0.0 sec)

-------------------
DISPERSION GRADIENT
-------------------

   1   O   :    0.000412063   -0.000253098    0.000156718
   2   O   :    0.000464245   -0.000127129   -0.000165233
   3   N   :    0.000543061   -0.000236000   -0.000004954
   4   N   :   -0.000521304    0.000112245    0.000203283
   5   C   :    0.000404814   -0.000179595    0.000000672
   6   C   :   -0.000366043    0.000075102    0.000142825
   7   C   :    0.000001868   -0.000239784    0.000522897
   8   C   :    0.000203068    0.000131944   -0.000503593
   9   C   :   -0.000262767   -0.000120022    0.000511190
  10   C   :    0.000049181    0.000116571   -0.000376485
  11   H   :    0.000032394   -0.000158245    0.000316957
  12   H   :    0.000140645    0.000080152   -0.000317476
  13   H   :   -0.000149554   -0.000078459    0.000316128
  14   H   :    0.000044040    0.000083305   -0.000275505
  15   H   :   -0.000275464    0.000059388    0.000133865
  16   H   :   -0.000244937    0.000104016   -0.000011556
  17   O   :   -0.000266461    0.000305134   -0.000304687
  18   H   :   -0.000123660    0.000104416   -0.000195745
  19   H   :   -0.000085188    0.000220061   -0.000149298

Difference to translation invariance:
           :   -0.0000000000   -0.0000000000    0.0000000000

Difference to rotation invariance:
           :    0.0000000000    0.0000000000    0.0000000000

Norm of the Dispersion gradient    ...    0.0019313349
RMS gradient                       ...    0.0002558116
MAX gradient                       ...    0.0005430609

------------------
CARTESIAN GRADIENT
------------------

   1   O   :    0.000065775   -0.000107089    0.000078338
   2   O   :   -0.000106087   -0.000073085    0.000285384
   3   N   :   -0.000082657    0.000188983   -0.000260085
   4   N   :   -0.001683788    0.002166930   -0.000153763
   5   C   :   -0.000196839    0.000359841   -0.000577025
   6   C   :    0.000511343   -0.001758350    0.000987759
   7   C   :    0.000152825   -0.000081703    0.000163587
   8   C   :    0.000789880   -0.000361616    0.000374819
   9   C   :    0.000000060    0.000039008   -0.000431482
  10   C   :   -0.001255408    0.001443156   -0.000078422
  11   H   :   -0.000098124    0.000026235    0.000008410
  12   H   :   -0.000080100    0.000080225    0.000000743
  13   H   :   -0.000014092   -0.000013655    0.000053467
  14   H   :    0.000782330   -0.000698189   -0.001013974
  15   H   :   -0.000205160    0.000323427    0.000308697
  16   H   :    0.001720729   -0.001935371   -0.000360952
  17   O   :    0.000608591    0.001072879    0.001224545
  18   H   :   -0.000177127   -0.000338054   -0.000779063
  19   H   :   -0.000732151   -0.000333570    0.000169016

Difference to translation invariance:
           :    0.0000000000   -0.0000000000    0.0000000001

Difference to rotation invariance:
           :   -0.0001748205   -0.0001949736   -0.0002301975

Norm of the Cartesian gradient     ...    0.0055768836
RMS gradient                       ...    0.0007386763
MAX gradient                       ...    0.0021669302

-------
TIMINGS
-------

Total SCF gradient time     ....        1.320 sec

Densities                   ....       0.001 sec  (  0.1%)
One electron gradient       ....       0.014 sec  (  1.1%)
RI-J Coulomb gradient       ....       0.117 sec  (  8.9%)
COSX gradient               ....       0.976 sec  ( 73.9%)
XC gradient                 ....       0.184 sec  ( 13.9%)

Maximum memory used throughout the entire SCFGRAD-calculation: 30.4 MB
[ga01:1147668] 27 more processes have sent help message help-mpi-btl-openib.txt / error in device init
[ga01:1147668] Set MCA parameter "orte_base_help_aggregate" to 0 to see all help / error messages
------------------------------------------------------------------------------
                         ORCA GEOMETRY RELAXATION STEP
------------------------------------------------------------------------------

Reading the OPT-File                    .... done
Getting information on internals        .... done
Copying old internal coords+grads       .... done
Making the new internal coordinates     .... (2022 redundants) done
Validating the new internal coordinates .... (2022 redundants) done
Calculating the B-matrix                .... done
Calculating the G,G- and P matrices     .... done
Transforming gradient to internals      .... done
Projecting the internal gradient        .... done
Number of atoms                         ....  19
Number of internal coordinates          ....  92
Current Energy                          ....  -567.855833781 Eh
Current gradient norm                   ....     0.005576884 Eh/bohr
Maximum allowed component of the step   ....  0.300
Current trust radius                    ....  0.300
Evaluating the initial hessian          ....  (Almloef) done
Projecting the Hessian                  .... done
Forming the augmented Hessian           .... done
Diagonalizing the augmented Hessian     .... done
Last element of RFO vector              ....  0.999145764
Lowest eigenvalues of augmented Hessian:
 -0.000059298  0.009327778  0.015195227  0.015195410  0.021713936
Length of the computed step             ....  0.041360170
The final length of the internal step   ....  0.041360170
Converting the step to Cartesian space:
 Initial RMS(Int)=    0.0043120959
Transforming coordinates:
 Iter   0:  RMS(Cart)=    0.0091468659 RMS(Int)=    1.4632690220
done
Storing new coordinates                 .... done

                                .--------------------.
          ----------------------|Geometry convergence|-------------------------
          Item                value                   Tolerance       Converged
          ---------------------------------------------------------------------
          RMS gradient        0.0003480858            0.0001000000      NO
          MAX gradient        0.0015682793            0.0003000000      NO
          RMS step            0.0043120959            0.0020000000      NO
          MAX step            0.0203076991            0.0040000000      NO
          ........................................................
          Max(Bonds)      0.0071      Max(Angles)    0.25
          Max(Dihed)        1.16      Max(Improp)    0.00
          ---------------------------------------------------------------------

The optimization has not yet converged - more geometry cycles are needed


    ---------------------------------------------------------------------------
                         Redundant Internal Coordinates
                            (Angstroem and degrees)

        Definition                    Value    dE/dq     Step     New-Value
    ----------------------------------------------------------------------------
     1. B(N   2,O   1)                1.2257 -0.000299  0.0002    1.2259   
     2. B(N   2,O   0)                1.2257  0.000134 -0.0001    1.2256   
     3. B(C   4,N   2)                1.4559 -0.000116  0.0001    1.4560   
     4. B(C   5,N   3)                1.3583  0.000829 -0.0007    1.3576   
     5. B(C   6,C   4)                1.3996  0.000003  0.0000    1.3997   
     6. B(C   7,C   4)                1.3996 -0.000488  0.0004    1.4000   
     7. B(C   8,C   5)                1.4175 -0.000325  0.0003    1.4178   
     8. B(C   8,C   6)                1.3855 -0.000116  0.0001    1.3856   
     9. B(C   9,C   7)                1.3850  0.000515 -0.0004    1.3846   
    10. B(C   9,C   5)                1.4214  0.000998 -0.0010    1.4204   
    11. B(H  10,C   6)                1.0896 -0.000042  0.0001    1.0896   
    12. B(H  11,C   7)                1.0897 -0.000040  0.0001    1.0897   
    13. B(H  12,C   8)                1.0932  0.000052 -0.0001    1.0932   
    14. B(H  13,C   9)                1.0918  0.000194 -0.0003    1.0915   
    15. B(H  14,N   3)                1.0098  0.000347 -0.0004    1.0094   
    16. B(H  15,N   3)                1.0178 -0.001425  0.0018    1.0196   
    17. B(O  16,H  15)                1.9028 -0.000072  0.0071    1.9099   
    18. B(H  17,O  16)                0.9682  0.000847 -0.0009    0.9673   
    19. B(H  18,H  15)                2.4690 -0.000197  0.0068    2.4758   
[...]
-------------------------------
  0 O s       :     3.621489  s :     3.621489
      pz      :     1.419820  p :     4.565838
      px      :     1.732273
      py      :     1.413745
      dz2     :     0.010081  d :     0.041868
      dxz     :     0.008090
      dyz     :     0.015755
      dx2y2   :     0.003956
      dxy     :     0.003986

  1 O s       :     3.621634  s :     3.621634
      pz      :     1.396725  p :     4.567844
      px      :     1.607420
      py      :     1.563699
      dz2     :     0.011404  d :     0.041789
      dxz     :     0.017425
      dyz     :     0.006080
      dx2y2   :     0.003491
      dxy     :     0.003389

  2 N s       :     3.049584  s :     3.049584
      pz      :     1.123824  p :     3.432253
      px      :     1.170642
      py      :     1.137787
      dz2     :     0.074434  d :     0.241293
      dxz     :     0.059932
      dyz     :     0.050262
      dx2y2   :     0.027941
      dxy     :     0.028724

  3 N s       :     3.021039  s :     3.021039
      pz      :     1.243676  p :     3.935455
      px      :     1.205580
      py      :     1.486199
      dz2     :     0.007033  d :     0.041312
      dxz     :     0.014599
      dyz     :     0.004365
      dx2y2   :     0.007225
      dxy     :     0.008090

  4 C s       :     2.856217  s :     2.856217
      pz      :     1.091934  p :     3.090156
      px      :     0.932419
      py      :     1.065802
      dz2     :     0.032001  d :     0.122356
      dxz     :     0.027778
      dyz     :     0.018316
      dx2y2   :     0.021059
      dxy     :     0.023202

  5 C s       :     2.837094  s :     2.837094
      pz      :     1.057877  p :     2.963163
      px      :     0.963349
      py      :     0.941937
      dz2     :     0.029403  d :     0.150348
      dxz     :     0.036033
      dyz     :     0.018915
      dx2y2   :     0.033629
      dxy     :     0.032368

  6 C s       :     2.862659  s :     2.862659
      pz      :     1.027174  p :     3.036730
      px      :     1.042765
      py      :     0.966791
      dz2     :     0.017803  d :     0.092292
      dxz     :     0.027500
      dyz     :     0.013303
      dx2y2   :     0.015505
      dxy     :     0.018180

  7 C s       :     2.862330  s :     2.862330
      pz      :     1.027349  p :     3.039854
      px      :     1.043315
      py      :     0.969191
      dz2     :     0.017298  d :     0.092594
      dxz     :     0.027478
      dyz     :     0.013248
      dx2y2   :     0.018972
      dxy     :     0.015599

  8 C s       :     2.857797  s :     2.857797
      pz      :     1.026394  p :     3.125219
      px      :     1.050372
      py      :     1.048452
      dz2     :     0.016394  d :     0.085908
      dxz     :     0.026804
      dyz     :     0.012720
      dx2y2   :     0.014926
      dxy     :     0.015065

  9 C s       :     2.857015  s :     2.857015
      pz      :     1.028686  p :     3.128804
      px      :     1.049997
      py      :     1.050121
      dz2     :     0.016481  d :     0.086163
      dxz     :     0.028138
      dyz     :     0.011927
      dx2y2   :     0.014444
      dxy     :     0.015172

 10 H s       :     0.889742  s :     0.889742
      pz      :     0.030617  p :     0.071151
      px      :     0.017245
      py      :     0.023289

 11 H s       :     0.891559  s :     0.891559
      pz      :     0.032072  p :     0.071117
      px      :     0.026174
      py      :     0.012871

 12 H s       :     0.907350  s :     0.907350
      pz      :     0.031944  p :     0.068129
      px      :     0.020977
      py      :     0.015209

 13 H s       :     0.921777  s :     0.921777
      pz      :     0.030338  p :     0.070144
      px      :     0.015448
      py      :     0.024358

 14 H s       :     0.802210  s :     0.802210
      pz      :     0.050828  p :     0.123021
      px      :     0.037712
      py      :     0.034481

 15 H s       :     0.801059  s :     0.801059
      pz      :     0.068186  p :     0.143031
      px      :     0.023929
      py      :     0.050916

 16 O s       :     3.422130  s :     3.422130
      pz      :     1.536139  p :     4.651577
      px      :     1.692014
      py      :     1.423424
      dz2     :     0.005214  d :     0.018746
      dxz     :     0.001058
      dyz     :     0.005738
      dx2y2   :     0.000389
      dxy     :     0.006347

 17 H s       :     0.734006  s :     0.734006
      pz      :     0.079930  p :     0.175625
      px      :     0.044751
      py      :     0.050945

 18 H s       :     0.734010  s :     0.734010
      pz      :     0.038343  p :     0.175517
      px      :     0.069357
      py      :     0.067817



                      *****************************
                      * MAYER POPULATION ANALYSIS *
                      *****************************

  NA   - Mulliken gross atomic population
  ZA   - Total nuclear charge
  QA   - Mulliken gross atomic charge
  VA   - Mayer's total valence
  BVA  - Mayer's bonded valence
  FA   - Mayer's free valence

  ATOM       NA         ZA         QA         VA         BVA        FA
  0 O      8.2644     8.0000    -0.2644     1.9426     1.9426    -0.0000
  1 O      8.2664     8.0000    -0.2664     1.9410     1.9410    -0.0000
  2 N      6.7631     7.0000     0.2369     3.9853     3.9853    -0.0000
  3 N      7.0496     7.0000    -0.0496     3.2626     3.2626    -0.0000
  4 C      5.8439     6.0000     0.1561     3.7534     3.7534    -0.0000
  5 C      5.9008     6.0000     0.0992     4.0314     4.0314     0.0000
  6 C      6.0178     6.0000    -0.0178     3.8516     3.8516    -0.0000
  7 C      6.0123     6.0000    -0.0123     3.8318     3.8318     0.0000
  8 C      6.0405     6.0000    -0.0405     3.7400     3.7400     0.0000
  9 C      6.0283     6.0000    -0.0283     3.7146     3.7146     0.0000
 10 H      1.0006     1.0000    -0.0006     1.0188     1.0188    -0.0000
 11 H      1.0048     1.0000    -0.0048     1.0193     1.0193     0.0000
 12 H      1.0368     1.0000    -0.0368     0.9883     0.9883     0.0000
 13 H      1.0923     1.0000    -0.0923     1.0472     1.0472    -0.0000
 14 H      0.8905     1.0000     0.1095     1.0009     1.0009    -0.0000
 15 H      0.8956     1.0000     0.1044     1.0794     1.0794    -0.0000
 16 O      8.2483     8.0000    -0.2483     2.1732     2.1732    -0.0000
 17 H      0.8217     1.0000     0.1783     1.0007     1.0007     0.0000
 18 H      0.8221     1.0000     0.1779     1.0006     1.0006     0.0000

  Mayer bond orders larger than 0.100000
B(  0-O ,  1-O ) :   0.2598 B(  0-O ,  2-N ) :   1.5269 B(  1-O ,  2-N ) :   1.5249 
B(  2-N ,  4-C ) :   0.8992 B(  3-N ,  5-C ) :   1.3399 B(  3-N , 14-H ) :   0.9435 
B(  3-N , 15-H ) :   0.8959 B(  4-C ,  6-C ) :   1.3373 B(  4-C ,  7-C ) :   1.3344 
B(  5-C ,  8-C ) :   1.2606 B(  5-C ,  9-C ) :   1.2648 B(  6-C ,  8-C ) :   1.3998 
B(  6-C , 10-H ) :   0.9805 B(  7-C ,  9-C ) :   1.3924 B(  7-C , 11-H ) :   0.9813 
B(  8-C , 12-H ) :   0.9872 B(  9-C , 13-H ) :   0.9700 B( 15-H , 16-O ) :   0.1312 
B( 16-O , 17-H ) :   0.9868 B( 16-O , 18-H ) :   0.9871 

-------
TIMINGS
-------

Total SCF time: 0 days 0 hours 0 min 2 sec 

Total time                  ....       2.495 sec
Sum of individual times     ....       2.433 sec  ( 97.5%)

SCF preparation             ....       0.652 sec  ( 26.1%)
Fock matrix formation       ....       1.529 sec  ( 61.3%)
  Startup                   ....       0.025 sec  (  1.6% of F)
  Split-RI-J                ....       0.139 sec  (  9.1% of F)
  Chain of spheres X        ....       1.026 sec  ( 67.1% of F)
  XC integration            ....       0.295 sec  ( 19.3% of F)
    Basis function eval.    ....       0.053 sec  ( 18.1% of XC)
    Density eval.           ....       0.032 sec  ( 10.7% of XC)
    XC-Functional eval.     ....       0.011 sec  (  3.9% of XC)
    XC-Potential eval.      ....       0.035 sec  ( 11.9% of XC)
Diagonalization             ....       0.000 sec  (  0.0%)
Density matrix formation    ....       0.033 sec  (  1.3%)
Total Energy calculation    ....       0.024 sec  (  1.0%)
Population analysis         ....       0.092 sec  (  3.7%)
Orbital Transformation      ....       0.014 sec  (  0.6%)
Orbital Orthonormalization  ....       0.000 sec  (  0.0%)
DIIS solution               ....       0.020 sec  (  0.8%)
SOSCF solution              ....       0.069 sec  (  2.8%)
Finished LeanSCF after   2.6 sec

Maximum memory used throughout the entire LEANSCF-calculation: 23.0 MB
[ga01:1165463] 27 more processes have sent help message help-mpi-btl-openib.txt / error in device init
[ga01:1165463] Set MCA parameter "orte_base_help_aggregate" to 0 to see all help / error messages


-------------------------------------------------------------------------------
                          DFT DISPERSION CORRECTION                            
                                                                               
                              DFTD3 V3.1  Rev 1                                
                          USING Becke-Johnson damping                          
-------------------------------------------------------------------------------
The B3LYP functional is recognized
Active option DFTDOPT                   ...         4   

molecular C6(AA) [au] = 3866.438514 


            DFT-D V3
 parameters
 s6 scaling factor         :     1.0000 
 a1 scaling factor         :     0.3981 
 s8 scaling factor         :     1.9889 
 a2 scaling factor         :     4.4211 
 ad hoc parameters k1-k3   :    16.0000     1.3333    -4.0000 

 Edisp/kcal,au: -19.919092931699  -0.031743091746 
 E6   /kcal   :  -9.418069852 
 E8   /kcal   : -10.501023080 
 % E8         :  52.718379877 

-------------------------   ----------------
Dispersion correction           -0.031743092
-------------------------   ----------------


-------------------------   --------------------
FINAL SINGLE POINT ENERGY      -567.856126702832
-------------------------   --------------------

                                *** OPTIMIZATION RUN DONE ***

--------------------------------------------------------------------------
WARNING: There was an error initializing an OpenFabrics device.

  Local host:   ga01
  Local device: mlx5_0
--------------------------------------------------------------------------


           ************************************************************
           *        Program running with 28 parallel MPI-processes    *
           *              working on a common directory               *
           ************************************************************

------------------------------------------------------------------------------
                              ORCA PROPERTY CALCULATIONS
------------------------------------------------------------------------------

GBWName                                 ... 4nitroaniline_water_2_OPT.gbw
Number of atoms                         ...     19
Number of basis functions               ...    194
Max core memory                         ...   3000 MB

Electric properties:
Dipole moment                           ... YES
Quadrupole moment                       ...  NO
Static polarizability (Dipole/Dipole)   ...  NO
Static polarizability (Dipole/Quad.)    ...  NO
Static polarizability (Quad./Quad.)     ...  NO
Static polarizability (Velocity)        ...  NO

Atomic electric properties:
Dipole moment                           ...  NO
Quadrupole moment                       ...  NO
Static polarizability                   ...  NO

Choice of electric origin               ... Center of mass
Position of electric origin             ...    -0.273901     1.476950     0.154591

General magnetic properties:
Magnetizability                         ...  NO

EPR properties:
g-Tensor (aka g-matrix)                 ...  NO
Zero-Field splitting spin-orbit         ...  NO
Zero-field splitting spin-spin          ...  NO
Hyperfine couplings                     ...  NO (   0 nuclei)
Quadrupole couplings                    ...  NO (   0 nuclei)
Contact density                         ...  NO (   0 nuclei)

NMR properties:
Chemical shifts                         ...  NO (   0 nuclei)
Spin-rotation constants                 ...  NO (   0 nuclei)
Spin-spin couplings                     ...  NO (   0 nuclei,    0 pairs)

Choice of magnetic origin               ... GIAO
Position of magnetic origin             ...     0.000000     0.000000     0.000000

Properties with geometric perturbations:
SCF Hessian                             ...  NO
IR spectrum                             ...  NO
VCD spectrum                            ...  NO
X-ray spectroscopy properties:
SCF XES/XAS/RIXS spectra                ...  NO


-------------
DIPOLE MOMENT
-------------

Method             : SCF
Type of density    : Electron Density
Multiplicity       :   1
Irrep              :   0
Energy             :  -567.8243836110859775 Eh
Relativity type    : 
Basis              : AO
                                X                 Y                 Z
Electronic contribution:      9.892501246      -5.748823029       2.242416158
Nuclear contribution   :    -12.523371126       7.372463315      -3.029133283
                        -----------------------------------------
Total Dipole Moment    :     -2.630869881       1.623640286      -0.786717126
                        -----------------------------------------
Magnitude (a.u.)       :      3.190079614
Magnitude (Debye)      :      8.108537982



--------------------
Rotational spectrum 
--------------------
 
Rotational constants in cm-1:             0.083715             0.016888             0.014081 
Rotational constants in MHz :          2509.704984           506.291229           422.145423 

Dipole components along the rotational axes: 
x,y,z [a.u.] :     3.188061    -0.113407     0.003583 
x,y,z [Debye]:     8.103407    -0.288258     0.009107 

 

Dipole moment calculation done in   0.0 sec 

Maximum memory used throughout the entire PROP-calculation: 12.0 MB
[ga01:1165583] 27 more processes have sent help message help-mpi-btl-openib.txt / error in device init
[ga01:1165583] Set MCA parameter "orte_base_help_aggregate" to 0 to see all help / error messages
--------------------------------------------------------------------------
WARNING: There was an error initializing an OpenFabrics device.

  Local host:   ga01
  Local device: mlx5_0
--------------------------------------------------------------------------
[ga01:1165700] 27 more processes have sent help message help-mpi-btl-openib.txt / error in device init
[ga01:1165700] Set MCA parameter "orte_base_help_aggregate" to 0 to see all help / error messages

--------------------------------
SUGGESTED CITATIONS FOR THIS RUN
--------------------------------

Below you find a list of papers that are relevant to this ORCA run
We neither can nor want to force you to cite these papers, but we appreciate if you do
You receive ORCA, which is the product of decades of hard work by many enthusiastic individuals, for free
The only thing we kindly ask in return is that you cite our papers,
We deeply appreciate it, if you show your appreciation for ORCA by not just citing the generic ORCA reference.

Please note that relegating all ORCA citations to the supporting information does *not* help us.
SI sections are not indexed - citations you put there will not count into any citation statistics
But we need these citations in order to attract the funding resources that allow us to do what we are doing

Therefore, if you are a happy ORCA user, please consider citing a few of the papers listed below in the main body of your paper

In addition to the list printed below, the program has created the file 4nitroaniline_water_2_OPT.bibtex that contains the list in bibtex format
You can import this file easily into all common literature databanks and citation aid programs


List of essential papers. We consider these as the minimum necessary citations

  1. Neese,F.
     Software update: the ORCA program system, version 5.0
     WIRES Comput. Molec. Sci., 2022 12(1)e1606
     doi.org/10.1002/wcms.1606

List of papers to cite with high priority. The work reported in these papers was absolutely
necessary for this run to complete.
Our perspective: the developers of density functionals and basis sets usually get cited in chemistry papers
Good! But without the algorithms to do something with them, the functionals or basis sets would not do anything.
Hence, in our opinion, the algorithm design and method developments papers are equally worthy of getting cited

  1. Neese,F.
     An improvement of the resolution of the identity approximation for the formation of the Coulomb matrix
     J. Comp. Chem., 2003 24(14)1740-1747
     doi.org/10.1002/jcc.10318
  2. Neese,F.; Wennmohs,F.; Hansen,A.; Becker,U.
     Efficient, approximate and parallel Hartree-Fock and hybrid DFT calculations. A 'chain-of-spheres' algorithm for the Hartree-Fock exchange
     Chem. Phys., 2009 356(1-3)98-109
     doi.org/10.1016/j.chemphys.2008.10.036
  3. Helmich-Paris,B.; de Souza,B.; Neese,F.; Izsák,R.
     An improved chain of spheres for exchange algorithm
     J. Chem. Phys., 2021 155 104109
     doi.org/doi: 10.1063/5.0058766.
  4. Neese,F.
     The SHARK Integral Generation and Digestion System
     J. Comp. Chem., 2022  1-16
     doi.org/10.1002/jcc.26942
  5. Grimme,S.; Antony,J.; Ehrlich,S.; Krieg,H.
     A consistent and accurate ab initio parametrization of density functional dispersion correction (DFT-D) for the 94 elements H-Pu
     J. Chem. Phys., 2010 132 154104
     doi.org/10.1063/1.3382344
  6. Grimme,S.; Ehrlich,S.; Goerigk,L.
     Effect of the damping function in dispersion corrected density functional theory
     J. Comput. Chem., 2011 32(7)1456-1465
     doi.org/10.1002/jcc.21759

List of suggested additional citations. These are papers that are important in the 'surrounding' of 
of this run, or papers that preceded the highly important papers. If you like your results we are grateful for a citation.

  1. Izsak,R.; Neese,F.
     An overlap fitted chain of spheres exchange method
     J. Chem. Phys., 2011 135 144105
     doi.org/10.1063/1.3646921
  2. Izsak,R.; Hansen,A.; Neese,F.
     The resolution of identity and chain of spheres approximations for the LPNO-CCSD singles Fock term
     Molec. Phys., 2012 110 2413-2417
     doi.org/10.1080/00268976.2012.687466
  3. Neese,F.
     The ORCA program system
     WIRES Comput. Molec. Sci., 2012 2(1)73-78
     doi.org/10.1002/wcms.81
  4. Izsak,R.; Neese,F.; Klopper,W.
     Robust fitting techniques in the chain of spheres approximation to the Fock exchange: The role of the complementary space
     J. Chem. Phys., 2013 139 
     doi.org/10.1063/1.4819264
  5. Neese,F.
     Software update: the ORCA program system, version 4.0
     WIRES Comput. Molec. Sci., 2018 8(1)1-6
     doi.org/10.1002/wcms.1327
  6. Neese,F.; Wennmohs,F.; Becker,U.; Riplinger,C.
     The ORCA quantum chemistry program package
     J. Chem. Phys., 2020 152 Art. No. L224108
     doi.org/10.1063/5.0004608

List of optional additional citations

  1. Neese,F.
     Approximate second-order SCF convergence for spin unrestricted wavefunctions
     Chem. Phys. Lett., 2000 325(1-3)93-98
     doi.org/10.1016/s0009-2614(00)00662-x

Timings for individual modules:

Sum of individual times          ...      251.038 sec (=   4.184 min)
Startup calculation              ...       49.890 sec (=   0.832 min)  19.9 %
SCF iterations                   ...      132.387 sec (=   2.206 min)  52.7 %
Property calculations            ...        0.973 sec (=   0.016 min)   0.4 %
SCF Gradient evaluation          ...       67.614 sec (=   1.127 min)  26.9 %
Geometry relaxation              ...        0.174 sec (=   0.003 min)   0.1 %
                             ****ORCA TERMINATED NORMALLY****
TOTAL RUN TIME: 0 days 0 hours 4 minutes 41 seconds 374 msec
