
     Program PWSCF v.7.3.1 starts on  8Apr2025 at 21: 3:33 

     This program is part of the open-source Quantum ESPRESSO suite
     for quantum simulation of materials; please cite
         "P. Giannozzi et al., J. Phys.:Condens. Matter 21 395502 (2009);
         "P. Giannozzi et al., J. Phys.:Condens. Matter 29 465901 (2017);
         "P. Giannozzi et al., J. Chem. Phys. 152 154105 (2020);
          URL http://www.quantum-espresso.org", 
     in publications or presentations arising from this work. More details at
     http://www.quantum-espresso.org/quote

     Parallel version (MPI), running on    33 processors

     MPI processes distributed on     1 nodes
     20943 MiB available memory on the printing compute node when the environment starts

     Waiting for input...
     Reading input from standard input
Warning: card &CELL ignored
Warning: card   CELL_DOFREE = 'ALL' ignored
Warning: card / ignored

     Current dimensions of program PWSCF are:
     Max number of different atomic species (ntypx) = 10
     Max number of k-points (npk) =  40000
     Max angular momentum in pseudopotentials (lmaxx) =  4
     file C.pbe-n-kjpaw_psl.1.0.0.UPF: wavefunction(s)  2S 2P renormalized

     R & G space division:  proc/nbgrp/npool/nimage =      33
     Subspace diagonalization in iterative solution of the eigenvalue problem:
     one sub-group per band group will be used
     custom distributed-memory algorithm (size of sub-group:  5*  5 procs)


     Parallelization info
     --------------------
     sticks:   dense  smooth     PW     G-vecs:    dense   smooth      PW
     Min         228     130     36                36393    15714    2270
     Max         230     131     37                36401    15723    2280
     Sum        7555    4303   1189              1201061   518755   75035

     Using Slab Decomposition



     bravais-lattice index     =            0
     lattice parameter (alat)  =      19.7617  a.u.
     unit-cell volume          =   15176.5939 (a.u.)^3
     number of atoms/cell      =           62
     number of atomic types    =            4
     number of electrons       =       996.00
     number of Kohn-Sham states=          598
     kinetic-energy cutoff     =      40.0000  Ry
     charge density cutoff     =     280.0000  Ry
     scf convergence threshold =      1.0E-06
     mixing beta               =       0.4000
     number of iterations used =            8  plain     mixing
     energy convergence thresh.=      5.0E-05
     force convergence thresh. =      1.0E-03
     Exchange-correlation= PBE
                           (   1   4   3   4   0   0   0)
     nstep                     =          300


     celldm(1)=  19.761696  celldm(2)=   0.000000  celldm(3)=   0.000000
     celldm(4)=   0.000000  celldm(5)=   0.000000  celldm(6)=   0.000000

     crystal axes: (cart. coord. in units of alat)
               a(1) = (   1.000000   0.000000   0.000000 )  
               a(2) = (  -0.500000   0.866025   0.000000 )  
               a(3) = (   0.000000   0.000000   2.270759 )  

     reciprocal axes: (cart. coord. in units 2 pi/alat)
               b(1) = (  1.000000  0.577350 -0.000000 )  
               b(2) = (  0.000000  1.154701  0.000000 )  
               b(3) = (  0.000000 -0.000000  0.440381 )  


     PseudoPot. # 1 for Zn read from file:
     /home/ys/qepseudo/SSSP_1.3.0_PBE_efficiency/Zn_pbe_v1.uspp.F.UPF
     MD5 check sum: df62231357ef9e81f77b2b3087fa5675
     Pseudo is Ultrasoft, Zval = 20.0
     Generated by new atomic code, or converted to UPF format
     Using radial grid of  943 points,  6 beta functions with: 
                l(1) =   0
                l(2) =   0
                l(3) =   1
                l(4) =   1
                l(5) =   2
                l(6) =   2
     Q(r) pseudized with  8 coefficients,  rinner =    1.100   1.100   1.100
                                                       1.100   1.100

     PseudoPot. # 2 for N  read from file:
     /home/ys/qepseudo/SSSP_1.3.0_PBE_efficiency/N.pbe-n-radius_5.UPF
     MD5 check sum: 16739722b17309cd8fe442a2ace49922
     Pseudo is Ultrasoft + core correction, Zval =  5.0
     Generated using "atomic" code by A. Dal Corso  v.5.1
     Using radial grid of 1085 points,  4 beta functions with: 
                l(1) =   0
                l(2) =   0
                l(3) =   1
                l(4) =   1
     Q(r) pseudized with 0 coefficients 


     PseudoPot. # 3 for C  read from file:
     /home/ys/qepseudo/SSSP_1.3.0_PBE_efficiency/C.pbe-n-kjpaw_psl.1.0.0.UPF
     MD5 check sum: 5d2aebdfa2cae82b50a7e79e9516da0f
     Pseudo is Projector augmented-wave + core cor, Zval =  4.0
     Generated using "atomic" code by A. Dal Corso  v.5.1
     Shape of augmentation charge: PSQ
     Using radial grid of 1073 points,  4 beta functions with: 
                l(1) =   0
                l(2) =   0
                l(3) =   1
                l(4) =   1
     Q(r) pseudized with 0 coefficients 


     PseudoPot. # 4 for H  read from file:
     /home/ys/qepseudo/SSSP_1.3.0_PBE_efficiency/H.pbe-rrkjus_psl.1.0.0.UPF
     MD5 check sum: f52b6d4d1c606e5624b1dc7b2218f220
     Pseudo is Ultrasoft, Zval =  1.0
     Generated using "atomic" code by A. Dal Corso  v.5.1
     Using radial grid of  929 points,  2 beta functions with: 
                l(1) =   0
                l(2) =   0
     Q(r) pseudized with 0 coefficients 


     atomic species   valence    mass     pseudopotential
     Zn               20.00    65.38000     Zn( 1.00)
     N                 5.00    14.00674     N ( 1.00)
     C                 4.00    12.01070     C ( 1.00)
     H                 1.00     1.00794     H ( 1.00)

     No symmetry found


                                    s                        frac. trans.

      isym =  1     identity                                     

 cryst.   s( 1) = (     1          0          0      )
                  (     0          1          0      )
                  (     0          0          1      )

 cart.    s( 1) = (  1.0000000  0.0000000  0.0000000 )
                  (  0.0000000  1.0000000  0.0000000 )
                  (  0.0000000  0.0000000  1.0000000 )


   Cartesian axes

     site n.     atom                  positions (alat units)
         1        Zn     tau(   1) = (   0.0000000   0.1443375   0.1164998  )
         2        Zn     tau(   2) = (   0.5000000   0.1443375   0.1164998  )
         3        Zn     tau(   3) = (  -0.0000009   0.1443253   0.5892328  )
         4        Zn     tau(   4) = (   0.5000057   0.1444331   0.5893457  )
         5        Zn     tau(   5) = (  -0.1250000   0.3608439   0.1164998  )
         6        Zn     tau(   6) = (   0.3750000   0.3608439   0.1164998  )
         7        Zn     tau(   7) = (  -0.1250605   0.3609005   0.5892520  )
         8        Zn     tau(   8) = (   0.3750667   0.3609476   0.5892409  )
         9        Zn     tau(   9) = (  -0.2500000   0.5773502   0.1164998  )
        10        Zn     tau(  10) = (   0.2500000   0.5773502   0.1164998  )
        11        Zn     tau(  11) = (  -0.2500929   0.5773056   0.5892190  )
        12        Zn     tau(  12) = (   0.2500864   0.5773127   0.5892873  )
        13        Zn     tau(  13) = (  -0.3750000   0.7938567   0.1164998  )
        14        Zn     tau(  14) = (   0.1250000   0.7938567   0.1164998  )
        15        Zn     tau(  15) = (  -0.3750348   0.7937470   0.5892089  )
        16        Zn     tau(  16) = (   0.1250330   0.7938041   0.5893866  )
        17        Zn     tau(  17) = (   0.2500000   0.1443375   0.1164998  )
        18        Zn     tau(  18) = (   0.7500000   0.1443375   0.1164998  )
        19        Zn     tau(  19) = (   0.2499793   0.1443524   0.5892478  )
        20        Zn     tau(  20) = (   0.7500154   0.1444015   0.5893369  )
        21        Zn     tau(  21) = (   0.1250000   0.3608439   0.1164998  )
        22        Zn     tau(  22) = (   0.6250000   0.3608439   0.1164998  )
        23        Zn     tau(  23) = (   0.1250142   0.3608841   0.5892372  )
        24        Zn     tau(  24) = (   0.6249793   0.3609637   0.5892403  )
        25        Zn     tau(  25) = (   0.0000000   0.5773502   0.1164998  )
        26        Zn     tau(  26) = (   0.5000000   0.5773502   0.1164998  )
        27        Zn     tau(  27) = (  -0.0000341   0.5773050   0.5893056  )
        28        Zn     tau(  28) = (   0.5000385   0.5773111   0.5891918  )
        29        Zn     tau(  29) = (  -0.1250000   0.7938567   0.1164998  )
        30        Zn     tau(  30) = (   0.3750000   0.7938567   0.1164998  )
        31        Zn     tau(  31) = (  -0.1250706   0.7937840   0.5893112  )
        32        Zn     tau(  32) = (   0.3750688   0.7937688   0.5892851  )
        33        Zn     tau(  33) = (   0.1249499   0.0721180   0.3527750  )
        34        Zn     tau(  34) = (   0.6250516   0.0722806   0.3529955  )
        35        Zn     tau(  35) = (  -0.0001067   0.2887395   0.3528763  )
        36        Zn     tau(  36) = (   0.5001077   0.2888424   0.3530070  )
        37        Zn     tau(  37) = (  -0.1251373   0.5051229   0.3529907  )
        38        Zn     tau(  38) = (   0.3751373   0.5051749   0.3530098  )
        39        Zn     tau(  39) = (  -0.2500771   0.7215201   0.3528974  )
        40        Zn     tau(  40) = (   0.2500778   0.7216345   0.3529906  )
        41        Zn     tau(  41) = (   0.3750658   0.0722199   0.3528654  )
        42        Zn     tau(  42) = (   0.8749310   0.0721759   0.3529169  )
        43        Zn     tau(  43) = (   0.2501013   0.2887983   0.3528633  )
        44        Zn     tau(  44) = (   0.7498955   0.2887831   0.3530222  )
        45        Zn     tau(  45) = (   0.1250465   0.5051922   0.3529544  )
        46        Zn     tau(  46) = (   0.6249532   0.5051087   0.3530488  )
        47        Zn     tau(  47) = (   0.0000130   0.7216316   0.3529497  )
        48        Zn     tau(  48) = (   0.4999851   0.7215192   0.3529316  )
        49        C      tau(  49) = (   0.2591376   0.5858523   1.0493955  )
        50        C      tau(  50) = (   0.2125470   0.6929330   1.2506312  )
        51        C      tau(  51) = (   0.2111815   0.6918230   1.1174272  )
        52        C      tau(  52) = (   0.3088477   0.4840710   1.2526179  )
        53        C      tau(  53) = (   0.3080877   0.4816589   1.1194265  )
        54        C      tau(  54) = (   0.2611942   0.5893789   1.3197617  )
        55        N      tau(  55) = (   0.2580976   0.5841277   0.9176327  )
        56        H      tau(  56) = (   0.2923229   0.5084051   0.8686890  )
        57        H      tau(  57) = (   0.1748504   0.7762196   1.3009907  )
        58        H      tau(  58) = (   0.3473739   0.4021362   1.3045590  )
        59        H      tau(  59) = (   0.3457126   0.3985766   1.0684404  )
        60        H      tau(  60) = (   0.2620455   0.5907621   1.4239552  )
        61        H      tau(  61) = (   0.1727559   0.7735571   1.0648765  )
        62        H      tau(  62) = (   0.2230107   0.6584969   0.8672677  )

     --------------------------------------------
     DFT-D3 Dispersion Correction (3-body terms):
     --------------------------------------------
       Reference C6 values for interpolation: 

         atom   Coordination number   C6
         H          0.912             6.05
         H          0.000            15.18
         C          0.000            98.23
         C          0.987            86.49
         C          1.998            58.72
         C          2.999            51.56
         C          3.984            36.41
         N          0.000            50.54
         N          0.994            44.25
         N          2.014            39.35
         N          2.990            31.16
         Zn         0.000           681.04
         Zn         1.942           306.91

       Values used:

         atom   Coordination number  R0_AB[au]  C6      C8
         Zn         6.783            3.053    306.91  23930.67
         Zn         6.780            3.053    306.91  23930.67
         Zn         6.781            3.053    306.91  23930.67
         Zn         6.780            3.053    306.91  23930.67
         Zn         6.782            3.053    306.91  23930.67
         Zn         6.782            3.053    306.91  23930.67
         Zn         6.789            3.053    306.91  23930.67
         Zn         6.792            3.053    306.91  23930.67
         Zn         6.781            3.053    306.91  23930.67
         Zn         6.780            3.053    306.91  23930.67
         Zn         6.794            3.053    306.91  23930.67
         Zn         6.801            3.053    306.91  23930.67
         Zn         6.783            3.053    306.91  23930.67
         Zn         6.778            3.053    306.91  23930.67
         Zn         6.786            3.053    306.91  23930.67
         Zn         6.779            3.053    306.91  23930.67
         Zn         6.783            3.053    306.91  23930.67
         Zn         6.780            3.053    306.91  23930.67
         Zn         6.778            3.053    306.91  23930.67
         Zn         6.783            3.053    306.91  23930.67
         Zn         6.782            3.053    306.91  23930.67
         Zn         6.781            3.053    306.91  23930.67
         Zn         6.785            3.053    306.91  23930.67
         Zn         6.797            3.053    306.91  23930.67
         Zn         6.779            3.053    306.91  23930.67
         Zn         6.782            3.053    306.91  23930.67
         Zn         6.785            3.053    306.91  23930.67
         Zn         6.800            3.053    306.91  23930.67
         Zn         6.781            3.053    306.91  23930.67
         Zn         6.781            3.053    306.91  23930.67
         Zn         6.779            3.053    306.91  23930.67
         Zn         6.787            3.053    306.91  23930.67
         Zn         8.382            3.053    306.91  23930.67
         Zn         8.381            3.053    306.91  23930.67
         Zn         8.384            3.053    306.91  23930.67
         Zn         8.392            3.053    306.91  23930.67
         Zn         8.389            3.053    306.91  23930.67
         Zn         8.394            3.053    306.91  23930.67
         Zn         8.387            3.053    306.91  23930.67
         Zn         8.384            3.053    306.91  23930.67
         Zn         8.379            3.053    306.91  23930.67
         Zn         8.384            3.053    306.91  23930.67
         Zn         8.384            3.053    306.91  23930.67
         Zn         8.391            3.053    306.91  23930.67
         Zn         8.385            3.053    306.91  23930.67
         Zn         8.399            3.053    306.91  23930.67
         Zn         8.380            3.053    306.91  23930.67
         Zn         8.391            3.053    306.91  23930.67
         C          3.140            2.750     50.61   1463.82
         C          3.131            2.750     50.68   1465.78
         C          3.165            2.750     50.40   1457.80
         C          3.131            2.750     50.68   1465.78
         C          3.165            2.750     50.41   1457.81
         C          3.123            2.750     50.74   1467.39
         N          3.093            2.478     31.24    689.15
         H          1.010            2.062      6.17     74.61
         H          1.003            2.062      6.18     74.69
         H          1.003            2.062      6.18     74.69
         H          1.003            2.062      6.18     74.69
         H          1.003            2.062      6.18     74.69
         H          1.003            2.062      6.18     74.69
         H          1.010            2.062      6.17     74.61

         Molecular C6 ( Ry / a.u.^6 ) =    819954.95


   Crystallographic axes

     site n.     atom                  positions (cryst. coord.)
         1        Zn     tau(   1) = (  0.0833333  0.1666666  0.0513044  )
         2        Zn     tau(   2) = (  0.5833333  0.1666666  0.0513044  )
         3        Zn     tau(   3) = (  0.0833253  0.1666525  0.2594872  )
         4        Zn     tau(   4) = (  0.5833941  0.1667770  0.2595369  )
         5        Zn     tau(   5) = (  0.0833333  0.4166666  0.0513044  )
         6        Zn     tau(   6) = (  0.5833333  0.4166666  0.0513044  )
         7        Zn     tau(   7) = (  0.0833055  0.4167320  0.2594956  )
         8        Zn     tau(   8) = (  0.5834599  0.4167864  0.2594907  )
         9        Zn     tau(   9) = (  0.0833333  0.6666666  0.0513044  )
        10        Zn     tau(  10) = (  0.5833333  0.6666666  0.0513044  )
        11        Zn     tau(  11) = (  0.0832146  0.6666151  0.2594811  )
        12        Zn     tau(  12) = (  0.5833980  0.6666233  0.2595112  )
        13        Zn     tau(  13) = (  0.0833333  0.9166667  0.0513044  )
        14        Zn     tau(  14) = (  0.5833334  0.9166667  0.0513044  )
        15        Zn     tau(  15) = (  0.0832352  0.9165400  0.2594767  )
        16        Zn     tau(  16) = (  0.5833360  0.9166061  0.2595549  )
        17        Zn     tau(  17) = (  0.3333333  0.1666666  0.0513044  )
        18        Zn     tau(  18) = (  0.8333334  0.1666666  0.0513044  )
        19        Zn     tau(  19) = (  0.3333212  0.1666838  0.2594938  )
        20        Zn     tau(  20) = (  0.8333857  0.1667405  0.2595330  )
        21        Zn     tau(  21) = (  0.3333333  0.4166666  0.0513044  )
        22        Zn     tau(  22) = (  0.8333333  0.4166666  0.0513044  )
        23        Zn     tau(  23) = (  0.3333707  0.4167130  0.2594891  )
        24        Zn     tau(  24) = (  0.8333818  0.4168050  0.2594905  )
        25        Zn     tau(  25) = (  0.3333333  0.6666666  0.0513044  )
        26        Zn     tau(  26) = (  0.8333333  0.6666666  0.0513044  )
        27        Zn     tau(  27) = (  0.3332731  0.6666144  0.2595192  )
        28        Zn     tau(  28) = (  0.8333492  0.6666214  0.2594691  )
        29        Zn     tau(  29) = (  0.3333334  0.9166667  0.0513044  )
        30        Zn     tau(  30) = (  0.8333334  0.9166667  0.0513044  )
        31        Zn     tau(  31) = (  0.3332207  0.9165828  0.2595217  )
        32        Zn     tau(  32) = (  0.8333514  0.9165652  0.2595102  )
        33        Zn     tau(  33) = (  0.1665872  0.0832747  0.1553556  )
        34        Zn     tau(  34) = (  0.6667828  0.0834624  0.1554527  )
        35        Zn     tau(  35) = (  0.1665971  0.3334076  0.1554002  )
        36        Zn     tau(  36) = (  0.6668709  0.3335265  0.1554577  )
        37        Zn     tau(  37) = (  0.1664955  0.5832657  0.1554506  )
        38        Zn     tau(  38) = (  0.6668002  0.5833257  0.1554589  )
        39        Zn     tau(  39) = (  0.1664928  0.8331397  0.1554095  )
        40        Zn     tau(  40) = (  0.6667136  0.8332717  0.1554505  )
        41        Zn     tau(  41) = (  0.4167620  0.0833924  0.1553954  )
        42        Zn     tau(  42) = (  0.9166018  0.0833416  0.1554180  )
        43        Zn     tau(  43) = (  0.4168391  0.3334756  0.1553945  )
        44        Zn     tau(  44) = (  0.9166245  0.3334580  0.1554644  )
        45        Zn     tau(  45) = (  0.4167194  0.5833457  0.1554346  )
        46        Zn     tau(  46) = (  0.9165778  0.5832492  0.1554761  )
        47        Zn     tau(  47) = (  0.4166473  0.8332684  0.1554325  )
        48        Zn     tau(  48) = (  0.9165544  0.8331386  0.1554245  )
        49        C      tau(  49) = (  0.5973796  0.6764839  0.4621343  )
        50        C      tau(  50) = (  0.6126121  0.8001302  0.5507547  )
        51        C      tau(  51) = (  0.6106057  0.7988484  0.4920942  )
        52        C      tau(  52) = (  0.5883262  0.5589571  0.5516297  )
        53        C      tau(  53) = (  0.5861736  0.5561718  0.4929746  )
        54        C      tau(  54) = (  0.6014723  0.6805561  0.5811985  )
        55        N      tau(  55) = (  0.5953439  0.6744926  0.4041084  )
        56        H      tau(  56) = (  0.5858507  0.5870556  0.3825545  )
        57        H      tau(  57) = (  0.6230010  0.8963012  0.5729322  )
        58        H      tau(  58) = (  0.5795473  0.4643469  0.5745035  )
        59        H      tau(  59) = (  0.5758309  0.4602366  0.4705213  )
        60        H      tau(  60) = (  0.6031221  0.6821533  0.6270834  )
        61        H      tau(  61) = (  0.6193693  0.8932268  0.4689518  )
        62        H      tau(  62) = (  0.6031941  0.7603667  0.3819286  )

     number of k points=     4  Marzari-Vanderbilt smearing, width (Ry)=  0.0200
                       cart. coord. in units 2pi/alat
        k(    1) = (   0.0000000   0.0000000   0.0000000), wk =   0.5000000
        k(    2) = (   0.0000000  -0.5773503   0.0000000), wk =   0.5000000
        k(    3) = (  -0.5000000  -0.2886751   0.0000000), wk =   0.5000000
        k(    4) = (  -0.5000000  -0.8660254   0.0000000), wk =   0.5000000

                       cryst. coord.
        k(    1) = (   0.0000000   0.0000000   0.0000000), wk =   0.5000000
        k(    2) = (   0.0000000  -0.5000000   0.0000000), wk =   0.5000000
        k(    3) = (  -0.5000000   0.0000000   0.0000000), wk =   0.5000000
        k(    4) = (  -0.5000000  -0.5000000   0.0000000), wk =   0.5000000

     Dense  grid:  1201061 G-vectors     FFT dimensions: ( 108, 108, 240)

     Smooth grid:   518755 G-vectors     FFT dimensions: (  80,  80, 192)

     Dynamical RAM for                 wfc:      17.92 MB

     Dynamical RAM for     wfc (w. buffer):      89.61 MB

     Dynamical RAM for           str. fact:       2.22 MB

     Dynamical RAM for           local pot:       0.00 MB

     Dynamical RAM for          nlocal pot:      27.99 MB

     Dynamical RAM for                qrad:       5.37 MB

     Dynamical RAM for          rho,v,vnew:       3.80 MB

     Dynamical RAM for               rhoin:       1.27 MB

     Dynamical RAM for            rho*nmix:       8.89 MB

     Dynamical RAM for           G-vectors:       2.20 MB

     Dynamical RAM for          h,s,v(r/c):       2.61 MB

     Dynamical RAM for          <psi|beta>:       8.52 MB

     Dynamical RAM for                 psi:      35.84 MB

     Dynamical RAM for                hpsi:      35.84 MB

     Dynamical RAM for                spsi:      35.84 MB

     Dynamical RAM for      wfcinit/wfcrot:      49.44 MB

     Dynamical RAM for           addusdens:     129.95 MB

     Dynamical RAM for          addusforce:     182.62 MB

     Dynamical RAM for         addusstress:     111.63 MB

     Estimated static dynamical RAM per process >     138.80 MB

     Estimated max dynamical RAM per process >     330.31 MB

     Estimated total dynamical RAM >      10.64 GB

     Initial potential from superposition of free atoms

     starting charge     995.9929, renormalised to     996.0000

     negative rho (up, down):  1.848E-03 0.000E+00
     Starting wfcs are  659 randomized atomic wfcs
     Checking if some PAW data can be deallocated... 
       PAW data deallocated on   30 nodes for type:  3

     total cpu time spent up to now is      145.1 secs

     Self-consistent Calculation

     iteration #  1     ecut=    40.00 Ry     beta= 0.40
     Davidson diagonalization with overlap

---- Real-time Memory Report at c_bands before calling an iterative solver
           213 MiB given to the printing process from OS
             0 MiB allocation reported by mallinfo(arena+hblkhd)
         15771 MiB available memory on the node where the printing process lives
------------------
     ethr =  1.00E-02,  avg # of iterations =  8.5

     negative rho (up, down):  2.280E-03 0.000E+00

     total cpu time spent up to now is      711.7 secs

     total energy              =  -22288.01091273 Ry
     estimated scf accuracy    <      12.31273195 Ry

     iteration #  2     ecut=    40.00 Ry     beta= 0.40
     Davidson diagonalization with overlap

---- Real-time Memory Report at c_bands before calling an iterative solver
           306 MiB given to the printing process from OS
             0 MiB allocation reported by mallinfo(arena+hblkhd)
         14483 MiB available memory on the node where the printing process lives
------------------
     ethr =  1.24E-03,  avg # of iterations = 12.2

     negative rho (up, down):  3.462E-03 0.000E+00

     total cpu time spent up to now is     1290.1 secs

     total energy              =  -22274.19441398 Ry
     estimated scf accuracy    <     314.83417762 Ry

     iteration #  3     ecut=    40.00 Ry     beta= 0.40
     Davidson diagonalization with overlap

---- Real-time Memory Report at c_bands before calling an iterative solver
           318 MiB given to the printing process from OS
             0 MiB allocation reported by mallinfo(arena+hblkhd)
         14454 MiB available memory on the node where the printing process lives
------------------
     ethr =  1.24E-03,  avg # of iterations =  9.5

     negative rho (up, down):  3.354E-03 0.000E+00

     total cpu time spent up to now is     1981.7 secs

     total energy              =  -22292.82590198 Ry
     estimated scf accuracy    <      12.74489513 Ry

     iteration #  4     ecut=    40.00 Ry     beta= 0.40
     Davidson diagonalization with overlap

---- Real-time Memory Report at c_bands before calling an iterative solver
           319 MiB given to the printing process from OS
             0 MiB allocation reported by mallinfo(arena+hblkhd)
         14415 MiB available memory on the node where the printing process lives
------------------
     ethr =  1.24E-03,  avg # of iterations =  3.0

     negative rho (up, down):  3.274E-03 0.000E+00

     total cpu time spent up to now is     2455.0 secs

     total energy              =  -22293.71410015 Ry
     estimated scf accuracy    <       5.72902807 Ry

     iteration #  5     ecut=    40.00 Ry     beta= 0.40
     Davidson diagonalization with overlap

---- Real-time Memory Report at c_bands before calling an iterative solver
           319 MiB given to the printing process from OS
             0 MiB allocation reported by mallinfo(arena+hblkhd)
         14385 MiB available memory on the node where the printing process lives
------------------
     ethr =  5.75E-04,  avg # of iterations =  2.0

     negative rho (up, down):  3.303E-03 0.000E+00

     total cpu time spent up to now is     2910.8 secs

     total energy              =  -22294.02314095 Ry
     estimated scf accuracy    <       0.40061352 Ry

     iteration #  6     ecut=    40.00 Ry     beta= 0.40
     Davidson diagonalization with overlap

---- Real-time Memory Report at c_bands before calling an iterative solver
           320 MiB given to the printing process from OS
             0 MiB allocation reported by mallinfo(arena+hblkhd)
         14359 MiB available memory on the node where the printing process lives
------------------
     ethr =  4.02E-05,  avg # of iterations = 12.5

     negative rho (up, down):  3.423E-03 0.000E+00

     total cpu time spent up to now is     3425.6 secs

     total energy              =  -22294.03345401 Ry
     estimated scf accuracy    <       0.16691665 Ry

     iteration #  7     ecut=    40.00 Ry     beta= 0.40
     Davidson diagonalization with overlap

---- Real-time Memory Report at c_bands before calling an iterative solver
           326 MiB given to the printing process from OS
             0 MiB allocation reported by mallinfo(arena+hblkhd)
         14329 MiB available memory on the node where the printing process lives
------------------
     ethr =  1.68E-05,  avg # of iterations = 10.2

     negative rho (up, down):  3.504E-03 0.000E+00

     total cpu time spent up to now is     3908.7 secs

     total energy              =  -22294.03293370 Ry
     estimated scf accuracy    <       0.05275469 Ry

     iteration #  8     ecut=    40.00 Ry     beta= 0.40
     Davidson diagonalization with overlap

---- Real-time Memory Report at c_bands before calling an iterative solver
           326 MiB given to the printing process from OS
             0 MiB allocation reported by mallinfo(arena+hblkhd)
         14299 MiB available memory on the node where the printing process lives
------------------
     ethr =  5.30E-06,  avg # of iterations = 11.2

     negative rho (up, down):  3.534E-03 0.000E+00

     total cpu time spent up to now is     4409.9 secs

     total energy              =  -22294.03179787 Ry
     estimated scf accuracy    <       0.04966871 Ry

     iteration #  9     ecut=    40.00 Ry     beta= 0.40
     Davidson diagonalization with overlap

---- Real-time Memory Report at c_bands before calling an iterative solver
           327 MiB given to the printing process from OS
             0 MiB allocation reported by mallinfo(arena+hblkhd)
         14267 MiB available memory on the node where the printing process lives
------------------
     ethr =  4.99E-06,  avg # of iterations =  2.8

     negative rho (up, down):  3.556E-03 0.000E+00

     total cpu time spent up to now is     4871.8 secs

     total energy              =  -22294.02966749 Ry
     estimated scf accuracy    <       0.02797579 Ry

     iteration # 10     ecut=    40.00 Ry     beta= 0.40
     Davidson diagonalization with overlap

---- Real-time Memory Report at c_bands before calling an iterative solver
           327 MiB given to the printing process from OS
             0 MiB allocation reported by mallinfo(arena+hblkhd)
         14242 MiB available memory on the node where the printing process lives
------------------
     c_bands:  1 eigenvalues not converged
     c_bands:  2 eigenvalues not converged
     c_bands:  1 eigenvalues not converged
     ethr =  2.81E-06,  avg # of iterations = 17.5

     negative rho (up, down):  3.576E-03 0.000E+00

     total cpu time spent up to now is     5385.2 secs

     total energy              =  -22294.02578257 Ry
     estimated scf accuracy    <       0.02048638 Ry

     iteration # 11     ecut=    40.00 Ry     beta= 0.40
     Davidson diagonalization with overlap

---- Real-time Memory Report at c_bands before calling an iterative solver
           328 MiB given to the printing process from OS
             0 MiB allocation reported by mallinfo(arena+hblkhd)
         14230 MiB available memory on the node where the printing process lives
------------------
     ethr =  2.06E-06,  avg # of iterations = 12.8

     negative rho (up, down):  3.637E-03 0.000E+00

     total cpu time spent up to now is     5881.6 secs

     total energy              =  -22294.01588252 Ry
     estimated scf accuracy    <       0.01371397 Ry

     iteration # 12     ecut=    40.00 Ry     beta= 0.40
     Davidson diagonalization with overlap

---- Real-time Memory Report at c_bands before calling an iterative solver
           328 MiB given to the printing process from OS
             0 MiB allocation reported by mallinfo(arena+hblkhd)
         14215 MiB available memory on the node where the printing process lives
------------------
     ethr =  1.38E-06,  avg # of iterations = 16.0

     negative rho (up, down):  3.630E-03 0.000E+00

     total cpu time spent up to now is     6461.7 secs

     total energy              =  -22294.01388926 Ry
     estimated scf accuracy    <       0.00464609 Ry

     iteration # 13     ecut=    40.00 Ry     beta= 0.40
     Davidson diagonalization with overlap

---- Real-time Memory Report at c_bands before calling an iterative solver
           328 MiB given to the printing process from OS
             0 MiB allocation reported by mallinfo(arena+hblkhd)
         14198 MiB available memory on the node where the printing process lives
------------------
     ethr =  4.66E-07,  avg # of iterations = 17.2

     negative rho (up, down):  3.601E-03 0.000E+00

     total cpu time spent up to now is     6990.9 secs

     total energy              =  -22293.99539822 Ry
     estimated scf accuracy    <       0.60841549 Ry

     iteration # 14     ecut=    40.00 Ry     beta= 0.40
     Davidson diagonalization with overlap

---- Real-time Memory Report at c_bands before calling an iterative solver
           328 MiB given to the printing process from OS
             0 MiB allocation reported by mallinfo(arena+hblkhd)
         14197 MiB available memory on the node where the printing process lives
------------------
     ethr =  4.66E-07,  avg # of iterations = 14.5

     negative rho (up, down):  3.592E-03 0.000E+00

     total cpu time spent up to now is     7511.1 secs

     total energy              =  -22294.01601215 Ry
     estimated scf accuracy    <       0.00227632 Ry

     iteration # 15     ecut=    40.00 Ry     beta= 0.40
     Davidson diagonalization with overlap

---- Real-time Memory Report at c_bands before calling an iterative solver
           328 MiB given to the printing process from OS
             0 MiB allocation reported by mallinfo(arena+hblkhd)
         14198 MiB available memory on the node where the printing process lives
------------------
     ethr =  2.29E-07,  avg # of iterations =  1.0

     negative rho (up, down):  3.590E-03 0.000E+00

     total cpu time spent up to now is     7886.8 secs

     total energy              =  -22294.01599412 Ry
     estimated scf accuracy    <       0.00144717 Ry

     iteration # 16     ecut=    40.00 Ry     beta= 0.40
     Davidson diagonalization with overlap

---- Real-time Memory Report at c_bands before calling an iterative solver
           328 MiB given to the printing process from OS
             0 MiB allocation reported by mallinfo(arena+hblkhd)
         14199 MiB available memory on the node where the printing process lives
------------------
     ethr =  1.45E-07,  avg # of iterations =  1.0

     negative rho (up, down):  3.588E-03 0.000E+00

     total cpu time spent up to now is     8261.7 secs

     total energy              =  -22294.01603959 Ry
     estimated scf accuracy    <       0.00113342 Ry

     iteration # 17     ecut=    40.00 Ry     beta= 0.40
     Davidson diagonalization with overlap

---- Real-time Memory Report at c_bands before calling an iterative solver
           328 MiB given to the printing process from OS
             0 MiB allocation reported by mallinfo(arena+hblkhd)
         14197 MiB available memory on the node where the printing process lives
------------------
     ethr =  1.14E-07,  avg # of iterations =  1.0

     negative rho (up, down):  3.587E-03 0.000E+00

     total cpu time spent up to now is     8637.0 secs

     total energy              =  -22294.01597184 Ry
     estimated scf accuracy    <       0.00090154 Ry

     iteration # 18     ecut=    40.00 Ry     beta= 0.40
     Davidson diagonalization with overlap

---- Real-time Memory Report at c_bands before calling an iterative solver
           328 MiB given to the printing process from OS
             0 MiB allocation reported by mallinfo(arena+hblkhd)
         14197 MiB available memory on the node where the printing process lives
------------------
     ethr =  9.05E-08,  avg # of iterations =  1.0

     negative rho (up, down):  3.586E-03 0.000E+00

     total cpu time spent up to now is     9012.3 secs

     total energy              =  -22294.01600160 Ry
     estimated scf accuracy    <       0.00001903 Ry

     iteration # 19     ecut=    40.00 Ry     beta= 0.40
     Davidson diagonalization with overlap

---- Real-time Memory Report at c_bands before calling an iterative solver
           328 MiB given to the printing process from OS
             0 MiB allocation reported by mallinfo(arena+hblkhd)
         14197 MiB available memory on the node where the printing process lives
------------------
     ethr =  1.91E-09,  avg # of iterations =  2.0

     negative rho (up, down):  3.586E-03 0.000E+00

     total cpu time spent up to now is     9471.8 secs

     total energy              =  -22294.01600611 Ry
     estimated scf accuracy    <       0.00005821 Ry

     iteration # 20     ecut=    40.00 Ry     beta= 0.40
     Davidson diagonalization with overlap

---- Real-time Memory Report at c_bands before calling an iterative solver
           328 MiB given to the printing process from OS
             0 MiB allocation reported by mallinfo(arena+hblkhd)
         14196 MiB available memory on the node where the printing process lives
------------------
     ethr =  1.91E-09,  avg # of iterations =  1.0

     negative rho (up, down):  3.585E-03 0.000E+00

     total cpu time spent up to now is     9846.6 secs

     total energy              =  -22294.01600592 Ry
     estimated scf accuracy    <       0.00002517 Ry

     iteration # 21     ecut=    40.00 Ry     beta= 0.40
     Davidson diagonalization with overlap

---- Real-time Memory Report at c_bands before calling an iterative solver
           328 MiB given to the printing process from OS
             0 MiB allocation reported by mallinfo(arena+hblkhd)
         14198 MiB available memory on the node where the printing process lives
------------------
     ethr =  1.91E-09,  avg # of iterations =  1.0

     negative rho (up, down):  3.585E-03 0.000E+00

     total cpu time spent up to now is    10221.6 secs

     total energy              =  -22294.01600527 Ry
     estimated scf accuracy    <       0.00001306 Ry

     iteration # 22     ecut=    40.00 Ry     beta= 0.40
     Davidson diagonalization with overlap

---- Real-time Memory Report at c_bands before calling an iterative solver
           328 MiB given to the printing process from OS
             0 MiB allocation reported by mallinfo(arena+hblkhd)
         14199 MiB available memory on the node where the printing process lives
------------------
     ethr =  1.31E-09,  avg # of iterations =  1.0

     negative rho (up, down):  3.585E-03 0.000E+00

     total cpu time spent up to now is    10596.6 secs

     total energy              =  -22294.01600535 Ry
     estimated scf accuracy    <       0.00000162 Ry

     iteration # 23     ecut=    40.00 Ry     beta= 0.40
     Davidson diagonalization with overlap

---- Real-time Memory Report at c_bands before calling an iterative solver
           328 MiB given to the printing process from OS
             0 MiB allocation reported by mallinfo(arena+hblkhd)
         14195 MiB available memory on the node where the printing process lives
------------------
     ethr =  1.62E-10,  avg # of iterations =  1.0

     negative rho (up, down):  3.585E-03 0.000E+00

     total cpu time spent up to now is    10971.6 secs

     End of self-consistent calculation

          k = 0.0000 0.0000 0.0000 ( 64855 PWs)   bands (ev):

  -124.7718-124.7675-124.7662-124.7659-124.7658-124.7653-124.7650-124.7648
  -124.7643-124.7639-124.7638-124.7636-124.7631-124.7628-124.7624-124.7621
  -124.7618-124.7603-124.7586-124.7555-124.7545-124.7544-124.7544-124.7540
  -124.7535-124.7535-124.7533-124.7528-124.7527-124.7525-124.7525-124.7524
  -124.7524-124.7521-124.7520-124.7514-124.7512-124.7511-124.7510-124.7510
  -124.7509-124.7507-124.7505-124.7503-124.7500-124.7499-124.7499-124.7497
   -78.9300 -78.9296 -78.9295 -78.9278 -78.9276 -78.9274 -78.9272 -78.9272
   -78.9271 -78.9270 -78.9267 -78.9264 -78.9260 -78.9257 -78.9255 -78.9253
   -78.9248 -78.9245 -78.9239 -78.9235 -78.9231 -78.9230 -78.9216 -78.9210
   -78.9209 -78.9209 -78.9207 -78.9206 -78.9205 -78.9202 -78.9200 -78.9196
   -78.9195 -78.9189 -78.9186 -78.9171 -78.9166 -78.9165 -78.9153 -78.9151
   -78.9150 -78.9147 -78.9146 -78.9145 -78.9102 -78.9098 -78.9096 -78.9096
   -78.9094 -78.9092 -78.9091 -78.9087 -78.9082 -78.9078 -78.9073 -78.9072
   -78.9071 -78.9070 -78.9070 -78.9065 -78.9065 -78.9063 -78.9056 -78.9054
   -78.9048 -78.9042 -78.9039 -78.9039 -78.9039 -78.9038 -78.9037 -78.9035
   -78.9034 -78.9034 -78.9031 -78.9030 -78.9028 -78.9026 -78.9024 -78.9023
   -78.9020 -78.9020 -78.9018 -78.9017 -78.9016 -78.9015 -78.9015 -78.9013
   -78.9013 -78.9012 -78.9010 -78.9007 -78.9006 -78.9005 -78.9005 -78.9005
   -78.9004 -78.9003 -78.9002 -78.9001 -78.9001 -78.8996 -78.8993 -78.8992
   -78.8991 -78.8990 -78.8990 -78.8987 -78.8985 -78.8983 -78.8982 -78.8979
   -78.8979 -78.8978 -78.8976 -78.8975 -78.8969 -78.8960 -78.8959 -78.8956
   -78.8954 -78.8952 -78.8952 -78.8950 -78.8950 -78.8949 -78.8937 -78.8934
   -78.8931 -78.8919 -78.8915 -78.8913 -78.8908 -78.8907 -78.8906 -78.8904
   -78.8904 -78.8903 -78.8899 -78.8898 -78.8875 -78.8873 -78.8856 -78.8856
   -16.7941 -14.4228 -12.0247 -11.6140  -8.7818  -8.5472  -8.3310  -7.2704
    -6.8905  -6.7975  -6.7902  -6.7885  -6.7877  -6.7866  -6.7858  -6.7482
    -6.6129  -6.6127  -6.6126  -6.5698  -6.5684  -6.5678  -6.5659  -6.5518
    -6.5514  -6.5513  -6.3969  -6.3965  -6.3963  -6.3959  -6.3955  -6.3950
    -6.3779  -6.3775  -6.3775  -6.3771  -6.3769  -6.3767  -6.3195  -6.3194
    -6.3193  -6.2169  -6.2166  -6.2161  -6.2159  -6.2153  -6.2152  -6.1672
    -6.1668  -6.1663  -6.1622  -6.1620  -6.1614  -6.1614  -6.1611  -6.1608
    -6.1389  -6.1386  -6.1383  -6.1381  -6.1371  -6.1370  -6.0671  -6.0419
    -6.0414  -6.0411  -6.0408  -6.0404  -6.0404  -6.0317  -6.0314  -6.0304
    -6.0303  -6.0297  -6.0295  -6.0270  -6.0268  -6.0266  -6.0264  -6.0262
    -6.0260  -5.9967  -5.9964  -5.9959  -5.9956  -5.9950  -5.9950  -5.9560
    -5.9558  -5.9554  -5.9204  -5.9200  -5.9194  -5.9192  -5.9190  -5.9188
    -5.8541  -5.8530  -5.8530  -5.8526  -5.8525  -5.8524  -5.8214  -5.8214
    -5.8067  -5.8067  -5.7854  -5.7854  -5.7681  -5.7680  -5.7679  -5.7676
    -5.7674  -5.7672  -5.7512  -5.7506  -5.7503  -5.7499  -5.7498  -5.7495
    -5.7108  -5.7108  -5.7099  -5.7091  -5.7089  -5.7088  -5.6455  -5.6455
    -5.6449  -5.6448  -5.6446  -5.6441  -5.6439  -5.6438  -5.6432  -5.6430
    -5.6429  -5.6427  -5.6163  -5.6162  -5.6160  -5.6156  -5.6153  -5.6150
    -5.6125  -5.6121  -5.6119  -5.6118  -5.6117  -5.6115  -5.5818  -5.5815
    -5.5812  -5.5713  -5.5711  -5.5706  -5.5700  -5.5698  -5.5694  -5.5677
    -5.5190  -5.5176  -5.5171  -5.4988  -5.4986  -5.4983  -5.4980  -5.4978
    -5.4978  -5.4430  -5.4373  -5.4371  -5.4370  -5.4364  -5.4363  -5.4361
    -5.4169  -5.4162  -5.4150  -5.4134  -5.4132  -5.4130  -5.4129  -5.4126
    -5.4124  -5.4114  -5.4111  -5.4110  -5.4109  -5.4107  -5.4097  -5.4015
    -5.4012  -5.4005  -5.4002  -5.4001  -5.3995  -5.3994  -5.3992  -5.3987
    -5.3985  -5.3982  -5.3887  -5.3885  -5.3881  -5.3877  -5.3876  -5.3875
    -5.3781  -5.3582  -5.3581  -5.3144  -5.3143  -5.3134  -5.3131  -5.3130
    -5.3129  -5.2732  -5.2731  -5.2727  -5.2708  -5.2700  -5.2699  -5.2699
    -5.2695  -5.2458  -5.2456  -5.2455  -5.2327  -5.2325  -5.2321  -5.2316
    -5.2315  -5.2315  -5.2132  -5.2132  -5.1944  -5.1937  -5.1936  -5.1932
    -5.1928  -5.1928  -5.1032  -5.1030  -5.1028  -5.1026  -5.1023  -5.1023
    -4.9773  -4.9772  -4.9768  -4.9707  -4.9705  -4.9700  -4.9638  -4.9638
    -4.9636  -4.2537  -4.2529  -4.2406  -4.2393  -4.2383  -4.2379  -4.1475
    -4.1467  -3.7721  -3.3417  -3.1667  -2.2606  -1.9341  -1.9253  -1.9225
    -1.9210  -1.9195  -1.9187  -1.8441  -1.8438  -1.8432  -1.8424  -1.8409
    -1.8405  -1.7852  -1.3162  -0.5706  -0.5610  -0.5606  -0.5604  -0.5010
    -0.4988  -0.4985  -0.4978  -0.4977  -0.4961   0.1107   0.1528   0.1533
     0.1541   0.3931   0.3940   0.3963   1.3472   1.6372   1.6440   1.6447
     1.6453   1.6483   1.6552   1.7008   1.7072   1.7186   1.7228   1.7234
     1.7497   2.4415   2.4429   2.4444   3.1576   3.4136   3.4143   3.4146
     4.2463   4.2503   4.2520   4.8690   4.9141   4.9388   4.9424   4.9475
     4.9712   5.1952   5.2498   5.4669   5.5275   5.5353   5.5546   5.5578
     5.5587   5.5639   5.6940   5.6991   5.6999   5.7019   5.7038   5.7044
     5.7101   5.8710   5.8717   5.8740   5.8751   5.8758   5.8763   6.3230
     6.4957   6.6453   6.6834   6.6876   6.7558   6.7894   7.0624   7.0845
     7.1034   7.1078   7.1500   7.1528   7.1537   7.1549   7.1575   7.1583
     7.1594   7.2122   7.2861   7.2991   7.3153   7.3187   7.3224   7.3235
     7.3246   7.3816   7.4207   7.5154   7.8638   8.0105   8.0396   8.0593
     8.1244   8.1753   8.2037   8.2162   8.2284   8.2463   8.2739   8.2836
     8.3599   8.3760   8.3836   8.4296   8.4522   8.4570   8.4780   8.4903
     8.5417   8.5690   8.8391   9.2107   9.3199   9.3387

     occupation numbers 
     1.0000   1.0000   1.0000   1.0000   1.0000   1.0000   1.0000   1.0000
     1.0000   1.0000   1.0000   1.0000   1.0000   1.0000   1.0000   1.0000
     1.0000   1.0000   1.0000   1.0000   1.0000   1.0000   1.0000   1.0000
     1.0000   1.0000   1.0000   1.0000   1.0000   1.0000   1.0000   1.0000
     1.0000   1.0000   1.0000   1.0000   1.0000   1.0000   1.0000   1.0000
     1.0000   1.0000   1.0000   1.0000   1.0000   1.0000   1.0000   1.0000
     1.0000   1.0000   1.0000   1.0000   1.0000   1.0000   1.0000   1.0000
     1.0000   1.0000   1.0000   1.0000   1.0000   1.0000   1.0000   1.0000
     1.0000   1.0000   1.0000   1.0000   1.0000   1.0000   1.0000   1.0000
     1.0000   1.0000   1.0000   1.0000   1.0000   1.0000   1.0000   1.0000
     1.0000   1.0000   1.0000   1.0000   1.0000   1.0000   1.0000   1.0000
     1.0000   1.0000   1.0000   1.0000   1.0000   1.0000   1.0000   1.0000
     1.0000   1.0000   1.0000   1.0000   1.0000   1.0000   1.0000   1.0000
     1.0000   1.0000   1.0000   1.0000   1.0000   1.0000   1.0000   1.0000
     1.0000   1.0000   1.0000   1.0000   1.0000   1.0000   1.0000   1.0000
     1.0000   1.0000   1.0000   1.0000   1.0000   1.0000   1.0000   1.0000
     1.0000   1.0000   1.0000   1.0000   1.0000   1.0000   1.0000   1.0000
     1.0000   1.0000   1.0000   1.0000   1.0000   1.0000   1.0000   1.0000
     1.0000   1.0000   1.0000   1.0000   1.0000   1.0000   1.0000   1.0000
     1.0000   1.0000   1.0000   1.0000   1.0000   1.0000   1.0000   1.0000
     1.0000   1.0000   1.0000   1.0000   1.0000   1.0000   1.0000   1.0000
     1.0000   1.0000   1.0000   1.0000   1.0000   1.0000   1.0000   1.0000
     1.0000   1.0000   1.0000   1.0000   1.0000   1.0000   1.0000   1.0000
     1.0000   1.0000   1.0000   1.0000   1.0000   1.0000   1.0000   1.0000
     1.0000   1.0000   1.0000   1.0000   1.0000   1.0000   1.0000   1.0000
     1.0000   1.0000   1.0000   1.0000   1.0000   1.0000   1.0000   1.0000
     1.0000   1.0000   1.0000   1.0000   1.0000   1.0000   1.0000   1.0000
     1.0000   1.0000   1.0000   1.0000   1.0000   1.0000   1.0000   1.0000
     1.0000   1.0000   1.0000   1.0000   1.0000   1.0000   1.0000   1.0000
     1.0000   1.0000   1.0000   1.0000   1.0000   1.0000   1.0000   1.0000
     1.0000   1.0000   1.0000   1.0000   1.0000   1.0000   1.0000   1.0000
     1.0000   1.0000   1.0000   1.0000   1.0000   1.0000   1.0000   1.0000
     1.0000   1.0000   1.0000   1.0000   1.0000   1.0000   1.0000   1.0000
     1.0000   1.0000   1.0000   1.0000   1.0000   1.0000   1.0000   1.0000
     1.0000   1.0000   1.0000   1.0000   1.0000   1.0000   1.0000   1.0000
     1.0000   1.0000   1.0000   1.0000   1.0000   1.0000   1.0000   1.0000
     1.0000   1.0000   1.0000   1.0000   1.0000   1.0000   1.0000   1.0000
     1.0000   1.0000   1.0000   1.0000   1.0000   1.0000   1.0000   1.0000
     1.0000   1.0000   1.0000   1.0000   1.0000   1.0000   1.0000   1.0000
     1.0000   1.0000   1.0000   1.0000   1.0000   1.0000   1.0000   1.0000
     1.0000   1.0000   1.0000   1.0000   1.0000   1.0000   1.0000   1.0000
     1.0000   1.0000   1.0000   1.0000   1.0000   1.0000   1.0000   1.0000
     1.0000   1.0000   1.0000   1.0000   1.0000   1.0000   1.0000   1.0000
     1.0000   1.0000   1.0000   1.0000   1.0000   1.0000   1.0000   1.0000
     1.0000   1.0000   1.0000   1.0000   1.0000   1.0000   1.0000   1.0000
     1.0000   1.0000   1.0000   1.0000   1.0000   1.0000   1.0000   1.0000
     1.0000   1.0000   1.0000   1.0000   1.0000   1.0000   1.0000   1.0000
     1.0000   1.0000   1.0000   1.0000   1.0000   1.0000   1.0000   1.0000
     1.0000   1.0000   1.0000   1.0000   1.0000   1.0000   1.0000   1.0000
     1.0000   1.0000   1.0000   1.0000   1.0000   1.0000   1.0000   1.0000
     1.0000   1.0000   1.0000   1.0000   1.0000   1.0000   1.0000   1.0000
     1.0000   1.0000   1.0000   1.0000   1.0000   1.0000   1.0000   1.0000
     1.0000   1.0000   1.0000   1.0000   1.0000   1.0000   1.0000   1.0000
     1.0000   1.0000   1.0000   1.0000   1.0000   1.0000   1.0000   1.0000
     1.0000   1.0000   1.0000   1.0000   1.0000   1.0000   1.0000   1.0000
     1.0000   1.0000   1.0000   1.0000   1.0000   1.0000   1.0000   1.0000
     1.0000   1.0000   1.0000   1.0000   1.0000   1.0000   1.0000   1.0000
     1.0000   1.0000   1.0000   1.0000   1.0000   1.0000   1.0000   1.0000
     1.0000   1.0000   1.0000   1.0000   1.0000   1.0000   1.0000   1.0000
     1.0000   1.0000   1.0000   1.0000   1.0000   1.0000   1.0000   1.0000
     1.0000   1.0000   1.0000   1.0000   1.0000   1.0000   1.0000   1.0000
     1.0000   1.0000   1.0000   1.0000   1.0604   0.4522   0.4344   0.4327
     0.4312   0.4232   0.4058   0.2982   0.2843   0.2609   0.2524   0.2511
     0.2027   0.0000   0.0000   0.0000   0.0000   0.0000   0.0000   0.0000
     0.0000   0.0000   0.0000   0.0000   0.0000   0.0000   0.0000   0.0000
     0.0000   0.0000   0.0000   0.0000   0.0000   0.0000   0.0000   0.0000
     0.0000   0.0000   0.0000   0.0000   0.0000   0.0000   0.0000   0.0000
     0.0000   0.0000   0.0000   0.0000   0.0000   0.0000   0.0000   0.0000
     0.0000   0.0000   0.0000   0.0000   0.0000   0.0000   0.0000   0.0000
     0.0000   0.0000   0.0000   0.0000   0.0000   0.0000   0.0000   0.0000
     0.0000   0.0000   0.0000   0.0000   0.0000   0.0000   0.0000   0.0000
     0.0000   0.0000   0.0000   0.0000   0.0000   0.0000   0.0000   0.0000
     0.0000   0.0000   0.0000   0.0000   0.0000   0.0000   0.0000   0.0000
     0.0000   0.0000   0.0000   0.0000   0.0000   0.0000   0.0000   0.0000
     0.0000   0.0000   0.0000   0.0000   0.0000   0.0000

          k = 0.0000-0.5774 0.0000 ( 64842 PWs)   bands (ev):

  -124.7718-124.7674-124.7667-124.7660-124.7654-124.7653-124.7650-124.7647
  -124.7644-124.7639-124.7638-124.7635-124.7631-124.7628-124.7624-124.7621
  -124.7617-124.7603-124.7586-124.7554-124.7548-124.7543-124.7540-124.7540
  -124.7539-124.7537-124.7535-124.7527-124.7527-124.7525-124.7524-124.7524
  -124.7521-124.7520-124.7518-124.7513-124.7513-124.7512-124.7512-124.7510
  -124.7509-124.7507-124.7505-124.7502-124.7501-124.7500-124.7499-124.7495
   -78.9292 -78.9292 -78.9287 -78.9285 -78.9277 -78.9271 -78.9268 -78.9265
   -78.9262 -78.9261 -78.9257 -78.9253 -78.9252 -78.9248 -78.9247 -78.9247
   -78.9242 -78.9241 -78.9240 -78.9240 -78.9234 -78.9228 -78.9226 -78.9218
   -78.9214 -78.9213 -78.9209 -78.9204 -78.9199 -78.9198 -78.9186 -78.9186
   -78.9185 -78.9184 -78.9183 -78.9169 -78.9167 -78.9165 -78.9164 -78.9162
   -78.9162 -78.9160 -78.9158 -78.9155 -78.9149 -78.9148 -78.9135 -78.9127
   -78.9126 -78.9115 -78.9112 -78.9111 -78.9111 -78.9104 -78.9104 -78.9097
   -78.9085 -78.9078 -78.9071 -78.9062 -78.9061 -78.9055 -78.9052 -78.9050
   -78.9038 -78.9036 -78.9035 -78.9033 -78.9031 -78.9030 -78.9028 -78.9023
   -78.9022 -78.9020 -78.9018 -78.9017 -78.9017 -78.9015 -78.9010 -78.9009
   -78.9008 -78.9007 -78.9006 -78.9005 -78.9003 -78.9002 -78.9002 -78.9002
   -78.9000 -78.8998 -78.8997 -78.8996 -78.8995 -78.8994 -78.8993 -78.8992
   -78.8991 -78.8991 -78.8990 -78.8990 -78.8988 -78.8986 -78.8986 -78.8985
   -78.8984 -78.8982 -78.8981 -78.8979 -78.8979 -78.8978 -78.8978 -78.8977
   -78.8977 -78.8975 -78.8974 -78.8973 -78.8968 -78.8966 -78.8964 -78.8959
   -78.8956 -78.8951 -78.8948 -78.8948 -78.8948 -78.8943 -78.8943 -78.8942
   -78.8941 -78.8935 -78.8933 -78.8926 -78.8923 -78.8920 -78.8912 -78.8909
   -78.8909 -78.8908 -78.8901 -78.8899 -78.8894 -78.8881 -78.8870 -78.8869
   -16.7941 -14.4228 -12.0247 -11.6140  -8.7819  -8.5465  -7.8664  -7.8624
    -7.0287  -7.0281  -6.8986  -6.8922  -6.7541  -6.6558  -6.6539  -6.5668
    -6.5647  -6.5645  -6.4974  -6.4950  -6.4841  -6.4832  -6.4557  -6.4556
    -6.4532  -6.4530  -6.4119  -6.4111  -6.4091  -6.4090  -6.3912  -6.3901
    -6.3887  -6.3882  -6.3695  -6.3694  -6.3693  -6.3692  -6.3561  -6.3556
    -6.3270  -6.3270  -6.2764  -6.2760  -6.2751  -6.2751  -6.2740  -6.2740
    -6.2737  -6.2736  -6.2453  -6.2452  -6.2445  -6.2438  -6.2435  -6.2430
    -6.1916  -6.1915  -6.1452  -6.1452  -6.1307  -6.1306  -6.1304  -6.1303
    -6.1278  -6.1277  -6.1170  -6.1157  -6.1065  -6.1053  -6.1042  -6.1039
    -6.0492  -6.0489  -6.0489  -6.0489  -6.0334  -6.0322  -6.0319  -6.0317
    -6.0202  -6.0197  -6.0018  -6.0018  -5.9527  -5.9525  -5.9394  -5.9388
    -5.9386  -5.9384  -5.9246  -5.9238  -5.9228  -5.9227  -5.9077  -5.9076
    -5.9045  -5.9043  -5.8846  -5.8828  -5.8800  -5.8792  -5.8713  -5.8706
    -5.8344  -5.8341  -5.8339  -5.8336  -5.8302  -5.8296  -5.8216  -5.8211
    -5.8210  -5.8208  -5.7649  -5.7648  -5.7487  -5.7485  -5.7355  -5.7337
    -5.7088  -5.7063  -5.6973  -5.6950  -5.6755  -5.6749  -5.6740  -5.6738
    -5.6736  -5.6734  -5.6413  -5.6409  -5.6407  -5.6406  -5.6368  -5.6367
    -5.6133  -5.6132  -5.6067  -5.6061  -5.6060  -5.6058  -5.5938  -5.5925
    -5.5881  -5.5872  -5.5870  -5.5869  -5.5598  -5.5594  -5.5543  -5.5530
    -5.5441  -5.5436  -5.5434  -5.5432  -5.5431  -5.5430  -5.5111  -5.5083
    -5.4864  -5.4862  -5.4830  -5.4803  -5.4799  -5.4797  -5.4734  -5.4732
    -5.4689  -5.4683  -5.4678  -5.4678  -5.4465  -5.4462  -5.4407  -5.4376
    -5.4258  -5.4078  -5.4075  -5.4071  -5.4038  -5.3996  -5.3979  -5.3921
    -5.3914  -5.3800  -5.3795  -5.3735  -5.3697  -5.3602  -5.3594  -5.3591
    -5.3572  -5.3545  -5.3538  -5.3534  -5.3533  -5.3532  -5.3527  -5.3352
    -5.3347  -5.3345  -5.3345  -5.3199  -5.3196  -5.3149  -5.3149  -5.3147
    -5.3146  -5.3100  -5.3099  -5.3097  -5.3096  -5.3029  -5.3029  -5.2889
    -5.2875  -5.2701  -5.2696  -5.2650  -5.2640  -5.2556  -5.2556  -5.2240
    -5.2237  -5.2175  -5.2167  -5.2069  -5.2064  -5.2057  -5.2053  -5.2018
    -5.2016  -5.2014  -5.2014  -5.1648  -5.1648  -5.1645  -5.1644  -5.1460
    -5.1447  -5.1442  -5.1438  -5.1062  -5.1051  -5.0971  -5.0962  -5.0926
    -5.0917  -5.0740  -5.0732  -5.0731  -5.0728  -5.0449  -5.0436  -4.5397
    -4.5394  -4.1915  -4.1875  -4.1848  -4.1845  -4.1548  -4.1529  -3.7729
    -3.4736  -3.4718  -3.1682  -3.0084  -3.0066  -2.9178  -2.9171  -2.9162
    -2.9159  -2.3104  -2.2938  -2.2375  -2.0968  -2.0932  -1.7915  -1.4952
    -1.4939  -1.4910  -1.4905  -1.3182  -0.6579  -0.6558  -0.6544  -0.6527
    -0.1844  -0.1825  -0.1801  -0.1789   0.0488   0.0504   0.1105   0.1183
     0.1210   1.1674   1.1823   1.3081   1.3087   1.3874   1.5456   1.5474
     1.5480   1.5587   1.5859   1.5864   2.3721   2.3745   3.0906   3.0917
     3.0924   3.0941   3.2202   3.2289   3.2353   3.2420   3.4535   3.4578
     3.6059   3.6130   4.0056   4.0065   4.0079   4.0089   4.1248   4.1303
     4.4918   4.5065   4.5181   4.5207   4.8622   4.8685   5.0768   5.0795
     5.1792   5.5909   5.6168   5.6304   5.6645   5.7395   5.9203   5.9344
     5.9368   5.9454   6.0259   6.0413   6.0518   6.0629   6.0876   6.0916
     6.0935   6.0940   6.1896   6.2103   6.2419   6.2624   6.5705   6.6167
     6.6878   6.7011   6.7022   6.7700   6.8667   6.8858   6.9215   7.0198
     7.0638   7.0749   7.2663   7.2679   7.2724   7.2748   7.6448   7.7153
     7.7370   7.8509   7.9412   8.1126   8.1726   8.1981   8.2387   8.2925
     8.3442   8.3530   8.3781   8.4623   8.4871   8.5648   8.7013   8.7577
     8.7750   8.7804   8.8326   8.8367   8.8641   8.8963   8.9266   8.9672
     8.9739   9.0404   9.0538   9.1325   9.2037   9.2048

     occupation numbers 
     1.0000   1.0000   1.0000   1.0000   1.0000   1.0000   1.0000   1.0000
     1.0000   1.0000   1.0000   1.0000   1.0000   1.0000   1.0000   1.0000
     1.0000   1.0000   1.0000   1.0000   1.0000   1.0000   1.0000   1.0000
     1.0000   1.0000   1.0000   1.0000   1.0000   1.0000   1.0000   1.0000
     1.0000   1.0000   1.0000   1.0000   1.0000   1.0000   1.0000   1.0000
     1.0000   1.0000   1.0000   1.0000   1.0000   1.0000   1.0000   1.0000
     1.0000   1.0000   1.0000   1.0000   1.0000   1.0000   1.0000   1.0000
     1.0000   1.0000   1.0000   1.0000   1.0000   1.0000   1.0000   1.0000
     1.0000   1.0000   1.0000   1.0000   1.0000   1.0000   1.0000   1.0000
     1.0000   1.0000   1.0000   1.0000   1.0000   1.0000   1.0000   1.0000
     1.0000   1.0000   1.0000   1.0000   1.0000   1.0000   1.0000   1.0000
     1.0000   1.0000   1.0000   1.0000   1.0000   1.0000   1.0000   1.0000
     1.0000   1.0000   1.0000   1.0000   1.0000   1.0000   1.0000   1.0000
     1.0000   1.0000   1.0000   1.0000   1.0000   1.0000   1.0000   1.0000
     1.0000   1.0000   1.0000   1.0000   1.0000   1.0000   1.0000   1.0000
     1.0000   1.0000   1.0000   1.0000   1.0000   1.0000   1.0000   1.0000
     1.0000   1.0000   1.0000   1.0000   1.0000   1.0000   1.0000   1.0000
     1.0000   1.0000   1.0000   1.0000   1.0000   1.0000   1.0000   1.0000
     1.0000   1.0000   1.0000   1.0000   1.0000   1.0000   1.0000   1.0000
     1.0000   1.0000   1.0000   1.0000   1.0000   1.0000   1.0000   1.0000
     1.0000   1.0000   1.0000   1.0000   1.0000   1.0000   1.0000   1.0000
     1.0000   1.0000   1.0000   1.0000   1.0000   1.0000   1.0000   1.0000
     1.0000   1.0000   1.0000   1.0000   1.0000   1.0000   1.0000   1.0000
     1.0000   1.0000   1.0000   1.0000   1.0000   1.0000   1.0000   1.0000
     1.0000   1.0000   1.0000   1.0000   1.0000   1.0000   1.0000   1.0000
     1.0000   1.0000   1.0000   1.0000   1.0000   1.0000   1.0000   1.0000
     1.0000   1.0000   1.0000   1.0000   1.0000   1.0000   1.0000   1.0000
     1.0000   1.0000   1.0000   1.0000   1.0000   1.0000   1.0000   1.0000
     1.0000   1.0000   1.0000   1.0000   1.0000   1.0000   1.0000   1.0000
     1.0000   1.0000   1.0000   1.0000   1.0000   1.0000   1.0000   1.0000
     1.0000   1.0000   1.0000   1.0000   1.0000   1.0000   1.0000   1.0000
     1.0000   1.0000   1.0000   1.0000   1.0000   1.0000   1.0000   1.0000
     1.0000   1.0000   1.0000   1.0000   1.0000   1.0000   1.0000   1.0000
     1.0000   1.0000   1.0000   1.0000   1.0000   1.0000   1.0000   1.0000
     1.0000   1.0000   1.0000   1.0000   1.0000   1.0000   1.0000   1.0000
     1.0000   1.0000   1.0000   1.0000   1.0000   1.0000   1.0000   1.0000
     1.0000   1.0000   1.0000   1.0000   1.0000   1.0000   1.0000   1.0000
     1.0000   1.0000   1.0000   1.0000   1.0000   1.0000   1.0000   1.0000
     1.0000   1.0000   1.0000   1.0000   1.0000   1.0000   1.0000   1.0000
     1.0000   1.0000   1.0000   1.0000   1.0000   1.0000   1.0000   1.0000
     1.0000   1.0000   1.0000   1.0000   1.0000   1.0000   1.0000   1.0000
     1.0000   1.0000   1.0000   1.0000   1.0000   1.0000   1.0000   1.0000
     1.0000   1.0000   1.0000   1.0000   1.0000   1.0000   1.0000   1.0000
     1.0000   1.0000   1.0000   1.0000   1.0000   1.0000   1.0000   1.0000
     1.0000   1.0000   1.0000   1.0000   1.0000   1.0000   1.0000   1.0000
     1.0000   1.0000   1.0000   1.0000   1.0000   1.0000   1.0000   1.0000
     1.0000   1.0000   1.0000   1.0000   1.0000   1.0000   1.0000   1.0000
     1.0000   1.0000   1.0000   1.0000   1.0000   1.0000   1.0000   1.0000
     1.0000   1.0000   1.0000   1.0000   1.0000   1.0000   1.0000   1.0000
     1.0000   1.0000   1.0000   1.0000   1.0000   1.0000   1.0000   1.0000
     1.0000   1.0000   1.0000   1.0000   1.0000   1.0000   1.0000   1.0000
     1.0000   1.0000   1.0000   1.0000   1.0000   1.0000   1.0000   1.0000
     1.0000   1.0000   1.0000   1.0000   1.0000   1.0000   1.0000   1.0000
     1.0000   1.0000   1.0000   1.0000   1.0000   1.0000   1.0000   1.0000
     1.0000   1.0000   1.0000   1.0000   1.0000   1.0000   1.0000   1.0000
     1.0000   1.0000   1.0000   1.0000   1.0000   1.0000   1.0000   1.0000
     1.0000   1.0000   1.0000   1.0000   1.0000   1.0000   1.0000   1.0000
     1.0000   1.0000   1.0000   1.0000   1.0000   1.0000   1.0000   1.0000
     1.0000   1.0000   1.0000   1.0000   1.0000   1.0000   1.0000   1.0000
     1.0000   1.0000   1.0000   1.0000   1.0000   1.0000   1.0000   1.0000
     1.0000   1.0000   1.0000   1.0000   1.0000   1.0000   1.0000   1.0000
     1.0000   1.0597   1.0647   1.0786   1.0785   1.0242   0.7025   0.6979
     0.6961   0.6671   0.5917   0.5906   0.0000   0.0000   0.0000   0.0000
     0.0000   0.0000   0.0000   0.0000   0.0000   0.0000   0.0000   0.0000
     0.0000   0.0000   0.0000   0.0000   0.0000   0.0000   0.0000   0.0000
     0.0000   0.0000   0.0000   0.0000   0.0000   0.0000   0.0000   0.0000
     0.0000   0.0000   0.0000   0.0000   0.0000   0.0000   0.0000   0.0000
     0.0000   0.0000   0.0000   0.0000   0.0000   0.0000   0.0000   0.0000
     0.0000   0.0000   0.0000   0.0000   0.0000   0.0000   0.0000   0.0000
     0.0000   0.0000   0.0000   0.0000   0.0000   0.0000   0.0000   0.0000
     0.0000   0.0000   0.0000   0.0000   0.0000   0.0000   0.0000   0.0000
     0.0000   0.0000   0.0000   0.0000   0.0000   0.0000   0.0000   0.0000
     0.0000   0.0000   0.0000   0.0000   0.0000   0.0000   0.0000   0.0000
     0.0000   0.0000   0.0000   0.0000   0.0000   0.0000   0.0000   0.0000
     0.0000   0.0000   0.0000   0.0000   0.0000   0.0000

          k =-0.5000-0.2887 0.0000 ( 64842 PWs)   bands (ev):

  -124.7718-124.7674-124.7663-124.7662-124.7659-124.7651-124.7649-124.7648
  -124.7643-124.7640-124.7637-124.7636-124.7633-124.7628-124.7624-124.7621
  -124.7618-124.7603-124.7586-124.7555-124.7545-124.7544-124.7541-124.7540
  -124.7539-124.7536-124.7535-124.7528-124.7527-124.7526-124.7525-124.7524
  -124.7520-124.7518-124.7518-124.7516-124.7512-124.7512-124.7511-124.7510
  -124.7509-124.7507-124.7505-124.7502-124.7501-124.7500-124.7499-124.7495
   -78.9295 -78.9293 -78.9285 -78.9282 -78.9279 -78.9276 -78.9266 -78.9264
   -78.9262 -78.9259 -78.9257 -78.9255 -78.9252 -78.9251 -78.9249 -78.9248
   -78.9242 -78.9239 -78.9239 -78.9234 -78.9233 -78.9228 -78.9227 -78.9217
   -78.9213 -78.9211 -78.9207 -78.9204 -78.9200 -78.9194 -78.9187 -78.9186
   -78.9184 -78.9184 -78.9183 -78.9173 -78.9168 -78.9164 -78.9163 -78.9163
   -78.9161 -78.9161 -78.9160 -78.9156 -78.9152 -78.9147 -78.9142 -78.9134
   -78.9127 -78.9114 -78.9112 -78.9111 -78.9111 -78.9103 -78.9103 -78.9086
   -78.9085 -78.9084 -78.9072 -78.9063 -78.9055 -78.9053 -78.9050 -78.9049
   -78.9041 -78.9037 -78.9036 -78.9036 -78.9029 -78.9026 -78.9024 -78.9023
   -78.9022 -78.9021 -78.9020 -78.9019 -78.9016 -78.9015 -78.9010 -78.9008
   -78.9007 -78.9006 -78.9005 -78.9003 -78.9002 -78.9001 -78.9000 -78.8999
   -78.8998 -78.8998 -78.8997 -78.8996 -78.8994 -78.8994 -78.8992 -78.8992
   -78.8991 -78.8991 -78.8990 -78.8990 -78.8989 -78.8987 -78.8985 -78.8984
   -78.8984 -78.8982 -78.8981 -78.8981 -78.8979 -78.8979 -78.8979 -78.8979
   -78.8978 -78.8978 -78.8975 -78.8974 -78.8974 -78.8968 -78.8967 -78.8956
   -78.8954 -78.8949 -78.8949 -78.8948 -78.8947 -78.8946 -78.8942 -78.8941
   -78.8941 -78.8935 -78.8934 -78.8927 -78.8922 -78.8917 -78.8916 -78.8909
   -78.8907 -78.8907 -78.8902 -78.8901 -78.8894 -78.8878 -78.8871 -78.8868
   -16.7941 -14.4228 -12.0247 -11.6140  -8.7818  -8.5466  -7.8662  -7.8625
    -7.0288  -7.0281  -6.8983  -6.8922  -6.7542  -6.6557  -6.6537  -6.5673
    -6.5655  -6.5642  -6.4971  -6.4955  -6.4841  -6.4833  -6.4559  -6.4555
    -6.4533  -6.4529  -6.4115  -6.4106  -6.4095  -6.4095  -6.3909  -6.3901
    -6.3887  -6.3885  -6.3695  -6.3694  -6.3693  -6.3691  -6.3560  -6.3550
    -6.3273  -6.3267  -6.2759  -6.2758  -6.2755  -6.2754  -6.2742  -6.2741
    -6.2736  -6.2735  -6.2452  -6.2448  -6.2445  -6.2441  -6.2437  -6.2431
    -6.1918  -6.1914  -6.1453  -6.1450  -6.1310  -6.1306  -6.1302  -6.1302
    -6.1281  -6.1276  -6.1171  -6.1159  -6.1060  -6.1052  -6.1043  -6.1040
    -6.0492  -6.0491  -6.0489  -6.0487  -6.0334  -6.0324  -6.0318  -6.0316
    -6.0203  -6.0197  -6.0020  -6.0016  -5.9526  -5.9525  -5.9393  -5.9390
    -5.9387  -5.9382  -5.9247  -5.9233  -5.9231  -5.9226  -5.9076  -5.9075
    -5.9046  -5.9044  -5.8850  -5.8826  -5.8802  -5.8790  -5.8716  -5.8703
    -5.8346  -5.8340  -5.8337  -5.8337  -5.8305  -5.8293  -5.8219  -5.8211
    -5.8208  -5.8206  -5.7649  -5.7648  -5.7487  -5.7485  -5.7356  -5.7338
    -5.7087  -5.7064  -5.6970  -5.6953  -5.6753  -5.6751  -5.6741  -5.6737
    -5.6735  -5.6734  -5.6415  -5.6412  -5.6408  -5.6401  -5.6367  -5.6366
    -5.6133  -5.6132  -5.6069  -5.6061  -5.6059  -5.6057  -5.5943  -5.5922
    -5.5887  -5.5870  -5.5870  -5.5866  -5.5598  -5.5593  -5.5541  -5.5532
    -5.5444  -5.5439  -5.5432  -5.5431  -5.5429  -5.5429  -5.5103  -5.5083
    -5.4866  -5.4861  -5.4834  -5.4804  -5.4797  -5.4795  -5.4735  -5.4730
    -5.4694  -5.4683  -5.4676  -5.4673  -5.4466  -5.4462  -5.4406  -5.4378
    -5.4268  -5.4078  -5.4073  -5.4071  -5.4038  -5.3999  -5.3978  -5.3922
    -5.3913  -5.3800  -5.3794  -5.3739  -5.3693  -5.3599  -5.3594  -5.3586
    -5.3574  -5.3545  -5.3541  -5.3533  -5.3532  -5.3529  -5.3527  -5.3351
    -5.3350  -5.3345  -5.3345  -5.3197  -5.3197  -5.3157  -5.3150  -5.3144
    -5.3140  -5.3102  -5.3101  -5.3096  -5.3095  -5.3030  -5.3028  -5.2892
    -5.2872  -5.2699  -5.2697  -5.2649  -5.2640  -5.2558  -5.2554  -5.2240
    -5.2238  -5.2177  -5.2165  -5.2071  -5.2065  -5.2052  -5.2052  -5.2018
    -5.2017  -5.2016  -5.2013  -5.1647  -5.1647  -5.1646  -5.1645  -5.1468
    -5.1445  -5.1439  -5.1436  -5.1069  -5.1046  -5.0977  -5.0957  -5.0927
    -5.0915  -5.0743  -5.0734  -5.0727  -5.0726  -5.0445  -5.0439  -4.5410
    -4.5388  -4.1902  -4.1878  -4.1847  -4.1846  -4.1549  -4.1524  -3.7721
    -3.4744  -3.4718  -3.1695  -3.0116  -3.0030  -2.9180  -2.9173  -2.9164
    -2.9155  -2.3042  -2.2953  -2.2417  -2.0969  -2.0931  -1.7909  -1.4937
    -1.4933  -1.4911  -1.4909  -1.3199  -0.6585  -0.6556  -0.6544  -0.6521
    -0.1852  -0.1827  -0.1791  -0.1787   0.0415   0.0556   0.1110   0.1185
     0.1203   1.1804   1.1906   1.3061   1.3088   1.3780   1.5411   1.5461
     1.5500   1.5507   1.5860   1.5873   2.3737   2.3745   3.0863   3.0923
     3.0943   3.0956   3.2185   3.2322   3.2340   3.2441   3.4557   3.4559
     3.5849   3.6305   4.0038   4.0059   4.0096   4.0099   4.1240   4.1330
     4.4817   4.5144   4.5216   4.5243   4.8652   4.8654   5.0780   5.0783
     5.1816   5.5468   5.5518   5.6261   5.6299   5.7923   5.8667   5.9291
     5.9406   6.0148   6.0196   6.0599   6.0674   6.0903   6.0906   6.0966
     6.0972   6.1068   6.1618   6.2264   6.2430   6.2795   6.5335   6.5866
     6.6786   6.7013   6.7143   6.7577   6.8049   6.8812   6.9601   6.9721
     7.1375   7.1848   7.2664   7.2689   7.2714   7.2747   7.5678   7.6625
     7.8702   7.8936   8.0849   8.1099   8.1719   8.1721   8.2011   8.2777
     8.2829   8.3465   8.3834   8.5022   8.5146   8.6802   8.6829   8.7239
     8.7743   8.7947   8.8131   8.8210   8.8354   8.8483   8.8578   8.8692
     8.9779   9.0075   9.0725   9.0856   9.1541   9.1651

     occupation numbers 
     1.0000   1.0000   1.0000   1.0000   1.0000   1.0000   1.0000   1.0000
     1.0000   1.0000   1.0000   1.0000   1.0000   1.0000   1.0000   1.0000
     1.0000   1.0000   1.0000   1.0000   1.0000   1.0000   1.0000   1.0000
     1.0000   1.0000   1.0000   1.0000   1.0000   1.0000   1.0000   1.0000
     1.0000   1.0000   1.0000   1.0000   1.0000   1.0000   1.0000   1.0000
     1.0000   1.0000   1.0000   1.0000   1.0000   1.0000   1.0000   1.0000
     1.0000   1.0000   1.0000   1.0000   1.0000   1.0000   1.0000   1.0000
     1.0000   1.0000   1.0000   1.0000   1.0000   1.0000   1.0000   1.0000
     1.0000   1.0000   1.0000   1.0000   1.0000   1.0000   1.0000   1.0000
     1.0000   1.0000   1.0000   1.0000   1.0000   1.0000   1.0000   1.0000
     1.0000   1.0000   1.0000   1.0000   1.0000   1.0000   1.0000   1.0000
     1.0000   1.0000   1.0000   1.0000   1.0000   1.0000   1.0000   1.0000
     1.0000   1.0000   1.0000   1.0000   1.0000   1.0000   1.0000   1.0000
     1.0000   1.0000   1.0000   1.0000   1.0000   1.0000   1.0000   1.0000
     1.0000   1.0000   1.0000   1.0000   1.0000   1.0000   1.0000   1.0000
     1.0000   1.0000   1.0000   1.0000   1.0000   1.0000   1.0000   1.0000
     1.0000   1.0000   1.0000   1.0000   1.0000   1.0000   1.0000   1.0000
     1.0000   1.0000   1.0000   1.0000   1.0000   1.0000   1.0000   1.0000
     1.0000   1.0000   1.0000   1.0000   1.0000   1.0000   1.0000   1.0000
     1.0000   1.0000   1.0000   1.0000   1.0000   1.0000   1.0000   1.0000
     1.0000   1.0000   1.0000   1.0000   1.0000   1.0000   1.0000   1.0000
     1.0000   1.0000   1.0000   1.0000   1.0000   1.0000   1.0000   1.0000
     1.0000   1.0000   1.0000   1.0000   1.0000   1.0000   1.0000   1.0000
     1.0000   1.0000   1.0000   1.0000   1.0000   1.0000   1.0000   1.0000
     1.0000   1.0000   1.0000   1.0000   1.0000   1.0000   1.0000   1.0000
     1.0000   1.0000   1.0000   1.0000   1.0000   1.0000   1.0000   1.0000
     1.0000   1.0000   1.0000   1.0000   1.0000   1.0000   1.0000   1.0000
     1.0000   1.0000   1.0000   1.0000   1.0000   1.0000   1.0000   1.0000
     1.0000   1.0000   1.0000   1.0000   1.0000   1.0000   1.0000   1.0000
     1.0000   1.0000   1.0000   1.0000   1.0000   1.0000   1.0000   1.0000
     1.0000   1.0000   1.0000   1.0000   1.0000   1.0000   1.0000   1.0000
     1.0000   1.0000   1.0000   1.0000   1.0000   1.0000   1.0000   1.0000
     1.0000   1.0000   1.0000   1.0000   1.0000   1.0000   1.0000   1.0000
     1.0000   1.0000   1.0000   1.0000   1.0000   1.0000   1.0000   1.0000
     1.0000   1.0000   1.0000   1.0000   1.0000   1.0000   1.0000   1.0000
     1.0000   1.0000   1.0000   1.0000   1.0000   1.0000   1.0000   1.0000
     1.0000   1.0000   1.0000   1.0000   1.0000   1.0000   1.0000   1.0000
     1.0000   1.0000   1.0000   1.0000   1.0000   1.0000   1.0000   1.0000
     1.0000   1.0000   1.0000   1.0000   1.0000   1.0000   1.0000   1.0000
     1.0000   1.0000   1.0000   1.0000   1.0000   1.0000   1.0000   1.0000
     1.0000   1.0000   1.0000   1.0000   1.0000   1.0000   1.0000   1.0000
     1.0000   1.0000   1.0000   1.0000   1.0000   1.0000   1.0000   1.0000
     1.0000   1.0000   1.0000   1.0000   1.0000   1.0000   1.0000   1.0000
     1.0000   1.0000   1.0000   1.0000   1.0000   1.0000   1.0000   1.0000
     1.0000   1.0000   1.0000   1.0000   1.0000   1.0000   1.0000   1.0000
     1.0000   1.0000   1.0000   1.0000   1.0000   1.0000   1.0000   1.0000
     1.0000   1.0000   1.0000   1.0000   1.0000   1.0000   1.0000   1.0000
     1.0000   1.0000   1.0000   1.0000   1.0000   1.0000   1.0000   1.0000
     1.0000   1.0000   1.0000   1.0000   1.0000   1.0000   1.0000   1.0000
     1.0000   1.0000   1.0000   1.0000   1.0000   1.0000   1.0000   1.0000
     1.0000   1.0000   1.0000   1.0000   1.0000   1.0000   1.0000   1.0000
     1.0000   1.0000   1.0000   1.0000   1.0000   1.0000   1.0000   1.0000
     1.0000   1.0000   1.0000   1.0000   1.0000   1.0000   1.0000   1.0000
     1.0000   1.0000   1.0000   1.0000   1.0000   1.0000   1.0000   1.0000
     1.0000   1.0000   1.0000   1.0000   1.0000   1.0000   1.0000   1.0000
     1.0000   1.0000   1.0000   1.0000   1.0000   1.0000   1.0000   1.0000
     1.0000   1.0000   1.0000   1.0000   1.0000   1.0000   1.0000   1.0000
     1.0000   1.0000   1.0000   1.0000   1.0000   1.0000   1.0000   1.0000
     1.0000   1.0000   1.0000   1.0000   1.0000   1.0000   1.0000   1.0000
     1.0000   1.0000   1.0000   1.0000   1.0000   1.0000   1.0000   1.0000
     1.0000   1.0000   1.0000   1.0000   1.0000   1.0000   1.0000   1.0000
     1.0000   1.0641   1.0674   1.0792   1.0785   1.0345   0.7146   0.7012
     0.6907   0.6887   0.5915   0.5881   0.0000   0.0000   0.0000   0.0000
     0.0000   0.0000   0.0000   0.0000   0.0000   0.0000   0.0000   0.0000
     0.0000   0.0000   0.0000   0.0000   0.0000   0.0000   0.0000   0.0000
     0.0000   0.0000   0.0000   0.0000   0.0000   0.0000   0.0000   0.0000
     0.0000   0.0000   0.0000   0.0000   0.0000   0.0000   0.0000   0.0000
     0.0000   0.0000   0.0000   0.0000   0.0000   0.0000   0.0000   0.0000
     0.0000   0.0000   0.0000   0.0000   0.0000   0.0000   0.0000   0.0000
     0.0000   0.0000   0.0000   0.0000   0.0000   0.0000   0.0000   0.0000
     0.0000   0.0000   0.0000   0.0000   0.0000   0.0000   0.0000   0.0000
     0.0000   0.0000   0.0000   0.0000   0.0000   0.0000   0.0000   0.0000
     0.0000   0.0000   0.0000   0.0000   0.0000   0.0000   0.0000   0.0000
     0.0000   0.0000   0.0000   0.0000   0.0000   0.0000   0.0000   0.0000
     0.0000   0.0000   0.0000   0.0000   0.0000   0.0000

          k =-0.5000-0.8660 0.0000 ( 64842 PWs)   bands (ev):

  -124.7718-124.7674-124.7667-124.7659-124.7655-124.7653-124.7649-124.7648
  -124.7642-124.7640-124.7638-124.7635-124.7632-124.7629-124.7624-124.7621
  -124.7617-124.7603-124.7586-124.7554-124.7548-124.7543-124.7540-124.7540
  -124.7539-124.7536-124.7535-124.7528-124.7528-124.7526-124.7524-124.7523
  -124.7522-124.7518-124.7518-124.7515-124.7513-124.7512-124.7510-124.7509
  -124.7509-124.7507-124.7505-124.7505-124.7501-124.7499-124.7498-124.7496
   -78.9292 -78.9291 -78.9287 -78.9286 -78.9276 -78.9272 -78.9269 -78.9265
   -78.9263 -78.9258 -78.9257 -78.9255 -78.9251 -78.9249 -78.9248 -78.9247
   -78.9242 -78.9241 -78.9239 -78.9239 -78.9233 -78.9228 -78.9226 -78.9218
   -78.9214 -78.9211 -78.9207 -78.9205 -78.9203 -78.9201 -78.9187 -78.9186
   -78.9186 -78.9183 -78.9183 -78.9171 -78.9164 -78.9164 -78.9163 -78.9162
   -78.9161 -78.9160 -78.9160 -78.9153 -78.9150 -78.9143 -78.9134 -78.9130
   -78.9128 -78.9114 -78.9113 -78.9110 -78.9109 -78.9106 -78.9105 -78.9097
   -78.9085 -78.9080 -78.9071 -78.9061 -78.9060 -78.9057 -78.9051 -78.9050
   -78.9039 -78.9036 -78.9036 -78.9033 -78.9029 -78.9029 -78.9027 -78.9023
   -78.9022 -78.9020 -78.9019 -78.9018 -78.9016 -78.9015 -78.9011 -78.9010
   -78.9008 -78.9007 -78.9004 -78.9004 -78.9004 -78.9002 -78.9001 -78.9000
   -78.8999 -78.8998 -78.8997 -78.8996 -78.8996 -78.8994 -78.8993 -78.8992
   -78.8992 -78.8990 -78.8990 -78.8990 -78.8989 -78.8989 -78.8987 -78.8986
   -78.8985 -78.8984 -78.8980 -78.8979 -78.8979 -78.8978 -78.8978 -78.8976
   -78.8976 -78.8975 -78.8974 -78.8971 -78.8970 -78.8967 -78.8965 -78.8959
   -78.8951 -78.8949 -78.8948 -78.8947 -78.8947 -78.8945 -78.8944 -78.8944
   -78.8943 -78.8936 -78.8932 -78.8925 -78.8925 -78.8918 -78.8916 -78.8909
   -78.8907 -78.8906 -78.8900 -78.8896 -78.8896 -78.8884 -78.8871 -78.8868
   -16.7941 -14.4228 -12.0247 -11.6140  -8.7819  -8.5465  -7.8652  -7.8636
    -7.0289  -7.0279  -6.8978  -6.8929  -6.7541  -6.6554  -6.6543  -6.5668
    -6.5654  -6.5640  -6.4968  -6.4955  -6.4843  -6.4831  -6.4549  -6.4547
    -6.4542  -6.4538  -6.4113  -6.4105  -6.4097  -6.4096  -6.3903  -6.3896
    -6.3893  -6.3892  -6.3694  -6.3693  -6.3693  -6.3692  -6.3562  -6.3554
    -6.3271  -6.3268  -6.2763  -6.2760  -6.2752  -6.2751  -6.2739  -6.2739
    -6.2738  -6.2737  -6.2448  -6.2447  -6.2442  -6.2442  -6.2440  -6.2435
    -6.1916  -6.1915  -6.1453  -6.1451  -6.1307  -6.1305  -6.1304  -6.1302
    -6.1279  -6.1277  -6.1167  -6.1161  -6.1059  -6.1050  -6.1045  -6.1044
    -6.0492  -6.0490  -6.0489  -6.0488  -6.0333  -6.0325  -6.0320  -6.0314
    -6.0203  -6.0197  -6.0019  -6.0017  -5.9527  -5.9525  -5.9395  -5.9388
    -5.9386  -5.9383  -5.9247  -5.9235  -5.9231  -5.9226  -5.9077  -5.9075
    -5.9045  -5.9044  -5.8842  -5.8832  -5.8798  -5.8794  -5.8716  -5.8704
    -5.8345  -5.8341  -5.8339  -5.8335  -5.8304  -5.8294  -5.8218  -5.8209
    -5.8209  -5.8209  -5.7649  -5.7648  -5.7487  -5.7485  -5.7352  -5.7340
    -5.7078  -5.7071  -5.6968  -5.6955  -5.6749  -5.6747  -5.6743  -5.6740
    -5.6738  -5.6735  -5.6416  -5.6412  -5.6404  -5.6404  -5.6368  -5.6367
    -5.6133  -5.6132  -5.6068  -5.6060  -5.6059  -5.6059  -5.5940  -5.5923
    -5.5880  -5.5873  -5.5870  -5.5869  -5.5598  -5.5593  -5.5538  -5.5535
    -5.5441  -5.5437  -5.5433  -5.5432  -5.5431  -5.5430  -5.5110  -5.5083
    -5.4865  -5.4861  -5.4832  -5.4803  -5.4799  -5.4796  -5.4735  -5.4732
    -5.4689  -5.4683  -5.4678  -5.4677  -5.4465  -5.4462  -5.4407  -5.4376
    -5.4260  -5.4078  -5.4074  -5.4071  -5.4038  -5.3995  -5.3980  -5.3920
    -5.3916  -5.3801  -5.3795  -5.3736  -5.3696  -5.3602  -5.3594  -5.3589
    -5.3573  -5.3545  -5.3537  -5.3535  -5.3534  -5.3530  -5.3527  -5.3349
    -5.3348  -5.3347  -5.3346  -5.3200  -5.3196  -5.3152  -5.3150  -5.3145
    -5.3144  -5.3100  -5.3099  -5.3097  -5.3096  -5.3030  -5.3028  -5.2889
    -5.2875  -5.2701  -5.2696  -5.2647  -5.2643  -5.2556  -5.2556  -5.2239
    -5.2238  -5.2175  -5.2167  -5.2065  -5.2063  -5.2056  -5.2056  -5.2018
    -5.2015  -5.2015  -5.2014  -5.1648  -5.1648  -5.1645  -5.1644  -5.1460
    -5.1446  -5.1443  -5.1438  -5.1062  -5.1051  -5.0973  -5.0960  -5.0923
    -5.0920  -5.0739  -5.0735  -5.0729  -5.0729  -5.0451  -5.0434  -4.5397
    -4.5396  -4.1911  -4.1877  -4.1847  -4.1844  -4.1548  -4.1530  -3.7728
    -3.4731  -3.4725  -3.1685  -3.0083  -3.0067  -2.9175  -2.9173  -2.9162
    -2.9160  -2.3091  -2.2941  -2.2383  -2.0963  -2.0937  -1.7914  -1.4939
    -1.4928  -1.4920  -1.4915  -1.3185  -0.6570  -0.6561  -0.6543  -0.6534
    -0.1837  -0.1821  -0.1802  -0.1798   0.0491   0.0499   0.1101   0.1185
     0.1208   1.1696   1.1841   1.3078   1.3088   1.3856   1.5460   1.5471
     1.5491   1.5552   1.5861   1.5865   2.3724   2.3743   3.0897   3.0905
     3.0932   3.0950   3.2239   3.2269   3.2356   3.2395   3.4542   3.4575
     3.6090   3.6098   4.0050   4.0059   4.0088   4.0092   4.1260   4.1298
     4.4995   4.5014   4.5183   4.5200   4.8629   4.8678   5.0770   5.0793
     5.1783   5.5736   5.6172   5.6301   5.7047   5.7176   5.9063   5.9369
     5.9391   5.9448   6.0251   6.0353   6.0507   6.0625   6.0857   6.0911
     6.0944   6.0953   6.1966   6.2019   6.2486   6.2641   6.5896   6.6265
     6.7005   6.7018   6.7205   6.7675   6.8827   6.8927   6.9300   6.9880
     7.0831   7.0910   7.2613   7.2682   7.2719   7.2747   7.5017   7.6948
     7.7917   7.8839   7.9192   8.1473   8.1758   8.1953   8.2124   8.2518
     8.3308   8.3509   8.3746   8.4380   8.5174   8.5647   8.6736   8.7466
     8.7563   8.7661   8.8360   8.8389   8.8737   8.8937   8.9383   8.9749
     8.9877   9.0390   9.0522   9.1036   9.1829   9.2163

     occupation numbers 
     1.0000   1.0000   1.0000   1.0000   1.0000   1.0000   1.0000   1.0000
     1.0000   1.0000   1.0000   1.0000   1.0000   1.0000   1.0000   1.0000
     1.0000   1.0000   1.0000   1.0000   1.0000   1.0000   1.0000   1.0000
     1.0000   1.0000   1.0000   1.0000   1.0000   1.0000   1.0000   1.0000
     1.0000   1.0000   1.0000   1.0000   1.0000   1.0000   1.0000   1.0000
     1.0000   1.0000   1.0000   1.0000   1.0000   1.0000   1.0000   1.0000
     1.0000   1.0000   1.0000   1.0000   1.0000   1.0000   1.0000   1.0000
     1.0000   1.0000   1.0000   1.0000   1.0000   1.0000   1.0000   1.0000
     1.0000   1.0000   1.0000   1.0000   1.0000   1.0000   1.0000   1.0000
     1.0000   1.0000   1.0000   1.0000   1.0000   1.0000   1.0000   1.0000
     1.0000   1.0000   1.0000   1.0000   1.0000   1.0000   1.0000   1.0000
     1.0000   1.0000   1.0000   1.0000   1.0000   1.0000   1.0000   1.0000
     1.0000   1.0000   1.0000   1.0000   1.0000   1.0000   1.0000   1.0000
     1.0000   1.0000   1.0000   1.0000   1.0000   1.0000   1.0000   1.0000
     1.0000   1.0000   1.0000   1.0000   1.0000   1.0000   1.0000   1.0000
     1.0000   1.0000   1.0000   1.0000   1.0000   1.0000   1.0000   1.0000
     1.0000   1.0000   1.0000   1.0000   1.0000   1.0000   1.0000   1.0000
     1.0000   1.0000   1.0000   1.0000   1.0000   1.0000   1.0000   1.0000
     1.0000   1.0000   1.0000   1.0000   1.0000   1.0000   1.0000   1.0000
     1.0000   1.0000   1.0000   1.0000   1.0000   1.0000   1.0000   1.0000
     1.0000   1.0000   1.0000   1.0000   1.0000   1.0000   1.0000   1.0000
     1.0000   1.0000   1.0000   1.0000   1.0000   1.0000   1.0000   1.0000
[...]
     atom   10 type  1   force =    -0.00000000    0.00000000    0.00000000
     atom   11 type  1   force =     0.00001250   -0.00002658    0.00000968
     atom   12 type  1   force =    -0.00001094    0.00000801   -0.00000207
     atom   13 type  1   force =     0.00000000    0.00000000   -0.00000000
     atom   14 type  1   force =     0.00000000   -0.00000000   -0.00000000
     atom   15 type  1   force =     0.00004182   -0.00006001    0.00001821
     atom   16 type  1   force =    -0.00000949   -0.00006507   -0.00002081
     atom   17 type  1   force =    -0.00000000   -0.00000000   -0.00000000
     atom   18 type  1   force =     0.00000000   -0.00000000   -0.00000000
     atom   19 type  1   force =     0.00000222   -0.00003506    0.00003909
     atom   20 type  1   force =    -0.00000934    0.00004446    0.00000563
     atom   21 type  1   force =    -0.00000000    0.00000000   -0.00000000
     atom   22 type  1   force =     0.00000000   -0.00000000    0.00000000
     atom   23 type  1   force =    -0.00001606    0.00007880   -0.00000710
     atom   24 type  1   force =     0.00004892    0.00005592    0.00001929
     atom   25 type  1   force =     0.00000000    0.00000000   -0.00000000
     atom   26 type  1   force =    -0.00000000    0.00000000   -0.00000000
     atom   27 type  1   force =    -0.00001161    0.00000556   -0.00004301
     atom   28 type  1   force =     0.00001743   -0.00000128   -0.00003368
     atom   29 type  1   force =     0.00000000   -0.00000000   -0.00000000
     atom   30 type  1   force =    -0.00000000    0.00000000   -0.00000000
     atom   31 type  1   force =    -0.00001682   -0.00007125    0.00000717
     atom   32 type  1   force =    -0.00000523   -0.00006061   -0.00004334
     atom   33 type  1   force =     0.00000694   -0.00005746    0.00009012
     atom   34 type  1   force =     0.00003728   -0.00000869    0.00004784
     atom   35 type  1   force =    -0.00007964    0.00002935    0.00007002
     atom   36 type  1   force =     0.00009444    0.00002715    0.00009028
     atom   37 type  1   force =    -0.00004937    0.00000002    0.00011375
     atom   38 type  1   force =    -0.00003771    0.00007104    0.00011122
     atom   39 type  1   force =     0.00001723   -0.00003026    0.00013167
     atom   40 type  1   force =    -0.00003015   -0.00004958    0.00009217
     atom   41 type  1   force =    -0.00001147   -0.00008818    0.00009406
     atom   42 type  1   force =    -0.00002620    0.00002433    0.00002720
     atom   43 type  1   force =    -0.00001969    0.00001022    0.00005478
     atom   44 type  1   force =     0.00001271    0.00004430    0.00012341
     atom   45 type  1   force =     0.00000665    0.00008479    0.00010018
     atom   46 type  1   force =     0.00008233   -0.00000282    0.00012063
     atom   47 type  1   force =    -0.00001381   -0.00002448    0.00005258
     atom   48 type  1   force =     0.00003423   -0.00000013    0.00002563
     atom   49 type  3   force =    -0.00000189   -0.00000396   -0.00000098
     atom   50 type  3   force =     0.00000536   -0.00001880   -0.00001845
     atom   51 type  3   force =    -0.00000007   -0.00001137   -0.00001320
     atom   52 type  3   force =    -0.00000993    0.00001608   -0.00002085
     atom   53 type  3   force =    -0.00000572    0.00001003   -0.00001527
     atom   54 type  3   force =    -0.00000216    0.00000012   -0.00001312
     atom   55 type  2   force =     0.00000065    0.00000154   -0.00004046
     atom   56 type  4   force =    -0.00000516    0.00001220    0.00000735
     atom   57 type  4   force =     0.00000036   -0.00000162   -0.00000189
     atom   58 type  4   force =    -0.00000102    0.00000122   -0.00000207
     atom   59 type  4   force =    -0.00000340    0.00000769    0.00000160
     atom   60 type  4   force =    -0.00000033   -0.00000001   -0.00000555
     atom   61 type  4   force =     0.00000278   -0.00000756    0.00000210
     atom   62 type  4   force =     0.00000552   -0.00001234    0.00000780

     DFT-D3 dispersion contribution to forces:
     atom    1 type  1   force =     0.00000303    0.00000353    0.00273885
     atom    2 type  1   force =    -0.00000236    0.00000097    0.00273405
     atom    3 type  1   force =    -0.00000048   -0.00001313   -0.00272690
     atom    4 type  1   force =     0.00000153   -0.00002033   -0.00268492
     atom    5 type  1   force =     0.00000729    0.00000174    0.00274053
     atom    6 type  1   force =    -0.00000604    0.00000262    0.00273691
     atom    7 type  1   force =     0.00007155    0.00001912   -0.00271473
     atom    8 type  1   force =    -0.00024403    0.00041167   -0.00203853
     atom    9 type  1   force =     0.00000262   -0.00000047    0.00274149
     atom   10 type  1   force =     0.00000085   -0.00000100    0.00274074
     atom   11 type  1   force =     0.00000721    0.00001668   -0.00272918
     atom   12 type  1   force =     0.00001644    0.00003173   -0.00139450
     atom   13 type  1   force =     0.00000035    0.00000319    0.00272841
     atom   14 type  1   force =     0.00000057   -0.00000635    0.00274542
     atom   15 type  1   force =    -0.00007873   -0.00002334   -0.00271671
     atom   16 type  1   force =     0.00027287   -0.00039485   -0.00202938
     atom   17 type  1   force =     0.00000182   -0.00000161    0.00273693
     atom   18 type  1   force =    -0.00000177    0.00000371    0.00273313
     atom   19 type  1   force =     0.00001535    0.00011397   -0.00268992
     atom   20 type  1   force =    -0.00001733   -0.00015137   -0.00266037
     atom   21 type  1   force =     0.00000030   -0.00000346    0.00273472
     atom   22 type  1   force =    -0.00000100   -0.00000374    0.00273112
     atom   23 type  1   force =     0.00032328    0.00042080   -0.00208235
     atom   24 type  1   force =    -0.00011029    0.00002152   -0.00266875
     atom   25 type  1   force =    -0.00000223   -0.00000069    0.00273908
     atom   26 type  1   force =    -0.00000101   -0.00000003    0.00274032
     atom   27 type  1   force =     0.00055219    0.00007159   -0.00207816
     atom   28 type  1   force =    -0.00058587   -0.00002194   -0.00195914
     atom   29 type  1   force =    -0.00000083    0.00000545    0.00273898
     atom   30 type  1   force =     0.00000081   -0.00000134    0.00274436
     atom   31 type  1   force =     0.00011757   -0.00002846   -0.00269734
     atom   32 type  1   force =    -0.00033522   -0.00044604   -0.00196170
     atom   33 type  1   force =     0.00000322    0.00002232    0.00012045
     atom   34 type  1   force =     0.00000805   -0.00005522    0.00011445
     atom   35 type  1   force =     0.00002190    0.00000280    0.00007067
     atom   36 type  1   force =    -0.00004013   -0.00000332    0.00010928
     atom   37 type  1   force =     0.00003505    0.00000627    0.00005371
     atom   38 type  1   force =    -0.00007029    0.00000498    0.00017802
     atom   39 type  1   force =     0.00002412    0.00001654    0.00011613
     atom   40 type  1   force =    -0.00003396   -0.00002630    0.00018621
     atom   41 type  1   force =    -0.00000598   -0.00000741    0.00009597
     atom   42 type  1   force =    -0.00000568   -0.00000073    0.00006613
     atom   43 type  1   force =    -0.00000285   -0.00004252    0.00006949
     atom   44 type  1   force =     0.00001691   -0.00002297    0.00008669
     atom   45 type  1   force =     0.00003146    0.00002134    0.00017211
     atom   46 type  1   force =     0.00000918    0.00000029    0.00004335
     atom   47 type  1   force =    -0.00000985    0.00003752    0.00005932
     atom   48 type  1   force =     0.00001777    0.00004459    0.00002437
     atom   49 type  3   force =     0.00000037   -0.00000158   -0.00083299
     atom   50 type  3   force =    -0.00007305    0.00015319   -0.00021183
     atom   51 type  3   force =    -0.00009394    0.00020515   -0.00026903
     atom   52 type  3   force =     0.00007269   -0.00015968   -0.00020761
     atom   53 type  3   force =     0.00009475   -0.00019977   -0.00025647
     atom   54 type  3   force =     0.00000104    0.00000570    0.00025341
     atom   55 type  2   force =    -0.00000587   -0.00000510   -0.00186460
     atom   56 type  4   force =    -0.00001833    0.00003830   -0.00181131
     atom   57 type  4   force =     0.00000351   -0.00001157   -0.00000177
     atom   58 type  4   force =    -0.00000535    0.00001273   -0.00000133
     atom   59 type  4   force =    -0.00000036    0.00000471   -0.00021396
     atom   60 type  4   force =    -0.00000134   -0.00000200   -0.00008352
     atom   61 type  4   force =     0.00000150   -0.00000501   -0.00022194
     atom   62 type  4   force =     0.00001702   -0.00004343   -0.00181586

     Total force =     0.015473     Total SCF correction =     0.000507

     DFT-D3 dispersion Force =     0.015012


     Computing stress (Cartesian axis) and pressure


     negative rho (up, down):  3.619E-03 0.000E+00
          total   stress  (Ry/bohr**3)                   (kbar)     P=       -7.95
  -0.00006584  -0.00000004   0.00000005           -9.68       -0.01        0.01
  -0.00000004  -0.00006579  -0.00000002           -0.01       -9.68       -0.00
   0.00000005  -0.00000002  -0.00003057            0.01       -0.00       -4.50

     kinetic stress (kbar)  12898.44     25.63     -0.77
                               25.63  12854.69     -0.35
                               -0.77     -0.35  12914.26

     local   stress (kbar)**********    663.10    -26.55
                              663.10**********    -14.23
                              -26.55    -14.231191161.48

     nonloc. stress (kbar)  -1220.28     -1.82      0.06
                               -1.82  -1217.18      0.03
                                0.06      0.03  -1259.66

     hartree stress (kbar) 616281.16   -248.28     10.47
                             -248.28 616700.71      5.54
                               10.47      5.54-559641.46

     exc-cor stress (kbar)  -6317.23     -1.27      0.04
                               -1.27  -6315.07      0.02
                                0.04      0.02  -6323.50

     corecor stress (kbar)    -68.40      0.38     -0.01
                                0.38    -69.05     -0.00
                               -0.01     -0.00    -69.18

     ewald   stress (kbar) 557285.84   -437.74     16.78
                             -437.74 558027.81      8.99
                               16.78      8.99-636781.85

     hubbard stress (kbar)      0.00      0.00      0.00
                                0.00      0.00      0.00
                                0.00      0.00      0.00

     DFT-D   stress (kbar)    -10.35     -0.00     -0.00
                               -0.00    -10.34     -0.00
                               -0.00     -0.00     -4.59

     XDM     stress (kbar)      0.00      0.00      0.00
                                0.00      0.00      0.00
                                0.00      0.00      0.00

     dft-nl  stress (kbar)      0.00      0.00      0.00
                                0.00      0.00      0.00
                                0.00      0.00      0.00

     TS-vdW  stress (kbar)      0.00      0.00      0.00
                                0.00      0.00      0.00
                                0.00      0.00      0.00

     MDB     stress (kbar)      0.00      0.00      0.00
                                0.00      0.00      0.00
                                0.00      0.00      0.00

     3D-RISM stress (kbar)      0.00      0.00      0.00
                                0.00      0.00      0.00
                                0.00      0.00      0.00

     Energy error            =      3.6E-04 Ry
     Gradient error          =      6.7E-03 Ry/Bohr

     number of scf cycles    =   7
     number of bfgs steps    =   6

     energy             old  =  -22294.0170626760 Ry
     energy             new  =  -22294.0174223013 Ry

     CASE: energy            _new < energy            _old

     new trust radius        =       0.0735445773 bohr
     new conv_thr            =       0.0000000671 Ry


ATOMIC_POSITIONS (angstrom)
Zn               0.0000000000        1.5094010000        1.2182900000    0   0   0
Zn               5.2287200000        1.5094010000        1.2182900000    0   0   0
Zn               0.0006771611        1.5087064800        6.1127424862
Zn               5.2274988254        1.5050263429        6.1152450187
Zn              -1.3071800000        3.7735030000        1.2182900000    0   0   0
Zn               3.9215400000        3.7735030000        1.2182900000    0   0   0
Zn              -1.3019815053        3.7726850663        6.1161183545
Zn               3.9157184657        3.7739685829        6.1180173379
Zn              -2.6143600000        6.0376050000        1.2182900000    0   0   0
Zn               2.6143600000        6.0376050000        1.2182900000    0   0   0
Zn              -2.6113726321        6.0402265313        6.1155863224
Zn               2.6089359788        6.0378139390        6.0511356958
Zn              -3.9215400000        8.3017080000        1.2182900000    0   0   0
Zn               1.3071800000        8.3017080000        1.2182900000    0   0   0
Zn              -3.9228299484        8.3045901756        6.1131722655
Zn               1.3089480195        8.2992748413        6.1168244302
Zn               2.6143600000        1.5094010000        1.2182900000    0   0   0
Zn               7.8430800000        1.5094010000        1.2182900000    0   0   0
Zn               2.6154306779        1.5105250714        6.1116154543
Zn               7.8422565790        1.5043026356        6.1163355498
Zn               1.3071800000        3.7735030000        1.2182900000    0   0   0
Zn               6.5359000000        3.7735030000        1.2182900000    0   0   0
Zn               1.3127355017        3.7766758508        6.1351314155
Zn               6.5343871664        3.7696298070        6.1180881993
Zn               0.0000000000        6.0376050000        1.2182900000    0   0   0
Zn               5.2287200000        6.0376050000        1.2182900000    0   0   0
Zn               0.0085940002        6.0417478759        6.1397939020
Zn               5.2187243616        6.0379334247        6.1470867326
Zn              -1.3071800000        8.3017080000        1.2182900000    0   0   0
Zn               3.9215400000        8.3017080000        1.2182900000    0   0   0
Zn              -1.3026300957        8.3038721335        6.1125479043
Zn               3.9133385978        8.2989407590        6.1409291606
Zn               1.3089616226        0.7571993212        3.6891130959
Zn               6.5353198701        0.7468243997        3.6941345976
Zn               0.0045502755        3.0171585723        3.6835122074
Zn               5.2222565218        3.0150529759        3.6925036457
Zn              -1.3018384086        5.2853760295        3.6812461701
Zn               3.9150491346        5.2815804916        3.6895977528
Zn              -2.6105843553        7.5520786480        3.6888123817
Zn               2.6094000190        7.5487840117        3.6893894538
Zn               3.9194330141        0.7525592901        3.6870739258
Zn               9.1502918028        0.7535618329        3.6872897795
Zn               2.6118182144        3.0162571091        3.6912260857
Zn               7.8468083073        3.0147909720        3.6886642418
Zn               1.3065026969        5.2831251739        3.6964577881
Zn               6.5369454104        5.2842894376        3.6832165846
Zn               0.0020547164        7.5490754878        3.6912240796
Zn               5.2266004426        7.5518518785        3.6888309903
C                2.7092739457        6.1270991362       10.9690309280
C                2.2216398151        7.2477240219       13.0777727181
C                2.2076929485        7.2347071027       11.6828838762
C                3.2315621323        5.0623070222       13.0988116830
C                3.2248876637        5.0389362663       11.7037814176
C                2.7327915921        6.1643064483       13.7984059507
N                2.7017491261        6.1095834747        9.5813097156
H                3.0520195641        5.3293041679        9.0431755949
H                1.8280826675        8.1182837820       13.6089066081
H                3.6319638471        4.2046333668       13.6457621073
H                3.6141239178        4.1712931765       11.1677908129
H                2.7398671400        6.1778145520       14.8886360884
H                1.8081136129        8.0872107418       11.1296573913
H                2.3392151264        6.8745227929        9.0274284307



     Writing config-only to output data dir ./tmp/Zn002_3layer_aniline_relax.save/ :
     XML data file
     NEW-OLD atomic charge density approx. for the potential

     negative rho (up, down):  3.628E-03 0.000E+00

     total cpu time spent up to now is    40741.0 secs

     Self-consistent Calculation

     iteration #  1     ecut=    40.00 Ry     beta= 0.40
     Davidson diagonalization with overlap

---- Real-time Memory Report at c_bands before calling an iterative solver
           415 MiB given to the printing process from OS
             0 MiB allocation reported by mallinfo(arena+hblkhd)
         14427 MiB available memory on the node where the printing process lives
------------------
     ethr =  1.00E-06,  avg # of iterations =  6.0

     Threshold (ethr) on eigenvalues was too large:
     Diagonalizing with lowered threshold

     Davidson diagonalization with overlap

---- Real-time Memory Report at c_bands before calling an iterative solver
           415 MiB given to the printing process from OS
             0 MiB allocation reported by mallinfo(arena+hblkhd)
         14424 MiB available memory on the node where the printing process lives
------------------
     ethr =  4.73E-08,  avg # of iterations =  2.0

     negative rho (up, down):  3.636E-03 0.000E+00

     total cpu time spent up to now is    42234.3 secs

     total energy              =  -22294.01758290 Ry
     estimated scf accuracy    <       0.00048143 Ry

     iteration #  2     ecut=    40.00 Ry     beta= 0.40
     Davidson diagonalization with overlap

---- Real-time Memory Report at c_bands before calling an iterative solver
           415 MiB given to the printing process from OS
             0 MiB allocation reported by mallinfo(arena+hblkhd)
         14293 MiB available memory on the node where the printing process lives
------------------
     ethr =  4.83E-08,  avg # of iterations =  2.2

     negative rho (up, down):  3.651E-03 0.000E+00

     total cpu time spent up to now is    42714.1 secs

     total energy              =  -22294.01685712 Ry
     estimated scf accuracy    <       0.02059136 Ry

     iteration #  3     ecut=    40.00 Ry     beta= 0.40
     Davidson diagonalization with overlap

---- Real-time Memory Report at c_bands before calling an iterative solver
           415 MiB given to the printing process from OS
             0 MiB allocation reported by mallinfo(arena+hblkhd)
         14272 MiB available memory on the node where the printing process lives
------------------
     ethr =  4.83E-08,  avg # of iterations =  2.0

     negative rho (up, down):  3.660E-03 0.000E+00

     total cpu time spent up to now is    43179.3 secs

     total energy              =  -22294.01769928 Ry
     estimated scf accuracy    <       0.00047017 Ry

     iteration #  4     ecut=    40.00 Ry     beta= 0.40
     Davidson diagonalization with overlap

---- Real-time Memory Report at c_bands before calling an iterative solver
           415 MiB given to the printing process from OS
             0 MiB allocation reported by mallinfo(arena+hblkhd)
         14252 MiB available memory on the node where the printing process lives
------------------
