
     Program PWSCF v.7.3.1 starts on 27Mar2025 at 21:29:10 

     This program is part of the open-source Quantum ESPRESSO suite
     for quantum simulation of materials; please cite
         "P. Giannozzi et al., J. Phys.:Condens. Matter 21 395502 (2009);
         "P. Giannozzi et al., J. Phys.:Condens. Matter 29 465901 (2017);
         "P. Giannozzi et al., J. Chem. Phys. 152 154105 (2020);
          URL http://www.quantum-espresso.org", 
     in publications or presentations arising from this work. More details at
     http://www.quantum-espresso.org/quote

     Parallel version (MPI), running on    33 processors

     MPI processes distributed on     1 nodes
     74338 MiB available memory on the printing compute node when the environment starts

     Waiting for input...
     Reading input from standard input
Warning: card &CELL ignored
Warning: card   CELL_DOFREE = 'ALL' ignored
Warning: card / ignored

     Current dimensions of program PWSCF are:
     Max number of different atomic species (ntypx) = 10
     Max number of k-points (npk) =  40000
     Max angular momentum in pseudopotentials (lmaxx) =  4

     R & G space division:  proc/nbgrp/npool/nimage =      33
     Subspace diagonalization in iterative solution of the eigenvalue problem:
     one sub-group per band group will be used
     custom distributed-memory algorithm (size of sub-group:  5*  5 procs)


     Parallelization info
     --------------------
     sticks:   dense  smooth     PW     G-vecs:    dense   smooth      PW
     Min         228     130     35                36393    15714    2165
     Max         230     131     36                36401    15723    2173
     Sum        7555    4303   1159              1201061   518755   71619

     Using Slab Decomposition



     bravais-lattice index     =            0
     lattice parameter (alat)  =      19.7617  a.u.
     unit-cell volume          =   15176.5939 (a.u.)^3
     number of atoms/cell      =           64
     number of atomic types    =            1
     number of electrons       =      1280.00
     number of Kohn-Sham states=          768
     kinetic-energy cutoff     =      40.0000  Ry
     charge density cutoff     =     280.0000  Ry
     scf convergence threshold =      1.0E-06
     mixing beta               =       0.4000
     number of iterations used =            8  plain     mixing
     energy convergence thresh.=      1.0E-05
     force convergence thresh. =      5.0E-04
     Exchange-correlation= SLA  PW   PBE  PBE
                           (   1   4   3   4   0   0   0)
     nstep                     =          100


     celldm(1)=  19.761696  celldm(2)=   0.000000  celldm(3)=   0.000000
     celldm(4)=   0.000000  celldm(5)=   0.000000  celldm(6)=   0.000000

     crystal axes: (cart. coord. in units of alat)
               a(1) = (   1.000000   0.000000   0.000000 )  
               a(2) = (  -0.500000   0.866025   0.000000 )  
               a(3) = (   0.000000   0.000000   2.270759 )  

     reciprocal axes: (cart. coord. in units 2 pi/alat)
               b(1) = (  1.000000  0.577350 -0.000000 )  
               b(2) = (  0.000000  1.154701  0.000000 )  
               b(3) = (  0.000000 -0.000000  0.440381 )  


     PseudoPot. # 1 for Zn read from file:
     /home/ys/qepseudo/SSSP_1.3.0_PBE_efficiency/Zn_pbe_v1.uspp.F.UPF
     MD5 check sum: df62231357ef9e81f77b2b3087fa5675
     Pseudo is Ultrasoft, Zval = 20.0
     Generated by new atomic code, or converted to UPF format
     Using radial grid of  943 points,  6 beta functions with: 
                l(1) =   0
                l(2) =   0
                l(3) =   1
                l(4) =   1
                l(5) =   2
                l(6) =   2
     Q(r) pseudized with  8 coefficients,  rinner =    1.100   1.100   1.100
                                                       1.100   1.100

     atomic species   valence    mass     pseudopotential
     Zn               20.00    65.38000     Zn( 1.00)

     No symmetry found


                                    s                        frac. trans.

      isym =  1     identity                                     

 cryst.   s( 1) = (     1          0          0      )
                  (     0          1          0      )
                  (     0          0          1      )

 cart.    s( 1) = (  1.0000000  0.0000000  0.0000000 )
                  (  0.0000000  1.0000000  0.0000000 )
                  (  0.0000000  0.0000000  1.0000000 )


   Cartesian axes

     site n.     atom                  positions (alat units)
         1        Zn     tau(   1) = (  -0.0000000   0.1443376   0.1164999  )
         2        Zn     tau(   2) = (   0.5000000   0.1443376   0.1164999  )
         3        Zn     tau(   3) = (   0.0001063   0.1443772   0.5902127  )
         4        Zn     tau(   4) = (   0.4998958   0.1443643   0.5917156  )
         5        Zn     tau(   5) = (  -0.1250000   0.3608439   0.1164999  )
         6        Zn     tau(   6) = (   0.3750000   0.3608439   0.1164999  )
         7        Zn     tau(   7) = (  -0.1249761   0.3609302   0.5908726  )
         8        Zn     tau(   8) = (   0.3749642   0.3608477   0.5913644  )
         9        Zn     tau(   9) = (  -0.2500000   0.5773503   0.1164999  )
        10        Zn     tau(  10) = (   0.2500000   0.5773503   0.1164999  )
        11        Zn     tau(  11) = (  -0.2499911   0.5773738   0.5915504  )
        12        Zn     tau(  12) = (   0.2499824   0.5772583   0.5907382  )
        13        Zn     tau(  13) = (  -0.3750000   0.7938566   0.1164999  )
        14        Zn     tau(  14) = (   0.1250000   0.7938566   0.1164999  )
        15        Zn     tau(  15) = (  -0.3749161   0.7938269   0.5909604  )
        16        Zn     tau(  16) = (   0.1249053   0.7937898   0.5911170  )
        17        Zn     tau(  17) = (   0.2500000   0.1443376   0.1164999  )
        18        Zn     tau(  18) = (   0.7500000   0.1443376   0.1164999  )
        19        Zn     tau(  19) = (   0.2499566   0.1443139   0.5910485  )
        20        Zn     tau(  20) = (   0.7500401   0.1444360   0.5909256  )
        21        Zn     tau(  21) = (   0.1250000   0.3608439   0.1164999  )
        22        Zn     tau(  22) = (   0.6250000   0.3608439   0.1164999  )
        23        Zn     tau(  23) = (   0.1249684   0.3608327   0.5904686  )
        24        Zn     tau(  24) = (   0.6250220   0.3609386   0.5917101  )
        25        Zn     tau(  25) = (  -0.0000000   0.5773503   0.1164999  )
        26        Zn     tau(  26) = (   0.5000000   0.5773503   0.1164999  )
        27        Zn     tau(  27) = (  -0.0000983   0.5773031   0.5910657  )
        28        Zn     tau(  28) = (   0.5000885   0.5773473   0.5912976  )
        29        Zn     tau(  29) = (  -0.1250000   0.7938566   0.1164999  )
        30        Zn     tau(  30) = (   0.3750000   0.7938566   0.1164999  )
        31        Zn     tau(  31) = (  -0.1251014   0.7937984   0.5915674  )
        32        Zn     tau(  32) = (   0.3751324   0.7938157   0.5904624  )
        33        Zn     tau(  33) = (   0.1250000   0.0721688   0.3494996  )
        34        Zn     tau(  34) = (   0.6250000   0.0721688   0.3494996  )
        35        Zn     tau(  35) = (   0.1249168   0.0722609   0.8321064  )
        36        Zn     tau(  36) = (   0.6250907   0.0721249   0.8320849  )
        37        Zn     tau(  37) = (   0.0000000   0.2886751   0.3494996  )
        38        Zn     tau(  38) = (   0.5000000   0.2886751   0.3494996  )
        39        Zn     tau(  39) = (   0.0001155   0.2886284   0.8318992  )
        40        Zn     tau(  40) = (   0.4998869   0.2887254   0.8327133  )
        41        Zn     tau(  41) = (  -0.1250000   0.5051815   0.3494996  )
        42        Zn     tau(  42) = (   0.3750000   0.5051815   0.3494996  )
        43        Zn     tau(  43) = (  -0.1248885   0.5051081   0.8328053  )
        44        Zn     tau(  44) = (   0.3748852   0.5052048   0.8322362  )
        45        Zn     tau(  45) = (  -0.2500000   0.7216878   0.3494996  )
        46        Zn     tau(  46) = (   0.2500000   0.7216878   0.3494996  )
        47        Zn     tau(  47) = (  -0.2500816   0.7217457   0.8330261  )
        48        Zn     tau(  48) = (   0.2500888   0.7216111   0.8315798  )
        49        Zn     tau(  49) = (   0.3750000   0.0721688   0.3494996  )
        50        Zn     tau(  50) = (   0.8750000   0.0721688   0.3494996  )
        51        Zn     tau(  51) = (   0.3748288   0.0722025   0.8328001  )
        52        Zn     tau(  52) = (   0.8751982   0.0721830   0.8313936  )
        53        Zn     tau(  53) = (   0.2500000   0.2886751   0.3494996  )
        54        Zn     tau(  54) = (   0.7500000   0.2886751   0.3494996  )
        55        Zn     tau(  55) = (   0.2498217   0.2886951   0.8322994  )
        56        Zn     tau(  56) = (   0.7501831   0.2886665   0.8323685  )
        57        Zn     tau(  57) = (   0.1250000   0.5051815   0.3494996  )
        58        Zn     tau(  58) = (   0.6250000   0.5051815   0.3494996  )
        59        Zn     tau(  59) = (   0.1250170   0.5050584   0.8321067  )
        60        Zn     tau(  60) = (   0.6249778   0.5052529   0.8329305  )
        61        Zn     tau(  61) = (   0.0000000   0.7216878   0.3494996  )
        62        Zn     tau(  62) = (   0.5000000   0.7216878   0.3494996  )
        63        Zn     tau(  63) = (   0.0000162   0.7215786   0.8326164  )
        64        Zn     tau(  64) = (   0.4999851   0.7217841   0.8320793  )

   Crystallographic axes

     site n.     atom                  positions (cryst. coord.)
         1        Zn     tau(   1) = (  0.0833333  0.1666667  0.0513044  )
         2        Zn     tau(   2) = (  0.5833333  0.1666667  0.0513044  )
         3        Zn     tau(   3) = (  0.0834625  0.1667124  0.2599187  )
         4        Zn     tau(   4) = (  0.5832446  0.1666976  0.2605806  )
         5        Zn     tau(   5) = (  0.0833333  0.4166667  0.0513044  )
         6        Zn     tau(   6) = (  0.5833333  0.4166667  0.0513044  )
         7        Zn     tau(   7) = (  0.0834070  0.4167663  0.2602093  )
         8        Zn     tau(   8) = (  0.5832997  0.4166711  0.2604259  )
         9        Zn     tau(   9) = (  0.0833333  0.6666667  0.0513044  )
        10        Zn     tau(  10) = (  0.5833333  0.6666667  0.0513044  )
        11        Zn     tau(  11) = (  0.0833558  0.6666938  0.2605078  )
        12        Zn     tau(  12) = (  0.5832626  0.6665605  0.2601501  )
        13        Zn     tau(  13) = (  0.0833333  0.9166667  0.0513044  )
        14        Zn     tau(  14) = (  0.5833333  0.9166667  0.0513044  )
        15        Zn     tau(  15) = (  0.0834001  0.9166324  0.2602480  )
        16        Zn     tau(  16) = (  0.5832000  0.9165895  0.2603170  )
        17        Zn     tau(  17) = (  0.3333333  0.1666667  0.0513044  )
        18        Zn     tau(  18) = (  0.8333333  0.1666667  0.0513044  )
        19        Zn     tau(  19) = (  0.3332763  0.1666393  0.2602868  )
        20        Zn     tau(  20) = (  0.8334303  0.1667804  0.2602327  )
        21        Zn     tau(  21) = (  0.3333333  0.4166667  0.0513044  )
        22        Zn     tau(  22) = (  0.8333333  0.4166667  0.0513044  )
        23        Zn     tau(  23) = (  0.3332952  0.4166537  0.2600314  )
        24        Zn     tau(  24) = (  0.8334099  0.4167759  0.2605781  )
        25        Zn     tau(  25) = (  0.3333333  0.6666667  0.0513044  )
        26        Zn     tau(  26) = (  0.8333333  0.6666667  0.0513044  )
        27        Zn     tau(  27) = (  0.3332078  0.6666122  0.2602944  )
        28        Zn     tau(  28) = (  0.8334201  0.6666632  0.2603965  )
        29        Zn     tau(  29) = (  0.3333333  0.9166667  0.0513044  )
        30        Zn     tau(  30) = (  0.8333333  0.9166667  0.0513044  )
        31        Zn     tau(  31) = (  0.3331983  0.9165994  0.2605153  )
        32        Zn     tau(  32) = (  0.8334421  0.9166194  0.2600287  )
        33        Zn     tau(  33) = (  0.1666667  0.0833333  0.1539131  )
        34        Zn     tau(  34) = (  0.6666667  0.0833333  0.1539131  )
        35        Zn     tau(  35) = (  0.1666366  0.0834397  0.3664442  )
        36        Zn     tau(  36) = (  0.6667321  0.0832826  0.3664347  )
        37        Zn     tau(  37) = (  0.1666667  0.3333333  0.1539131  )
        38        Zn     tau(  38) = (  0.6666667  0.3333333  0.1539131  )
        39        Zn     tau(  39) = (  0.1667552  0.3332793  0.3663530  )
        40        Zn     tau(  40) = (  0.6665826  0.3333914  0.3667115  )
        41        Zn     tau(  41) = (  0.1666667  0.5833333  0.1539131  )
        42        Zn     tau(  42) = (  0.6666667  0.5833333  0.1539131  )
        43        Zn     tau(  43) = (  0.1667358  0.5832486  0.3667520  )
        44        Zn     tau(  44) = (  0.6665653  0.5833603  0.3665014  )
        45        Zn     tau(  45) = (  0.1666667  0.8333333  0.1539131  )
        46        Zn     tau(  46) = (  0.6666667  0.8333333  0.1539131  )
        47        Zn     tau(  47) = (  0.1666184  0.8334001  0.3668492  )
        48        Zn     tau(  48) = (  0.6667112  0.8332447  0.3662123  )
        49        Zn     tau(  49) = (  0.4166667  0.0833333  0.1539131  )
        50        Zn     tau(  50) = (  0.9166667  0.0833333  0.1539131  )
        51        Zn     tau(  51) = (  0.4165149  0.0833723  0.3667497  )
        52        Zn     tau(  52) = (  0.9168731  0.0833498  0.3661303  )
        53        Zn     tau(  53) = (  0.4166667  0.3333333  0.1539131  )
        54        Zn     tau(  54) = (  0.9166667  0.3333333  0.1539131  )
        55        Zn     tau(  55) = (  0.4164999  0.3333564  0.3665292  )
        56        Zn     tau(  56) = (  0.9168448  0.3333234  0.3665596  )
        57        Zn     tau(  57) = (  0.4166667  0.5833333  0.1539131  )
        58        Zn     tau(  58) = (  0.9166667  0.5833333  0.1539131  )
        59        Zn     tau(  59) = (  0.4166127  0.5831912  0.3664443  )
        60        Zn     tau(  60) = (  0.9166857  0.5834158  0.3668071  )
        61        Zn     tau(  61) = (  0.4166667  0.8333333  0.1539131  )
        62        Zn     tau(  62) = (  0.9166667  0.8333333  0.1539131  )
        63        Zn     tau(  63) = (  0.4166198  0.8332071  0.3666688  )
        64        Zn     tau(  64) = (  0.9167074  0.8334445  0.3664323  )

     number of k points=     5  Marzari-Vanderbilt smearing, width (Ry)=  0.0200
                       cart. coord. in units 2pi/alat
        k(    1) = (   0.0000000   0.0000000   0.0000000), wk =   0.2222222
        k(    2) = (   0.0000000   0.3849002   0.0000000), wk =   0.4444444
        k(    3) = (   0.3333333   0.1924501   0.0000000), wk =   0.4444444
        k(    4) = (   0.3333333   0.5773503   0.0000000), wk =   0.4444444
        k(    5) = (   0.3333333  -0.1924501   0.0000000), wk =   0.4444444

                       cryst. coord.
        k(    1) = (   0.0000000   0.0000000   0.0000000), wk =   0.2222222
        k(    2) = (   0.0000000   0.3333333   0.0000000), wk =   0.4444444
        k(    3) = (   0.3333333   0.0000000   0.0000000), wk =   0.4444444
        k(    4) = (   0.3333333   0.3333333   0.0000000), wk =   0.4444444
        k(    5) = (   0.3333333  -0.3333333   0.0000000), wk =   0.4444444

     Dense  grid:  1201061 G-vectors     FFT dimensions: ( 108, 108, 240)

     Smooth grid:   518755 G-vectors     FFT dimensions: (  80,  80, 192)

     Dynamical RAM for                 wfc:      23.02 MB

     Dynamical RAM for     wfc (w. buffer):     138.09 MB

     Dynamical RAM for           str. fact:       0.56 MB

     Dynamical RAM for           local pot:       0.00 MB

     Dynamical RAM for          nlocal pot:      34.52 MB

     Dynamical RAM for                qrad:       1.34 MB

     Dynamical RAM for          rho,v,vnew:       3.80 MB

     Dynamical RAM for               rhoin:       1.27 MB

     Dynamical RAM for            rho*nmix:       8.89 MB

     Dynamical RAM for           G-vectors:       2.20 MB

     Dynamical RAM for          h,s,v(r/c):       4.31 MB

     Dynamical RAM for          <psi|beta>:      13.50 MB

     Dynamical RAM for                 psi:      46.03 MB

     Dynamical RAM for                hpsi:      46.03 MB

     Dynamical RAM for                spsi:      46.03 MB

     Dynamical RAM for      wfcinit/wfcrot:      65.72 MB

     Dynamical RAM for           addusdens:     138.84 MB

     Dynamical RAM for          addusforce:     209.34 MB

     Dynamical RAM for         addusstress:     111.63 MB

     Estimated static dynamical RAM per process >     186.46 MB

     Estimated max dynamical RAM per process >     404.69 MB

     Estimated total dynamical RAM >      13.04 GB

     Initial potential from superposition of free atoms

     starting charge    1279.9910, renormalised to    1280.0000

     negative rho (up, down):  3.336E-03 0.000E+00
     Starting wfcs are  832 randomized atomic wfcs

     total cpu time spent up to now is      103.0 secs

     Self-consistent Calculation

     iteration #  1     ecut=    40.00 Ry     beta= 0.40
     Davidson diagonalization with overlap

---- Real-time Memory Report at c_bands before calling an iterative solver
           274 MiB given to the printing process from OS
             0 MiB allocation reported by mallinfo(arena+hblkhd)
         67718 MiB available memory on the node where the printing process lives
------------------
     ethr =  1.00E-02,  avg # of iterations =  8.6

     Threshold (ethr) on eigenvalues was too large:
     Diagonalizing with lowered threshold

     Davidson diagonalization with overlap

---- Real-time Memory Report at c_bands before calling an iterative solver
           385 MiB given to the printing process from OS
             0 MiB allocation reported by mallinfo(arena+hblkhd)
         66897 MiB available memory on the node where the printing process lives
------------------
     ethr =  1.63E-04,  avg # of iterations =  5.8

     negative rho (up, down):  4.080E-03 0.000E+00

     total cpu time spent up to now is      887.8 secs

     total energy              =  -29538.60759040 Ry
     estimated scf accuracy    <       2.10803239 Ry

     iteration #  2     ecut=    40.00 Ry     beta= 0.40
     Davidson diagonalization with overlap

---- Real-time Memory Report at c_bands before calling an iterative solver
           385 MiB given to the printing process from OS
             0 MiB allocation reported by mallinfo(arena+hblkhd)
         66890 MiB available memory on the node where the printing process lives
------------------
     ethr =  1.65E-04,  avg # of iterations =  2.0

     negative rho (up, down):  4.595E-03 0.000E+00

     total cpu time spent up to now is     1280.1 secs

     total energy              =  -29539.10740888 Ry
     estimated scf accuracy    <       0.39850424 Ry

     iteration #  3     ecut=    40.00 Ry     beta= 0.40
     Davidson diagonalization with overlap

---- Real-time Memory Report at c_bands before calling an iterative solver
           389 MiB given to the printing process from OS
             0 MiB allocation reported by mallinfo(arena+hblkhd)
         66788 MiB available memory on the node where the printing process lives
------------------
     ethr =  3.11E-05,  avg # of iterations =  9.0

     negative rho (up, down):  4.900E-03 0.000E+00

     total cpu time spent up to now is     1666.1 secs

     total energy              =  -29539.11166472 Ry
     estimated scf accuracy    <       0.16506845 Ry

     iteration #  4     ecut=    40.00 Ry     beta= 0.40
     Davidson diagonalization with overlap

---- Real-time Memory Report at c_bands before calling an iterative solver
           389 MiB given to the printing process from OS
             0 MiB allocation reported by mallinfo(arena+hblkhd)
         66769 MiB available memory on the node where the printing process lives
------------------
     ethr =  1.29E-05,  avg # of iterations =  9.2

     negative rho (up, down):  4.946E-03 0.000E+00

     total cpu time spent up to now is     2060.5 secs

     total energy              =  -29539.08791087 Ry
     estimated scf accuracy    <       0.64558204 Ry

     iteration #  5     ecut=    40.00 Ry     beta= 0.40
     Davidson diagonalization with overlap

---- Real-time Memory Report at c_bands before calling an iterative solver
           390 MiB given to the printing process from OS
             0 MiB allocation reported by mallinfo(arena+hblkhd)
         66752 MiB available memory on the node where the printing process lives
------------------
     ethr =  1.29E-05,  avg # of iterations = 11.4

     negative rho (up, down):  5.053E-03 0.000E+00

     total cpu time spent up to now is     2457.8 secs

     total energy              =  -29539.10900345 Ry
     estimated scf accuracy    <       0.51674073 Ry

     iteration #  6     ecut=    40.00 Ry     beta= 0.40
     Davidson diagonalization with overlap

---- Real-time Memory Report at c_bands before calling an iterative solver
           391 MiB given to the printing process from OS
             0 MiB allocation reported by mallinfo(arena+hblkhd)
         66732 MiB available memory on the node where the printing process lives
------------------
     ethr =  1.29E-05,  avg # of iterations =  7.2

     negative rho (up, down):  5.100E-03 0.000E+00

     total cpu time spent up to now is     2826.4 secs

     total energy              =  -29539.14224619 Ry
     estimated scf accuracy    <       0.00248032 Ry

     iteration #  7     ecut=    40.00 Ry     beta= 0.40
     Davidson diagonalization with overlap

---- Real-time Memory Report at c_bands before calling an iterative solver
           391 MiB given to the printing process from OS
             0 MiB allocation reported by mallinfo(arena+hblkhd)
         66720 MiB available memory on the node where the printing process lives
------------------
     ethr =  1.94E-07,  avg # of iterations =  9.8

     negative rho (up, down):  5.123E-03 0.000E+00

     total cpu time spent up to now is     3249.7 secs

     total energy              =  -29539.14252497 Ry
     estimated scf accuracy    <       0.00019152 Ry

     iteration #  8     ecut=    40.00 Ry     beta= 0.40
     Davidson diagonalization with overlap

---- Real-time Memory Report at c_bands before calling an iterative solver
           392 MiB given to the printing process from OS
             0 MiB allocation reported by mallinfo(arena+hblkhd)
         66702 MiB available memory on the node where the printing process lives
------------------
     ethr =  1.50E-08,  avg # of iterations =  2.0

     negative rho (up, down):  5.138E-03 0.000E+00

     total cpu time spent up to now is     3652.3 secs

     total energy              =  -29539.14258813 Ry
     estimated scf accuracy    <       0.00007456 Ry

     iteration #  9     ecut=    40.00 Ry     beta= 0.40
     Davidson diagonalization with overlap

---- Real-time Memory Report at c_bands before calling an iterative solver
           392 MiB given to the printing process from OS
             0 MiB allocation reported by mallinfo(arena+hblkhd)
         66685 MiB available memory on the node where the printing process lives
------------------
     ethr =  5.83E-09,  avg # of iterations =  2.0

     negative rho (up, down):  5.149E-03 0.000E+00

     total cpu time spent up to now is     3987.4 secs

     total energy              =  -29539.14258345 Ry
     estimated scf accuracy    <       0.00003604 Ry

     iteration # 10     ecut=    40.00 Ry     beta= 0.40
     Davidson diagonalization with overlap

---- Real-time Memory Report at c_bands before calling an iterative solver
           393 MiB given to the printing process from OS
             0 MiB allocation reported by mallinfo(arena+hblkhd)
         66667 MiB available memory on the node where the printing process lives
------------------
     ethr =  2.82E-09,  avg # of iterations =  2.0

     negative rho (up, down):  5.155E-03 0.000E+00

     total cpu time spent up to now is     4344.6 secs

     total energy              =  -29539.14258561 Ry
     estimated scf accuracy    <       0.00000529 Ry

     iteration # 11     ecut=    40.00 Ry     beta= 0.40
     Davidson diagonalization with overlap

---- Real-time Memory Report at c_bands before calling an iterative solver
           393 MiB given to the printing process from OS
             0 MiB allocation reported by mallinfo(arena+hblkhd)
         66650 MiB available memory on the node where the printing process lives
------------------
     ethr =  4.14E-10,  avg # of iterations =  2.0

     negative rho (up, down):  5.166E-03 0.000E+00

     total cpu time spent up to now is     4744.8 secs

     End of self-consistent calculation

          k = 0.0000 0.0000 0.0000 ( 64855 PWs)   bands (ev):

  -123.1069-123.1056-123.1054-123.1051-123.1044-123.1042-123.1041-123.1040
  -123.1033-123.1031-123.1029-123.1025-123.1023-123.1019-123.1018-123.1013
  -123.0562-123.0548-123.0547-123.0539-123.0538-123.0533-123.0531-123.0530
  -123.0525-123.0524-123.0518-123.0516-123.0514-123.0508-123.0507-123.0501
  -122.9085-122.9071-122.9071-122.9066-122.9066-122.9063-122.9062-122.9056
  -122.9052-122.9051-122.9050-122.9048-122.9046-122.9044-122.9042-122.9040
  -122.8708-122.8694-122.8694-122.8691-122.8686-122.8685-122.8684-122.8679
  -122.8676-122.8673-122.8672-122.8669-122.8666-122.8665-122.8664-122.8660
   -77.2715 -77.2713 -77.2713 -77.2650 -77.2650 -77.2646 -77.2645 -77.2643
   -77.2642 -77.2583 -77.2567 -77.2566 -77.2562 -77.2555 -77.2553 -77.2552
   -77.2549 -77.2543 -77.2540 -77.2538 -77.2537 -77.2537 -77.2534 -77.2533
   -77.2532 -77.2532 -77.2529 -77.2529 -77.2528 -77.2527 -77.2522 -77.2515
   -77.2515 -77.2514 -77.2512 -77.2508 -77.2508 -77.2448 -77.2446 -77.2444
   -77.2402 -77.2402 -77.2400 -77.2397 -77.2395 -77.2394 -77.2351 -77.2350
   -77.2204 -77.2202 -77.2201 -77.2139 -77.2139 -77.2135 -77.2133 -77.2131
   -77.2130 -77.2077 -77.2062 -77.2061 -77.2053 -77.2051 -77.2046 -77.2045
   -77.2044 -77.2038 -77.2036 -77.2031 -77.2029 -77.2027 -77.2026 -77.2026
   -77.2022 -77.2021 -77.2021 -77.2020 -77.2018 -77.2017 -77.2015 -77.2005
   -77.2004 -77.2004 -77.2000 -77.1996 -77.1996 -77.1937 -77.1935 -77.1933
   -77.1891 -77.1891 -77.1888 -77.1887 -77.1883 -77.1883 -77.1840 -77.1838
   -77.0708 -77.0707 -77.0707 -77.0673 -77.0657 -77.0657 -77.0652 -77.0652
   -77.0649 -77.0648 -77.0643 -77.0643 -77.0641 -77.0641 -77.0640 -77.0639
   -77.0639 -77.0636 -77.0636 -77.0634 -77.0632 -77.0631 -77.0629 -77.0627
   -77.0624 -77.0530 -77.0529 -77.0528 -77.0527 -77.0526 -77.0525 -77.0509
   -77.0509 -77.0508 -77.0507 -77.0505 -77.0505 -77.0442 -77.0441 -77.0441
   -77.0396 -77.0396 -77.0394 -77.0394 -77.0392 -77.0392 -77.0347 -77.0347
   -77.0324 -77.0324 -77.0324 -77.0311 -77.0295 -77.0295 -77.0292 -77.0289
   -77.0287 -77.0285 -77.0278 -77.0276 -77.0273 -77.0272 -77.0270 -77.0268
   -77.0266 -77.0265 -77.0261 -77.0261 -77.0260 -77.0257 -77.0257 -77.0254
   -77.0254 -77.0147 -77.0146 -77.0144 -77.0143 -77.0141 -77.0141 -77.0126
   -77.0126 -77.0124 -77.0124 -77.0120 -77.0120 -77.0059 -77.0057 -77.0057
   -77.0013 -77.0012 -77.0011 -77.0009 -77.0008 -77.0008 -76.9963 -76.9962
    -6.7369  -5.9414  -5.2247  -5.1397  -5.1395  -5.1371  -5.1368  -5.1345
    -5.1343  -5.1255  -4.9456  -4.9456  -4.9456  -4.8836  -4.8836  -4.8836
    -4.7773  -4.7772  -4.7770  -4.7770  -4.7769  -4.7769  -4.7560  -4.7560
    -4.7560  -4.6739  -4.6739  -4.6739  -4.6202  -4.6202  -4.6199  -4.6199
    -4.6196  -4.6196  -4.5798  -4.5798  -4.5797  -4.5337  -4.5336  -4.5330
    -4.5329  -4.5323  -4.5323  -4.5213  -4.5213  -4.5203  -4.5202  -4.5194
    -4.5193  -4.5057  -4.5057  -4.5057  -4.4792  -4.4792  -4.4788  -4.4788
    -4.4784  -4.4784  -4.4348  -4.4348  -4.4343  -4.4342  -4.4335  -4.4335
    -4.3621  -4.3409  -4.3408  -4.3405  -4.3404  -4.3400  -4.3399  -4.3372
    -4.3372  -4.3365  -4.3364  -4.3358  -4.3357  -4.2911  -4.2910  -4.2906
    -4.2905  -4.2901  -4.2901  -4.2844  -4.2844  -4.2841  -4.2840  -4.2837
    -4.2837  -4.2823  -4.2822  -4.2822  -4.2427  -4.2427  -4.2421  -4.2421
    -4.2414  -4.2414  -4.1973  -4.1972  -4.1969  -4.1968  -4.1965  -4.1964
    -4.1571  -4.1571  -4.1535  -4.1535  -4.1528  -4.1528  -4.1520  -4.1520
    -4.1468  -4.1467  -4.1466  -4.1450  -4.1449  -4.1447  -4.1445  -4.1443
    -4.1442  -4.1270  -4.0998  -4.0998  -4.0811  -4.0810  -4.0807  -4.0807
    -4.0805  -4.0805  -4.0687  -4.0687  -4.0682  -4.0681  -4.0678  -4.0678
    -4.0271  -4.0271  -4.0268  -4.0267  -4.0265  -4.0264  -4.0005  -4.0005
    -4.0003  -4.0002  -3.9999  -3.9998  -3.9513  -3.9513  -3.9252  -3.9251
    -3.9247  -3.9246  -3.9243  -3.9242  -3.9085  -3.9085  -3.8859  -3.8859
    -3.8858  -3.8786  -3.8786  -3.8783  -3.8783  -3.8781  -3.8780  -3.8481
    -3.8481  -3.8478  -3.8477  -3.8474  -3.8473  -3.8276  -3.8276  -3.8274
    -3.8274  -3.8273  -3.8272  -3.8263  -3.8263  -3.8261  -3.8260  -3.8258
    -3.8258  -3.8021  -3.8020  -3.8020  -3.7969  -3.7968  -3.7964  -3.7963
    -3.7960  -3.7959  -3.7891  -3.7890  -3.7889  -3.7889  -3.7887  -3.7887
    -3.7880  -3.7880  -3.7878  -3.7878  -3.7871  -3.7870  -3.7677  -3.7677
    -3.7674  -3.7673  -3.7669  -3.7669  -3.7183  -3.7181  -3.7181  -3.7134
    -3.7134  -3.7130  -3.7129  -3.7126  -3.7125  -3.7031  -3.7028  -3.7025
    -3.7023  -3.7020  -3.7019  -3.6637  -3.6637  -3.6595  -3.6595  -3.6590
    -3.6589  -3.6585  -3.6585  -3.6499  -3.6498  -3.6496  -3.6496  -3.6494
    -3.6494  -3.6344  -3.6343  -3.6340  -3.6338  -3.6335  -3.6334  -3.6277
    -3.6277  -3.6275  -3.6274  -3.6268  -3.6268  -3.5636  -3.5636  -3.5563
    -3.5563  -3.5563  -3.5382  -3.5381  -3.5380  -3.5380  -3.5378  -3.5378
    -3.5229  -3.5229  -3.5229  -3.5046  -3.5046  -3.5046  -3.5024  -3.5023
    -3.5016  -3.5015  -3.5008  -3.5007  -3.4809  -3.4809  -3.4809  -3.4727
    -3.4727  -3.4723  -3.4723  -3.4718  -3.4718  -3.4618  -3.4618  -3.4616
    -3.4616  -3.4614  -3.4614  -3.4325  -3.4324  -3.4320  -3.4319  -3.4315
    -3.4315  -3.4207  -3.4207  -3.4207  -3.4184  -3.4184  -3.3854  -3.3854
    -3.3508  -3.3508  -3.3507  -3.3507  -3.3507  -3.3507  -3.3242  -3.3242
    -3.3239  -3.3239  -3.3237  -3.3236  -3.3172  -3.3172  -3.3172  -3.2655
    -3.2655  -3.2655  -3.2354  -3.1156  -3.1156  -3.1156  -3.1057  -3.1057
    -3.1053  -3.1052  -3.1049  -3.1049  -3.0771  -3.0771  -3.0771  -1.7174
    -1.7171  -1.7152  -1.7145  -1.7127  -1.7123  -1.2541  -0.2437  -0.2436
    -0.2432  -0.2431  -0.2421  -0.2420   0.1678   0.1686   0.1697   0.1714
     0.1725   0.1735   0.5951   0.5952   0.5957   0.5959   0.5967   0.5968
     0.9096   1.0427   1.0427   1.0428   1.6074   1.6075   1.6076   1.9531
     1.9531   1.9532   2.0066   2.0067   2.0076   2.0077   2.0089   2.0091
     2.2027   2.2027   2.2028   3.2156   3.2159   3.2167   3.2173   3.2180
     3.2185   3.6958   3.6959   3.6964   3.6965   3.6974   3.6977   3.8815
     4.2948   4.2948   4.2950   4.5777   4.5778   4.5779   5.3970   5.3970
     5.3972   5.7518   5.7526   5.7556   5.7573   5.7603   5.7614   6.3081
     6.3083   6.3083   6.3922   7.0830   7.0830   7.0837   7.0837   7.0861
     7.0863   7.2925   7.2926   7.2942   7.2943   7.2956   7.2957   7.3206
     7.3606   7.4750   7.4752   7.4762   7.4763   7.4772   7.4773   8.1433
     8.1441   8.1450   8.1466   8.1474   8.1484   8.1881   8.1882   8.1905
     8.1907   8.1933   8.1933   8.2495   8.2496   8.2500   8.2825   8.2826
     8.2832   8.2834   8.2844   8.2849   8.9201   9.1495   9.1496   9.1503
     9.1505   9.1511   9.1513   9.1561   9.1739   9.1742   9.1744   9.1749
     9.1752   9.1755   9.3011   9.3011   9.3052   9.3053   9.3105   9.3106
     9.7237   9.7238   9.7273   9.7273   9.7303   9.7304   9.7713   9.7714
     9.7731   9.7732   9.7765   9.7766   9.8972   9.8973   9.8975  10.7142
    10.7146  10.7153  10.7159  10.7166  10.7171  10.9189  10.9190  10.9200
    10.9201  10.9212  10.9212  11.0241  11.0242  11.0244  11.1715  11.1716
    11.1720  11.1725  11.1729  11.1732  11.3961  11.3964  11.3969  11.3977

     occupation numbers 
     1.0000   1.0000   1.0000   1.0000   1.0000   1.0000   1.0000   1.0000
     1.0000   1.0000   1.0000   1.0000   1.0000   1.0000   1.0000   1.0000
     1.0000   1.0000   1.0000   1.0000   1.0000   1.0000   1.0000   1.0000
     1.0000   1.0000   1.0000   1.0000   1.0000   1.0000   1.0000   1.0000
     1.0000   1.0000   1.0000   1.0000   1.0000   1.0000   1.0000   1.0000
     1.0000   1.0000   1.0000   1.0000   1.0000   1.0000   1.0000   1.0000
     1.0000   1.0000   1.0000   1.0000   1.0000   1.0000   1.0000   1.0000
     1.0000   1.0000   1.0000   1.0000   1.0000   1.0000   1.0000   1.0000
     1.0000   1.0000   1.0000   1.0000   1.0000   1.0000   1.0000   1.0000
     1.0000   1.0000   1.0000   1.0000   1.0000   1.0000   1.0000   1.0000
     1.0000   1.0000   1.0000   1.0000   1.0000   1.0000   1.0000   1.0000
     1.0000   1.0000   1.0000   1.0000   1.0000   1.0000   1.0000   1.0000
     1.0000   1.0000   1.0000   1.0000   1.0000   1.0000   1.0000   1.0000
     1.0000   1.0000   1.0000   1.0000   1.0000   1.0000   1.0000   1.0000
     1.0000   1.0000   1.0000   1.0000   1.0000   1.0000   1.0000   1.0000
     1.0000   1.0000   1.0000   1.0000   1.0000   1.0000   1.0000   1.0000
     1.0000   1.0000   1.0000   1.0000   1.0000   1.0000   1.0000   1.0000
     1.0000   1.0000   1.0000   1.0000   1.0000   1.0000   1.0000   1.0000
     1.0000   1.0000   1.0000   1.0000   1.0000   1.0000   1.0000   1.0000
     1.0000   1.0000   1.0000   1.0000   1.0000   1.0000   1.0000   1.0000
     1.0000   1.0000   1.0000   1.0000   1.0000   1.0000   1.0000   1.0000
     1.0000   1.0000   1.0000   1.0000   1.0000   1.0000   1.0000   1.0000
     1.0000   1.0000   1.0000   1.0000   1.0000   1.0000   1.0000   1.0000
     1.0000   1.0000   1.0000   1.0000   1.0000   1.0000   1.0000   1.0000
     1.0000   1.0000   1.0000   1.0000   1.0000   1.0000   1.0000   1.0000
     1.0000   1.0000   1.0000   1.0000   1.0000   1.0000   1.0000   1.0000
     1.0000   1.0000   1.0000   1.0000   1.0000   1.0000   1.0000   1.0000
     1.0000   1.0000   1.0000   1.0000   1.0000   1.0000   1.0000   1.0000
     1.0000   1.0000   1.0000   1.0000   1.0000   1.0000   1.0000   1.0000
     1.0000   1.0000   1.0000   1.0000   1.0000   1.0000   1.0000   1.0000
     1.0000   1.0000   1.0000   1.0000   1.0000   1.0000   1.0000   1.0000
     1.0000   1.0000   1.0000   1.0000   1.0000   1.0000   1.0000   1.0000
     1.0000   1.0000   1.0000   1.0000   1.0000   1.0000   1.0000   1.0000
     1.0000   1.0000   1.0000   1.0000   1.0000   1.0000   1.0000   1.0000
     1.0000   1.0000   1.0000   1.0000   1.0000   1.0000   1.0000   1.0000
     1.0000   1.0000   1.0000   1.0000   1.0000   1.0000   1.0000   1.0000
     1.0000   1.0000   1.0000   1.0000   1.0000   1.0000   1.0000   1.0000
     1.0000   1.0000   1.0000   1.0000   1.0000   1.0000   1.0000   1.0000
     1.0000   1.0000   1.0000   1.0000   1.0000   1.0000   1.0000   1.0000
     1.0000   1.0000   1.0000   1.0000   1.0000   1.0000   1.0000   1.0000
     1.0000   1.0000   1.0000   1.0000   1.0000   1.0000   1.0000   1.0000
     1.0000   1.0000   1.0000   1.0000   1.0000   1.0000   1.0000   1.0000
     1.0000   1.0000   1.0000   1.0000   1.0000   1.0000   1.0000   1.0000
     1.0000   1.0000   1.0000   1.0000   1.0000   1.0000   1.0000   1.0000
     1.0000   1.0000   1.0000   1.0000   1.0000   1.0000   1.0000   1.0000
     1.0000   1.0000   1.0000   1.0000   1.0000   1.0000   1.0000   1.0000
     1.0000   1.0000   1.0000   1.0000   1.0000   1.0000   1.0000   1.0000
     1.0000   1.0000   1.0000   1.0000   1.0000   1.0000   1.0000   1.0000
     1.0000   1.0000   1.0000   1.0000   1.0000   1.0000   1.0000   1.0000
     1.0000   1.0000   1.0000   1.0000   1.0000   1.0000   1.0000   1.0000
     1.0000   1.0000   1.0000   1.0000   1.0000   1.0000   1.0000   1.0000
     1.0000   1.0000   1.0000   1.0000   1.0000   1.0000   1.0000   1.0000
     1.0000   1.0000   1.0000   1.0000   1.0000   1.0000   1.0000   1.0000
     1.0000   1.0000   1.0000   1.0000   1.0000   1.0000   1.0000   1.0000
     1.0000   1.0000   1.0000   1.0000   1.0000   1.0000   1.0000   1.0000
     1.0000   1.0000   1.0000   1.0000   1.0000   1.0000   1.0000   1.0000
     1.0000   1.0000   1.0000   1.0000   1.0000   1.0000   1.0000   1.0000
     1.0000   1.0000   1.0000   1.0000   1.0000   1.0000   1.0000   1.0000
     1.0000   1.0000   1.0000   1.0000   1.0000   1.0000   1.0000   1.0000
     1.0000   1.0000   1.0000   1.0000   1.0000   1.0000   1.0000   1.0000
     1.0000   1.0000   1.0000   1.0000   1.0000   1.0000   1.0000   1.0000
     1.0000   1.0000   1.0000   1.0000   1.0000   1.0000   1.0000   1.0000
     1.0000   1.0000   1.0000   1.0000   1.0000   1.0000   1.0000   1.0000
     1.0000   1.0000   1.0000   1.0000   1.0000   1.0000   1.0000   1.0000
     1.0000   1.0000   1.0000   1.0000   1.0000   1.0000   1.0000   1.0000
     1.0000   1.0000   1.0000   1.0000   1.0000   1.0000   1.0000   1.0000
     1.0000   1.0000   1.0000   1.0000   1.0000   1.0000   1.0000   1.0000
     1.0000   1.0000   1.0000   1.0000   1.0000   1.0000   1.0000   1.0000
     1.0000   1.0000   1.0000   1.0000   1.0000   1.0000   1.0000   1.0000
     1.0000   1.0000   1.0000   1.0000   1.0000   1.0000   1.0000   1.0000
     1.0000   1.0000   1.0000   1.0000   1.0000   1.0000   1.0000   1.0000
     1.0000   1.0000   1.0000   1.0000   1.0000   1.0000   1.0000   1.0000
     1.0000   1.0000   1.0000   1.0000   1.0000   1.0000   1.0000   1.0000
     1.0000   1.0000   1.0000   1.0000   1.0000   1.0000   1.0000   1.0000
     1.0000   1.0000   1.0000   1.0000   1.0000   1.0000   1.0000   1.0000
     1.0000   1.0000   1.0000   1.0000   1.0000   1.0000   1.0000   1.0000
     1.0000   1.0000   1.0000   1.0000   1.0000   1.0000   1.0000   1.0000
     1.0000   1.0000   1.0000   1.0000   1.0000   1.0000   1.0000   1.0000
     1.0000   1.0000   1.0000   1.0000   1.0000   1.0000   1.0000   1.0000
     1.0000   1.0000   1.0000   1.0409   1.0410   1.0412   1.0414   1.0417
     1.0418   0.5746   0.5745   0.5731   0.5728   0.5702   0.5694   0.1581
     0.0004   0.0004   0.0004   0.0000   0.0000   0.0000   0.0000   0.0000
     0.0000   0.0000   0.0000   0.0000   0.0000   0.0000   0.0000   0.0000
     0.0000   0.0000   0.0000   0.0000   0.0000   0.0000   0.0000   0.0000
     0.0000   0.0000   0.0000   0.0000   0.0000   0.0000   0.0000   0.0000
     0.0000   0.0000   0.0000   0.0000   0.0000   0.0000   0.0000   0.0000
     0.0000   0.0000   0.0000   0.0000   0.0000   0.0000   0.0000   0.0000
     0.0000   0.0000   0.0000   0.0000   0.0000   0.0000   0.0000   0.0000
     0.0000   0.0000   0.0000   0.0000   0.0000   0.0000   0.0000   0.0000
     0.0000   0.0000   0.0000   0.0000   0.0000   0.0000   0.0000   0.0000
     0.0000   0.0000   0.0000   0.0000   0.0000   0.0000   0.0000   0.0000
     0.0000   0.0000   0.0000   0.0000   0.0000   0.0000   0.0000   0.0000
     0.0000   0.0000   0.0000   0.0000   0.0000   0.0000   0.0000   0.0000
     0.0000   0.0000   0.0000   0.0000   0.0000   0.0000   0.0000   0.0000
     0.0000   0.0000   0.0000   0.0000   0.0000   0.0000   0.0000   0.0000
     0.0000   0.0000   0.0000   0.0000   0.0000   0.0000   0.0000   0.0000

          k = 0.0000 0.3849 0.0000 ( 64840 PWs)   bands (ev):

  -123.1068-123.1060-123.1051-123.1049-123.1045-123.1043-123.1041-123.1037
  -123.1035-123.1031-123.1028-123.1025-123.1024-123.1021-123.1017-123.1013
  -123.0561-123.0552-123.0543-123.0541-123.0535-123.0535-123.0534-123.0527
  -123.0525-123.0522-123.0518-123.0516-123.0514-123.0509-123.0506-123.0502
  -122.9083-122.9077-122.9069-122.9068-122.9064-122.9061-122.9058-122.9056
  -122.9055-122.9051-122.9050-122.9048-122.9047-122.9045-122.9041-122.9040
  -122.8707-122.8700-122.8693-122.8689-122.8687-122.8683-122.8682-122.8678
  -122.8677-122.8674-122.8671-122.8669-122.8667-122.8666-122.8662-122.8660
   -77.2701 -77.2700 -77.2690 -77.2668 -77.2668 -77.2651 -77.2649 -77.2623
   -77.2622 -77.2621 -77.2582 -77.2581 -77.2581 -77.2573 -77.2563 -77.2560
   -77.2557 -77.2553 -77.2552 -77.2550 -77.2549 -77.2546 -77.2545 -77.2540
   -77.2538 -77.2534 -77.2533 -77.2530 -77.2526 -77.2522 -77.2498 -77.2496
   -77.2491 -77.2490 -77.2468 -77.2464 -77.2459 -77.2455 -77.2442 -77.2438
   -77.2426 -77.2421 -77.2416 -77.2396 -77.2393 -77.2374 -77.2373 -77.2357
   -77.2190 -77.2189 -77.2179 -77.2157 -77.2157 -77.2140 -77.2137 -77.2111
   -77.2110 -77.2110 -77.2076 -77.2070 -77.2069 -77.2067 -77.2056 -77.2055
   -77.2050 -77.2048 -77.2047 -77.2040 -77.2039 -77.2038 -77.2038 -77.2035
   -77.2031 -77.2030 -77.2027 -77.2023 -77.2019 -77.2015 -77.1988 -77.1985
   -77.1980 -77.1979 -77.1958 -77.1954 -77.1948 -77.1943 -77.1931 -77.1926
   -77.1916 -77.1910 -77.1905 -77.1885 -77.1882 -77.1863 -77.1861 -77.1846
   -77.0694 -77.0694 -77.0684 -77.0670 -77.0664 -77.0662 -77.0662 -77.0655
   -77.0654 -77.0650 -77.0646 -77.0645 -77.0644 -77.0643 -77.0641 -77.0640
   -77.0636 -77.0634 -77.0632 -77.0632 -77.0629 -77.0625 -77.0624 -77.0618
   -77.0618 -77.0617 -77.0577 -77.0576 -77.0545 -77.0544 -77.0491 -77.0490
   -77.0486 -77.0486 -77.0461 -77.0458 -77.0455 -77.0452 -77.0437 -77.0435
   -77.0420 -77.0417 -77.0415 -77.0390 -77.0389 -77.0370 -77.0370 -77.0353
   -77.0311 -77.0311 -77.0309 -77.0302 -77.0301 -77.0294 -77.0291 -77.0288
   -77.0285 -77.0282 -77.0279 -77.0279 -77.0279 -77.0278 -77.0273 -77.0272
   -77.0271 -77.0269 -77.0267 -77.0264 -77.0262 -77.0260 -77.0260 -77.0234
   -77.0234 -77.0233 -77.0193 -77.0192 -77.0161 -77.0161 -77.0108 -77.0107
   -77.0102 -77.0101 -77.0078 -77.0075 -77.0071 -77.0068 -77.0053 -77.0050
   -77.0036 -77.0033 -77.0030 -77.0007 -77.0005 -76.9986 -76.9986 -76.9969
    -6.5248  -5.9175  -5.7430  -5.3732  -5.3731  -5.2126  -5.0844  -5.0132
    -4.9175  -4.8758  -4.8718  -4.8718  -4.8536  -4.8195  -4.8193  -4.8155
    -4.8154  -4.8095  -4.8093  -4.7844  -4.7834  -4.7239  -4.7220  -4.6971
    -4.6971  -4.6739  -4.6739  -4.6683  -4.6682  -4.6469  -4.6435  -4.6178
    -4.6178  -4.6052  -4.6051  -4.6026  -4.6026  -4.5792  -4.5792  -4.5715
    -4.5646  -4.5645  -4.5570  -4.5569  -4.5485  -4.5455  -4.5454  -4.5312
    -4.5311  -4.5075  -4.5074  -4.5020  -4.5020  -4.4946  -4.4945  -4.4767
    -4.4733  -4.4732  -4.4698  -4.4697  -4.4640  -4.4639  -4.4620  -4.4308
    -4.4308  -4.4205  -4.4205  -4.4032  -4.4031  -4.4022  -4.4021  -4.3960
    -4.3959  -4.3951  -4.3449  -4.3444  -4.3440  -4.3436  -4.3401  -4.3197
    -4.3197  -4.3195  -4.3195  -4.3092  -4.3092  -4.2992  -4.2791  -4.2791
    -4.2716  -4.2715  -4.2688  -4.2687  -4.2652  -4.2652  -4.2630  -4.2450
    -4.2450  -4.2348  -4.2348  -4.2348  -4.2278  -4.2277  -4.2248  -4.2248
    -4.2240  -4.2119  -4.2119  -4.2017  -4.1995  -4.1994  -4.1853  -4.1581
    -4.1496  -4.1496  -4.1435  -4.1289  -4.1289  -4.1270  -4.1270  -4.1242
    -4.1221  -4.1220  -4.1172  -4.1171  -4.1158  -4.1056  -4.0884  -4.0883
    -4.0835  -4.0835  -4.0663  -4.0663  -4.0489  -4.0475  -4.0447  -4.0418
    -4.0417  -4.0392  -4.0391  -4.0150  -4.0149  -4.0044  -4.0044  -4.0003
    -4.0003  -3.9951  -3.9800  -3.9753  -3.9753  -3.9680  -3.9680  -3.9631
    -3.9525  -3.9454  -3.9453  -3.9429  -3.9427  -3.9371  -3.9163  -3.9162
    -3.9088  -3.9087  -3.9087  -3.9018  -3.8920  -3.8907  -3.8907  -3.8731
    -3.8582  -3.8567  -3.8567  -3.8388  -3.8382  -3.8378  -3.8378  -3.8377
    -3.8357  -3.8357  -3.8287  -3.8279  -3.8279  -3.8099  -3.8098  -3.8033
    -3.8032  -3.8007  -3.8006  -3.8002  -3.8002  -3.7851  -3.7850  -3.7807
    -3.7799  -3.7799  -3.7709  -3.7708  -3.7625  -3.7625  -3.7581  -3.7503
    -3.7503  -3.7357  -3.7357  -3.7314  -3.7313  -3.7278  -3.7210  -3.7209
    -3.7201  -3.7201  -3.7171  -3.7149  -3.7149  -3.7105  -3.7093  -3.6924
    -3.6921  -3.6920  -3.6917  -3.6916  -3.6896  -3.6873  -3.6873  -3.6873
    -3.6770  -3.6568  -3.6539  -3.6539  -3.6538  -3.6538  -3.6345  -3.6345
    -3.6273  -3.6273  -3.6007  -3.5997  -3.5997  -3.5947  -3.5946  -3.5931
    -3.5927  -3.5909  -3.5909  -3.5896  -3.5895  -3.5882  -3.5796  -3.5796
    -3.5709  -3.5676  -3.5676  -3.5667  -3.5666  -3.5614  -3.5614  -3.5584
    -3.5584  -3.5545  -3.5520  -3.5520  -3.5486  -3.5349  -3.5349  -3.5339
    -3.5339  -3.5178  -3.5079  -3.5079  -3.5047  -3.5047  -3.5018  -3.5001
    -3.5001  -3.4789  -3.4753  -3.4713  -3.4683  -3.4683  -3.4682  -3.4682
    -3.4642  -3.4606  -3.4605  -3.4591  -3.4590  -3.4551  -3.4494  -3.4455
    -3.4455  -3.4429  -3.4429  -3.4403  -3.4388  -3.4384  -3.4384  -3.4341
    -3.4341  -3.4242  -3.4109  -3.4108  -3.4095  -3.4066  -3.4066  -3.3919
    -3.3897  -3.3897  -3.3751  -3.3601  -3.3601  -3.3446  -3.3446  -3.3335
    -3.3335  -3.3328  -3.3242  -3.3200  -3.3200  -3.3033  -3.3033  -3.2951
    -3.2569  -3.2568  -3.2097  -3.2097  -3.1750  -3.1724  -3.1723  -3.1366
    -3.0568  -3.0567  -2.9961  -2.7199  -2.5245  -2.3914  -2.3913  -2.0408
    -2.0407  -1.9004  -1.9004  -1.8902  -1.1190  -1.1189  -1.1025  -0.9514
    -0.9513  -0.8859  -0.6446  -0.4000  -0.1586  -0.1585  -0.0933  -0.0933
    -0.0498   0.3034   0.3035   0.3981   0.3981   0.7426   0.7427   0.8922
     0.8923   1.1954   1.1965   1.1965   1.3472   1.4171   1.8464   1.8464
     1.9972   2.0709   2.0711   2.1314   2.1314   2.3780   2.3780   2.6907
     2.6908   2.7441   2.7442   2.8146   2.8146   2.8617   3.6761   3.6761
     3.9818   3.9819   4.0934   4.1322   4.1324   4.2858   4.2859   4.5200
     4.5201   4.7249   4.7782   4.8779   4.9197   4.9198   5.3494   5.3496
     5.3601   5.3603   5.4445   5.4446   5.5163   5.5174   5.5229   5.6282
     5.6282   5.9820   5.9821   6.0785   6.0786   6.3921   6.5639   6.5642
     6.5889   6.7814   6.7815   6.9442   6.9443   7.0623   7.0624   7.0872
     7.1345   7.1764   7.2801   7.2801   7.5254   7.5630   7.7025   7.7035
     7.7147   7.7227   7.7237   7.7625   7.7628   7.8558   7.8559   7.8814
     7.8816   8.1380   8.1695   8.2570   8.2602   8.2603   8.4917   8.4918
     8.5643   8.7483   8.7483   8.7747   8.7747   8.8943   8.8947   8.9049
     8.9053   9.0053   9.0053   9.1260   9.1351   9.1352   9.3406   9.3571
     9.3880   9.3881   9.4338   9.5002   9.5003   9.7393   9.8773   9.8774
     9.9109   9.9109   9.9433   9.9435   9.9576   9.9750   9.9750  10.0178
    10.0179  10.1824  10.1864  10.1866  10.3455  10.3455  10.4604  10.4605
    10.5527  10.5527  10.5997  10.6094  10.6095  10.6662  10.7419  10.7420
    10.8483  10.8485  10.8679  10.8681  10.9295  10.9297  11.1532  11.1533
    11.2392  11.2393  11.3335  11.4686  11.4720  11.4722  11.5702  11.5712

     occupation numbers 
     1.0000   1.0000   1.0000   1.0000   1.0000   1.0000   1.0000   1.0000
     1.0000   1.0000   1.0000   1.0000   1.0000   1.0000   1.0000   1.0000
     1.0000   1.0000   1.0000   1.0000   1.0000   1.0000   1.0000   1.0000
     1.0000   1.0000   1.0000   1.0000   1.0000   1.0000   1.0000   1.0000
     1.0000   1.0000   1.0000   1.0000   1.0000   1.0000   1.0000   1.0000
     1.0000   1.0000   1.0000   1.0000   1.0000   1.0000   1.0000   1.0000
     1.0000   1.0000   1.0000   1.0000   1.0000   1.0000   1.0000   1.0000
     1.0000   1.0000   1.0000   1.0000   1.0000   1.0000   1.0000   1.0000
     1.0000   1.0000   1.0000   1.0000   1.0000   1.0000   1.0000   1.0000
     1.0000   1.0000   1.0000   1.0000   1.0000   1.0000   1.0000   1.0000
     1.0000   1.0000   1.0000   1.0000   1.0000   1.0000   1.0000   1.0000
     1.0000   1.0000   1.0000   1.0000   1.0000   1.0000   1.0000   1.0000
     1.0000   1.0000   1.0000   1.0000   1.0000   1.0000   1.0000   1.0000
     1.0000   1.0000   1.0000   1.0000   1.0000   1.0000   1.0000   1.0000
     1.0000   1.0000   1.0000   1.0000   1.0000   1.0000   1.0000   1.0000
     1.0000   1.0000   1.0000   1.0000   1.0000   1.0000   1.0000   1.0000
     1.0000   1.0000   1.0000   1.0000   1.0000   1.0000   1.0000   1.0000
     1.0000   1.0000   1.0000   1.0000   1.0000   1.0000   1.0000   1.0000
     1.0000   1.0000   1.0000   1.0000   1.0000   1.0000   1.0000   1.0000
     1.0000   1.0000   1.0000   1.0000   1.0000   1.0000   1.0000   1.0000
     1.0000   1.0000   1.0000   1.0000   1.0000   1.0000   1.0000   1.0000
     1.0000   1.0000   1.0000   1.0000   1.0000   1.0000   1.0000   1.0000
     1.0000   1.0000   1.0000   1.0000   1.0000   1.0000   1.0000   1.0000
     1.0000   1.0000   1.0000   1.0000   1.0000   1.0000   1.0000   1.0000
     1.0000   1.0000   1.0000   1.0000   1.0000   1.0000   1.0000   1.0000
     1.0000   1.0000   1.0000   1.0000   1.0000   1.0000   1.0000   1.0000
     1.0000   1.0000   1.0000   1.0000   1.0000   1.0000   1.0000   1.0000
     1.0000   1.0000   1.0000   1.0000   1.0000   1.0000   1.0000   1.0000
     1.0000   1.0000   1.0000   1.0000   1.0000   1.0000   1.0000   1.0000
     1.0000   1.0000   1.0000   1.0000   1.0000   1.0000   1.0000   1.0000
     1.0000   1.0000   1.0000   1.0000   1.0000   1.0000   1.0000   1.0000
     1.0000   1.0000   1.0000   1.0000   1.0000   1.0000   1.0000   1.0000
     1.0000   1.0000   1.0000   1.0000   1.0000   1.0000   1.0000   1.0000
     1.0000   1.0000   1.0000   1.0000   1.0000   1.0000   1.0000   1.0000
     1.0000   1.0000   1.0000   1.0000   1.0000   1.0000   1.0000   1.0000
     1.0000   1.0000   1.0000   1.0000   1.0000   1.0000   1.0000   1.0000
     1.0000   1.0000   1.0000   1.0000   1.0000   1.0000   1.0000   1.0000
     1.0000   1.0000   1.0000   1.0000   1.0000   1.0000   1.0000   1.0000
     1.0000   1.0000   1.0000   1.0000   1.0000   1.0000   1.0000   1.0000
     1.0000   1.0000   1.0000   1.0000   1.0000   1.0000   1.0000   1.0000
     1.0000   1.0000   1.0000   1.0000   1.0000   1.0000   1.0000   1.0000
     1.0000   1.0000   1.0000   1.0000   1.0000   1.0000   1.0000   1.0000
     1.0000   1.0000   1.0000   1.0000   1.0000   1.0000   1.0000   1.0000
     1.0000   1.0000   1.0000   1.0000   1.0000   1.0000   1.0000   1.0000
     1.0000   1.0000   1.0000   1.0000   1.0000   1.0000   1.0000   1.0000
     1.0000   1.0000   1.0000   1.0000   1.0000   1.0000   1.0000   1.0000
     1.0000   1.0000   1.0000   1.0000   1.0000   1.0000   1.0000   1.0000
     1.0000   1.0000   1.0000   1.0000   1.0000   1.0000   1.0000   1.0000
     1.0000   1.0000   1.0000   1.0000   1.0000   1.0000   1.0000   1.0000
     1.0000   1.0000   1.0000   1.0000   1.0000   1.0000   1.0000   1.0000
     1.0000   1.0000   1.0000   1.0000   1.0000   1.0000   1.0000   1.0000
     1.0000   1.0000   1.0000   1.0000   1.0000   1.0000   1.0000   1.0000
     1.0000   1.0000   1.0000   1.0000   1.0000   1.0000   1.0000   1.0000
     1.0000   1.0000   1.0000   1.0000   1.0000   1.0000   1.0000   1.0000
     1.0000   1.0000   1.0000   1.0000   1.0000   1.0000   1.0000   1.0000
     1.0000   1.0000   1.0000   1.0000   1.0000   1.0000   1.0000   1.0000
     1.0000   1.0000   1.0000   1.0000   1.0000   1.0000   1.0000   1.0000
     1.0000   1.0000   1.0000   1.0000   1.0000   1.0000   1.0000   1.0000
     1.0000   1.0000   1.0000   1.0000   1.0000   1.0000   1.0000   1.0000
     1.0000   1.0000   1.0000   1.0000   1.0000   1.0000   1.0000   1.0000
     1.0000   1.0000   1.0000   1.0000   1.0000   1.0000   1.0000   1.0000
     1.0000   1.0000   1.0000   1.0000   1.0000   1.0000   1.0000   1.0000
     1.0000   1.0000   1.0000   1.0000   1.0000   1.0000   1.0000   1.0000
     1.0000   1.0000   1.0000   1.0000   1.0000   1.0000   1.0000   1.0000
     1.0000   1.0000   1.0000   1.0000   1.0000   1.0000   1.0000   1.0000
     1.0000   1.0000   1.0000   1.0000   1.0000   1.0000   1.0000   1.0000
     1.0000   1.0000   1.0000   1.0000   1.0000   1.0000   1.0000   1.0000
     1.0000   1.0000   1.0000   1.0000   1.0000   1.0000   1.0000   1.0000
     1.0000   1.0000   1.0000   1.0000   1.0000   1.0000   1.0000   1.0000
     1.0000   1.0000   1.0000   1.0000   1.0000   1.0000   1.0000   1.0000
     1.0000   1.0000   1.0000   1.0000   1.0000   1.0000   1.0000   1.0000
     1.0000   1.0000   1.0000   1.0000   1.0000   1.0000   1.0000   1.0000
     1.0000   1.0000   1.0000   1.0000   1.0000   1.0000   1.0000   1.0000
     1.0000   1.0000   1.0000   1.0000   1.0000   1.0000   1.0000   1.0000
     1.0000   1.0000   1.0000   1.0000   1.0000   1.0000   1.0000   1.0000
     1.0000   1.0000   1.0000   1.0000   1.0000   1.0000   1.0000   1.0000
     1.0000   1.0000   1.0000   1.0000   1.0000   1.0000   1.0000   1.0000
     1.0000   1.0000   1.0000   1.0000   1.0000   1.0000   1.0000   1.0000
     1.0000   1.0000   1.0000   1.0000   1.0000   1.0000   1.0000   1.0000
     1.0000   1.0000   1.0000   1.0001   1.0001   1.0003   0.6293   0.6292
     0.0556   0.0555   0.0129   0.0072   0.0071   0.0005   0.0005   0.0000
     0.0000   0.0000   0.0000   0.0000   0.0000   0.0000   0.0000   0.0000
     0.0000   0.0000   0.0000   0.0000   0.0000   0.0000   0.0000   0.0000
     0.0000   0.0000   0.0000   0.0000   0.0000   0.0000   0.0000   0.0000
     0.0000   0.0000   0.0000   0.0000   0.0000   0.0000   0.0000   0.0000
     0.0000   0.0000   0.0000   0.0000   0.0000   0.0000   0.0000   0.0000
     0.0000   0.0000   0.0000   0.0000   0.0000   0.0000   0.0000   0.0000
     0.0000   0.0000   0.0000   0.0000   0.0000   0.0000   0.0000   0.0000
     0.0000   0.0000   0.0000   0.0000   0.0000   0.0000   0.0000   0.0000
     0.0000   0.0000   0.0000   0.0000   0.0000   0.0000   0.0000   0.0000
     0.0000   0.0000   0.0000   0.0000   0.0000   0.0000   0.0000   0.0000
     0.0000   0.0000   0.0000   0.0000   0.0000   0.0000   0.0000   0.0000
     0.0000   0.0000   0.0000   0.0000   0.0000   0.0000   0.0000   0.0000
     0.0000   0.0000   0.0000   0.0000   0.0000   0.0000   0.0000   0.0000
     0.0000   0.0000   0.0000   0.0000   0.0000   0.0000   0.0000   0.0000
     0.0000   0.0000   0.0000   0.0000   0.0000   0.0000   0.0000   0.0000

          k = 0.3333 0.1925 0.0000 ( 64840 PWs)   bands (ev):

  -123.1068-123.1060-123.1052-123.1049-123.1047-123.1042-123.1040-123.1037
  -123.1035-123.1031-123.1028-123.1025-123.1024-123.1020-123.1017-123.1013
  -123.0561-123.0552-123.0543-123.0540-123.0538-123.0534-123.0531-123.0528
  -123.0525-123.0522-123.0518-123.0516-123.0514-123.0509-123.0506-123.0502
  -122.9083-122.9077-122.9069-122.9067-122.9064-122.9061-122.9058-122.9056
  -122.9055-122.9051-122.9050-122.9048-122.9047-122.9045-122.9041-122.9040
  -122.8707-122.8700-122.8693-122.8690-122.8687-122.8683-122.8682-122.8678
  -122.8677-122.8674-122.8671-122.8669-122.8667-122.8665-122.8663-122.8660
   -77.2701 -77.2700 -77.2690 -77.2668 -77.2668 -77.2652 -77.2649 -77.2623
   -77.2623 -77.2621 -77.2582 -77.2581 -77.2581 -77.2573 -77.2563 -77.2559
   -77.2558 -77.2552 -77.2551 -77.2550 -77.2549 -77.2547 -77.2545 -77.2540
   -77.2538 -77.2535 -77.2533 -77.2529 -77.2526 -77.2522 -77.2498 -77.2495
   -77.2491 -77.2490 -77.2468 -77.2463 -77.2460 -77.2454 -77.2442 -77.2438
   -77.2426 -77.2421 -77.2417 -77.2396 -77.2393 -77.2375 -77.2373 -77.2357
   -77.2190 -77.2189 -77.2179 -77.2157 -77.2156 -77.2141 -77.2137 -77.2111
   -77.2111 -77.2109 -77.2076 -77.2070 -77.2069 -77.2067 -77.2056 -77.2054
   -77.2052 -77.2047 -77.2045 -77.2041 -77.2039 -77.2039 -77.2038 -77.2035
   -77.2031 -77.2030 -77.2027 -77.2022 -77.2019 -77.2015 -77.1988 -77.1984
   -77.1981 -77.1979 -77.1958 -77.1952 -77.1950 -77.1943 -77.1931 -77.1927
   -77.1915 -77.1910 -77.1905 -77.1885 -77.1881 -77.1864 -77.1861 -77.1845
   -77.0694 -77.0694 -77.0684 -77.0670 -77.0664 -77.0662 -77.0662 -77.0655
   -77.0654 -77.0650 -77.0646 -77.0645 -77.0644 -77.0643 -77.0641 -77.0640
   -77.0636 -77.0635 -77.0632 -77.0632 -77.0630 -77.0625 -77.0624 -77.0618
   -77.0618 -77.0617 -77.0577 -77.0576 -77.0545 -77.0544 -77.0491 -77.0490
   -77.0486 -77.0486 -77.0461 -77.0459 -77.0455 -77.0452 -77.0437 -77.0435
   -77.0420 -77.0417 -77.0415 -77.0390 -77.0389 -77.0370 -77.0370 -77.0353
   -77.0311 -77.0311 -77.0309 -77.0302 -77.0301 -77.0294 -77.0292 -77.0287
   -77.0284 -77.0282 -77.0279 -77.0279 -77.0279 -77.0278 -77.0274 -77.0272
   -77.0270 -77.0269 -77.0267 -77.0264 -77.0262 -77.0261 -77.0260 -77.0234
   -77.0234 -77.0233 -77.0193 -77.0192 -77.0161 -77.0160 -77.0108 -77.0107
   -77.0103 -77.0101 -77.0078 -77.0075 -77.0071 -77.0068 -77.0053 -77.0051
   -77.0036 -77.0033 -77.0030 -77.0007 -77.0005 -76.9987 -76.9986 -76.9969
    -6.5248  -5.9175  -5.7430  -5.3732  -5.3731  -5.2126  -5.0844  -5.0132
    -4.9175  -4.8758  -4.8718  -4.8718  -4.8536  -4.8194  -4.8194  -4.8155
    -4.8154  -4.8095  -4.8093  -4.7844  -4.7834  -4.7239  -4.7220  -4.6971
    -4.6971  -4.6739  -4.6739  -4.6683  -4.6682  -4.6469  -4.6435  -4.6178
    -4.6178  -4.6052  -4.6051  -4.6026  -4.6026  -4.5792  -4.5792  -4.5715
    -4.5646  -4.5645  -4.5570  -4.5569  -4.5485  -4.5455  -4.5454  -4.5311
    -4.5311  -4.5075  -4.5074  -4.5020  -4.5020  -4.4946  -4.4945  -4.4767
    -4.4733  -4.4732  -4.4697  -4.4697  -4.4640  -4.4639  -4.4620  -4.4308
    -4.4308  -4.4205  -4.4205  -4.4032  -4.4031  -4.4022  -4.4021  -4.3960
    -4.3959  -4.3951  -4.3449  -4.3444  -4.3441  -4.3436  -4.3401  -4.3198
    -4.3198  -4.3194  -4.3194  -4.3092  -4.3092  -4.2992  -4.2791  -4.2791
    -4.2716  -4.2715  -4.2687  -4.2687  -4.2653  -4.2652  -4.2630  -4.2450
    -4.2450  -4.2348  -4.2348  -4.2348  -4.2278  -4.2277  -4.2248  -4.2248
    -4.2240  -4.2119  -4.2119  -4.2017  -4.1995  -4.1994  -4.1853  -4.1581
    -4.1496  -4.1496  -4.1435  -4.1289  -4.1289  -4.1270  -4.1270  -4.1242
    -4.1221  -4.1220  -4.1172  -4.1172  -4.1158  -4.1056  -4.0884  -4.0884
    -4.0835  -4.0835  -4.0663  -4.0663  -4.0489  -4.0475  -4.0447  -4.0418
    -4.0417  -4.0392  -4.0391  -4.0150  -4.0150  -4.0044  -4.0044  -4.0003
    -4.0003  -3.9952  -3.9800  -3.9753  -3.9753  -3.9680  -3.9680  -3.9631
    -3.9525  -3.9454  -3.9453  -3.9429  -3.9427  -3.9371  -3.9163  -3.9162
    -3.9088  -3.9087  -3.9086  -3.9018  -3.8920  -3.8907  -3.8907  -3.8731
    -3.8582  -3.8567  -3.8567  -3.8388  -3.8382  -3.8378  -3.8378  -3.8378
    -3.8357  -3.8357  -3.8287  -3.8279  -3.8279  -3.8098  -3.8098  -3.8033
    -3.8032  -3.8007  -3.8006  -3.8002  -3.8002  -3.7851  -3.7851  -3.7807
    -3.7799  -3.7799  -3.7709  -3.7708  -3.7625  -3.7625  -3.7581  -3.7503
    -3.7503  -3.7357  -3.7356  -3.7314  -3.7313  -3.7278  -3.7210  -3.7209
    -3.7201  -3.7200  -3.7171  -3.7149  -3.7149  -3.7105  -3.7093  -3.6924
    -3.6921  -3.6919  -3.6918  -3.6916  -3.6896  -3.6873  -3.6873  -3.6873
    -3.6770  -3.6568  -3.6539  -3.6539  -3.6538  -3.6538  -3.6345  -3.6345
    -3.6273  -3.6273  -3.6007  -3.5997  -3.5997  -3.5947  -3.5946  -3.5930
    -3.5927  -3.5909  -3.5909  -3.5896  -3.5895  -3.5882  -3.5796  -3.5796
    -3.5710  -3.5676  -3.5676  -3.5667  -3.5666  -3.5614  -3.5614  -3.5584
    -3.5584  -3.5545  -3.5520  -3.5520  -3.5486  -3.5349  -3.5349  -3.5339
    -3.5339  -3.5178  -3.5079  -3.5079  -3.5047  -3.5047  -3.5018  -3.5001
    -3.5001  -3.4789  -3.4753  -3.4713  -3.4683  -3.4683  -3.4682  -3.4682
    -3.4642  -3.4606  -3.4605  -3.4591  -3.4590  -3.4551  -3.4494  -3.4455
    -3.4455  -3.4429  -3.4429  -3.4403  -3.4387  -3.4384  -3.4384  -3.4341
    -3.4341  -3.4242  -3.4108  -3.4108  -3.4095  -3.4066  -3.4066  -3.3919
    -3.3897  -3.3897  -3.3751  -3.3601  -3.3601  -3.3446  -3.3446  -3.3335
    -3.3335  -3.3328  -3.3242  -3.3200  -3.3200  -3.3033  -3.3033  -3.2951
    -3.2568  -3.2568  -3.2097  -3.2097  -3.1750  -3.1724  -3.1723  -3.1366
    -3.0567  -3.0567  -2.9961  -2.7199  -2.5245  -2.3914  -2.3913  -2.0408
    -2.0407  -1.9004  -1.9004  -1.8902  -1.1190  -1.1189  -1.1025  -0.9514
    -0.9513  -0.8859  -0.6446  -0.4000  -0.1586  -0.1585  -0.0933  -0.0933
    -0.0498   0.3034   0.3035   0.3981   0.3981   0.7426   0.7427   0.8922
     0.8923   1.1954   1.1965   1.1965   1.3472   1.4171   1.8464   1.8464
     1.9972   2.0709   2.0711   2.1314   2.1314   2.3780   2.3780   2.6907
     2.6908   2.7441   2.7441   2.8146   2.8146   2.8617   3.6761   3.6761
     3.9818   3.9819   4.0933   4.1322   4.1324   4.2859   4.2859   4.5200
     4.5201   4.7249   4.7782   4.8779   4.9197   4.9198   5.3494   5.3497
     5.3601   5.3603   5.4445   5.4446   5.5163   5.5174   5.5230   5.6282
     5.6282   5.9820   5.9821   6.0785   6.0786   6.3921   6.5639   6.5642
     6.5888   6.7814   6.7815   6.9442   6.9443   7.0623   7.0624   7.0872
     7.1345   7.1764   7.2801   7.2801   7.5254   7.5630   7.7025   7.7035
     7.7147   7.7228   7.7237   7.7625   7.7628   7.8558   7.8559   7.8814
     7.8815   8.1380   8.1695   8.2571   8.2602   8.2603   8.4917   8.4918
     8.5643   8.7483   8.7483   8.7747   8.7747   8.8943   8.8948   8.9048
     8.9053   9.0053   9.0053   9.1260   9.1351   9.1352   9.3406   9.3571
     9.3880   9.3881   9.4338   9.5002   9.5003   9.7393   9.8773   9.8774
     9.9109   9.9109   9.9433   9.9435   9.9576   9.9750   9.9750  10.0178
    10.0179  10.1824  10.1864  10.1866  10.3454  10.3455  10.4604  10.4605
    10.5527  10.5527  10.5997  10.6094  10.6095  10.6662  10.7419  10.7420
    10.8483  10.8485  10.8678  10.8681  10.9296  10.9297  11.1532  11.1532
    11.2393  11.2393  11.3335  11.4686  11.4720  11.4722  11.5712  11.5712

     occupation numbers 
     1.0000   1.0000   1.0000   1.0000   1.0000   1.0000   1.0000   1.0000
     1.0000   1.0000   1.0000   1.0000   1.0000   1.0000   1.0000   1.0000
     1.0000   1.0000   1.0000   1.0000   1.0000   1.0000   1.0000   1.0000
     1.0000   1.0000   1.0000   1.0000   1.0000   1.0000   1.0000   1.0000
     1.0000   1.0000   1.0000   1.0000   1.0000   1.0000   1.0000   1.0000
     1.0000   1.0000   1.0000   1.0000   1.0000   1.0000   1.0000   1.0000
     1.0000   1.0000   1.0000   1.0000   1.0000   1.0000   1.0000   1.0000
     1.0000   1.0000   1.0000   1.0000   1.0000   1.0000   1.0000   1.0000
     1.0000   1.0000   1.0000   1.0000   1.0000   1.0000   1.0000   1.0000
     1.0000   1.0000   1.0000   1.0000   1.0000   1.0000   1.0000   1.0000
     1.0000   1.0000   1.0000   1.0000   1.0000   1.0000   1.0000   1.0000
     1.0000   1.0000   1.0000   1.0000   1.0000   1.0000   1.0000   1.0000
     1.0000   1.0000   1.0000   1.0000   1.0000   1.0000   1.0000   1.0000
     1.0000   1.0000   1.0000   1.0000   1.0000   1.0000   1.0000   1.0000
     1.0000   1.0000   1.0000   1.0000   1.0000   1.0000   1.0000   1.0000
     1.0000   1.0000   1.0000   1.0000   1.0000   1.0000   1.0000   1.0000
     1.0000   1.0000   1.0000   1.0000   1.0000   1.0000   1.0000   1.0000
     1.0000   1.0000   1.0000   1.0000   1.0000   1.0000   1.0000   1.0000
     1.0000   1.0000   1.0000   1.0000   1.0000   1.0000   1.0000   1.0000
     1.0000   1.0000   1.0000   1.0000   1.0000   1.0000   1.0000   1.0000
     1.0000   1.0000   1.0000   1.0000   1.0000   1.0000   1.0000   1.0000
     1.0000   1.0000   1.0000   1.0000   1.0000   1.0000   1.0000   1.0000
     1.0000   1.0000   1.0000   1.0000   1.0000   1.0000   1.0000   1.0000
     1.0000   1.0000   1.0000   1.0000   1.0000   1.0000   1.0000   1.0000
     1.0000   1.0000   1.0000   1.0000   1.0000   1.0000   1.0000   1.0000
     1.0000   1.0000   1.0000   1.0000   1.0000   1.0000   1.0000   1.0000
     1.0000   1.0000   1.0000   1.0000   1.0000   1.0000   1.0000   1.0000
     1.0000   1.0000   1.0000   1.0000   1.0000   1.0000   1.0000   1.0000
     1.0000   1.0000   1.0000   1.0000   1.0000   1.0000   1.0000   1.0000
     1.0000   1.0000   1.0000   1.0000   1.0000   1.0000   1.0000   1.0000
     1.0000   1.0000   1.0000   1.0000   1.0000   1.0000   1.0000   1.0000
     1.0000   1.0000   1.0000   1.0000   1.0000   1.0000   1.0000   1.0000
     1.0000   1.0000   1.0000   1.0000   1.0000   1.0000   1.0000   1.0000
     1.0000   1.0000   1.0000   1.0000   1.0000   1.0000   1.0000   1.0000
     1.0000   1.0000   1.0000   1.0000   1.0000   1.0000   1.0000   1.0000
     1.0000   1.0000   1.0000   1.0000   1.0000   1.0000   1.0000   1.0000
     1.0000   1.0000   1.0000   1.0000   1.0000   1.0000   1.0000   1.0000
     1.0000   1.0000   1.0000   1.0000   1.0000   1.0000   1.0000   1.0000
     1.0000   1.0000   1.0000   1.0000   1.0000   1.0000   1.0000   1.0000
     1.0000   1.0000   1.0000   1.0000   1.0000   1.0000   1.0000   1.0000
     1.0000   1.0000   1.0000   1.0000   1.0000   1.0000   1.0000   1.0000
     1.0000   1.0000   1.0000   1.0000   1.0000   1.0000   1.0000   1.0000
     1.0000   1.0000   1.0000   1.0000   1.0000   1.0000   1.0000   1.0000
     1.0000   1.0000   1.0000   1.0000   1.0000   1.0000   1.0000   1.0000
     1.0000   1.0000   1.0000   1.0000   1.0000   1.0000   1.0000   1.0000
     1.0000   1.0000   1.0000   1.0000   1.0000   1.0000   1.0000   1.0000
     1.0000   1.0000   1.0000   1.0000   1.0000   1.0000   1.0000   1.0000
     1.0000   1.0000   1.0000   1.0000   1.0000   1.0000   1.0000   1.0000
     1.0000   1.0000   1.0000   1.0000   1.0000   1.0000   1.0000   1.0000
     1.0000   1.0000   1.0000   1.0000   1.0000   1.0000   1.0000   1.0000
     1.0000   1.0000   1.0000   1.0000   1.0000   1.0000   1.0000   1.0000
     1.0000   1.0000   1.0000   1.0000   1.0000   1.0000   1.0000   1.0000
     1.0000   1.0000   1.0000   1.0000   1.0000   1.0000   1.0000   1.0000
     1.0000   1.0000   1.0000   1.0000   1.0000   1.0000   1.0000   1.0000
     1.0000   1.0000   1.0000   1.0000   1.0000   1.0000   1.0000   1.0000
     1.0000   1.0000   1.0000   1.0000   1.0000   1.0000   1.0000   1.0000
     1.0000   1.0000   1.0000   1.0000   1.0000   1.0000   1.0000   1.0000
     1.0000   1.0000   1.0000   1.0000   1.0000   1.0000   1.0000   1.0000
     1.0000   1.0000   1.0000   1.0000   1.0000   1.0000   1.0000   1.0000
     1.0000   1.0000   1.0000   1.0000   1.0000   1.0000   1.0000   1.0000
     1.0000   1.0000   1.0000   1.0000   1.0000   1.0000   1.0000   1.0000
     1.0000   1.0000   1.0000   1.0000   1.0000   1.0000   1.0000   1.0000
     1.0000   1.0000   1.0000   1.0000   1.0000   1.0000   1.0000   1.0000
     1.0000   1.0000   1.0000   1.0000   1.0000   1.0000   1.0000   1.0000
     1.0000   1.0000   1.0000   1.0000   1.0000   1.0000   1.0000   1.0000
     1.0000   1.0000   1.0000   1.0000   1.0000   1.0000   1.0000   1.0000
     1.0000   1.0000   1.0000   1.0000   1.0000   1.0000   1.0000   1.0000
     1.0000   1.0000   1.0000   1.0000   1.0000   1.0000   1.0000   1.0000
     1.0000   1.0000   1.0000   1.0000   1.0000   1.0000   1.0000   1.0000
     1.0000   1.0000   1.0000   1.0000   1.0000   1.0000   1.0000   1.0000
     1.0000   1.0000   1.0000   1.0000   1.0000   1.0000   1.0000   1.0000
     1.0000   1.0000   1.0000   1.0000   1.0000   1.0000   1.0000   1.0000
     1.0000   1.0000   1.0000   1.0000   1.0000   1.0000   1.0000   1.0000
     1.0000   1.0000   1.0000   1.0000   1.0000   1.0000   1.0000   1.0000
     1.0000   1.0000   1.0000   1.0000   1.0000   1.0000   1.0000   1.0000
     1.0000   1.0000   1.0000   1.0000   1.0000   1.0000   1.0000   1.0000
     1.0000   1.0000   1.0000   1.0000   1.0000   1.0000   1.0000   1.0000
     1.0000   1.0000   1.0000   1.0000   1.0000   1.0000   1.0000   1.0000
     1.0000   1.0000   1.0000   1.0000   1.0000   1.0000   1.0000   1.0000
     1.0000   1.0000   1.0000   1.0001   1.0001   1.0003   0.6294   0.6292
     0.0556   0.0555   0.0129   0.0072   0.0071   0.0005   0.0005   0.0000
     0.0000   0.0000   0.0000   0.0000   0.0000   0.0000   0.0000   0.0000
     0.0000   0.0000   0.0000   0.0000   0.0000   0.0000   0.0000   0.0000
     0.0000   0.0000   0.0000   0.0000   0.0000   0.0000   0.0000   0.0000
     0.0000   0.0000   0.0000   0.0000   0.0000   0.0000   0.0000   0.0000
     0.0000   0.0000   0.0000   0.0000   0.0000   0.0000   0.0000   0.0000
     0.0000   0.0000   0.0000   0.0000   0.0000   0.0000   0.0000   0.0000
     0.0000   0.0000   0.0000   0.0000   0.0000   0.0000   0.0000   0.0000
     0.0000   0.0000   0.0000   0.0000   0.0000   0.0000   0.0000   0.0000
     0.0000   0.0000   0.0000   0.0000   0.0000   0.0000   0.0000   0.0000
     0.0000   0.0000   0.0000   0.0000   0.0000   0.0000   0.0000   0.0000
     0.0000   0.0000   0.0000   0.0000   0.0000   0.0000   0.0000   0.0000
     0.0000   0.0000   0.0000   0.0000   0.0000   0.0000   0.0000   0.0000
     0.0000   0.0000   0.0000   0.0000   0.0000   0.0000   0.0000   0.0000
     0.0000   0.0000   0.0000   0.0000   0.0000   0.0000   0.0000   0.0000
     0.0000   0.0000   0.0000   0.0000   0.0000   0.0000   0.0000   0.0000

          k = 0.3333 0.5774 0.0000 ( 64848 PWs)   bands (ev):

  -123.1067-123.1060-123.1053-123.1049-123.1045-123.1043-123.1039-123.1038
  -123.1035-123.1031-123.1029-123.1025-123.1024-123.1020-123.1017-123.1013
  -123.0561-123.0552-123.0543-123.0542-123.0536-123.0533-123.0532-123.0528
  -123.0524-123.0522-123.0518-123.0516-123.0514-123.0509-123.0506-123.0502
  -122.9081-122.9078-122.9073-122.9064-122.9062-122.9061-122.9058-122.9056
  -122.9054-122.9052-122.9051-122.9049-122.9047-122.9044-122.9041-122.9039
  -122.8706-122.8700-122.8695-122.8688-122.8686-122.8683-122.8681-122.8679
  -122.8676-122.8674-122.8672-122.8670-122.8667-122.8665-122.8662-122.8660
   -77.2689 -77.2685 -77.2681 -77.2663 -77.2660 -77.2658 -77.2656 -77.2650
   -77.2649 -77.2607 -77.2606 -77.2580 -77.2573 -77.2566 -77.2562 -77.2561
   -77.2561 -77.2559 -77.2556 -77.2552 -77.2550 -77.2548 -77.2545 -77.2540
   -77.2538 -77.2535 -77.2533 -77.2529 -77.2526 -77.2522 -77.2505 -77.2502
   -77.2498 -77.2453 -77.2450 -77.2448 -77.2445 -77.2440 -77.2439 -77.2432
   -77.2427 -77.2425 -77.2422 -77.2416 -77.2414 -77.2373 -77.2370 -77.2366
   -77.2179 -77.2174 -77.2169 -77.2153 -77.2150 -77.2146 -77.2144 -77.2137
   -77.2137 -77.2095 -77.2094 -77.2075 -77.2067 -77.2058 -77.2056 -77.2050
   -77.2050 -77.2049 -77.2049 -77.2047 -77.2045 -77.2042 -77.2038 -77.2036
   -77.2032 -77.2030 -77.2027 -77.2022 -77.2019 -77.2015 -77.1995 -77.1991
   -77.1986 -77.1944 -77.1940 -77.1937 -77.1934 -77.1928 -77.1927 -77.1922
   -77.1916 -77.1914 -77.1911 -77.1905 -77.1901 -77.1862 -77.1859 -77.1854
   -77.0681 -77.0678 -77.0677 -77.0668 -77.0665 -77.0660 -77.0655 -77.0654
   -77.0652 -77.0651 -77.0650 -77.0648 -77.0648 -77.0647 -77.0647 -77.0643
   -77.0641 -77.0639 -77.0637 -77.0636 -77.0634 -77.0632 -77.0629 -77.0625
   -77.0623 -77.0602 -77.0602 -77.0556 -77.0556 -77.0556 -77.0499 -77.0496
   -77.0495 -77.0445 -77.0443 -77.0441 -77.0441 -77.0438 -77.0437 -77.0424
   -77.0422 -77.0421 -77.0417 -77.0413 -77.0413 -77.0368 -77.0366 -77.0364
   -77.0308 -77.0303 -77.0298 -77.0298 -77.0295 -77.0293 -77.0288 -77.0287
   -77.0284 -77.0281 -77.0279 -77.0276 -77.0275 -77.0274 -77.0273 -77.0272
   -77.0271 -77.0269 -77.0268 -77.0267 -77.0266 -77.0263 -77.0262 -77.0261
   -77.0260 -77.0218 -77.0217 -77.0173 -77.0172 -77.0172 -77.0116 -77.0113
   -77.0110 -77.0063 -77.0060 -77.0058 -77.0056 -77.0053 -77.0052 -77.0042
   -77.0038 -77.0037 -77.0033 -77.0029 -77.0028 -76.9985 -76.9982 -76.9979
    -6.1161  -6.1122  -6.1091  -5.3725  -5.3719  -5.3713  -4.8577  -4.8573
    -4.8569  -4.8169  -4.8164  -4.8162  -4.8159  -4.8157  -4.8151  -4.8067
    -4.8040  -4.8017  -4.7519  -4.7517  -4.7510  -4.7508  -4.7501  -4.7499
    -4.7031  -4.7028  -4.7022  -4.7004  -4.7002  -4.7000  -4.6463  -4.6460
    -4.6459  -4.6364  -4.6361  -4.6357  -4.6356  -4.6353  -4.6350  -4.5904
    -4.5901  -4.5898  -4.5465  -4.5461  -4.5458  -4.5456  -4.5452  -4.5448
    -4.4891  -4.4891  -4.4891  -4.4801  -4.4798  -4.4795  -4.4793  -4.4790
    -4.4788  -4.4564  -4.4563  -4.4563  -4.4500  -4.4498  -4.4495  -4.4194
    -4.4193  -4.4190  -4.4189  -4.4187  -4.4186  -4.4185  -4.4178  -4.4178
    -4.4157  -4.4136  -4.4136  -4.4136  -4.3751  -4.3748  -4.3745  -4.3550
    -4.3549  -4.3549  -4.3301  -4.3238  -4.3101  -4.3096  -4.3090  -4.2988
    -4.2987  -4.2987  -4.2726  -4.2725  -4.2725  -4.2704  -4.2585  -4.2415
    -4.2411  -4.2408  -4.2396  -4.2391  -4.2390  -4.2388  -4.2386  -4.2383
    -4.2339  -4.2334  -4.2328  -4.2007  -4.1901  -4.1895  -4.1890  -4.1884
    -4.1629  -4.1625  -4.1620  -4.1553  -4.1553  -4.1553  -4.1290  -4.1290
    -4.1290  -4.1069  -4.1068  -4.1068  -4.1001  -4.1000  -4.0999  -4.0790
    -4.0789  -4.0786  -4.0784  -4.0780  -4.0779  -4.0573  -4.0572  -4.0572
    -4.0572  -4.0397  -4.0395  -4.0393  -4.0248  -4.0021  -4.0016  -4.0010
    -3.9977  -3.9967  -3.9965  -3.9960  -3.9957  -3.9956  -3.9548  -3.9428
    -3.9415  -3.9409  -3.9339  -3.9338  -3.9338  -3.9289  -3.9283  -3.9280
    -3.9224  -3.9220  -3.9217  -3.9003  -3.8999  -3.8998  -3.8996  -3.8995
    -3.8994  -3.8991  -3.8979  -3.8765  -3.8763  -3.8758  -3.8758  -3.8753
    -3.8750  -3.8630  -3.8629  -3.8313  -3.8313  -3.8313  -3.8065  -3.8065
    -3.8063  -3.7845  -3.7617  -3.7611  -3.7606  -3.7584  -3.7573  -3.7558
    -3.7288  -3.7286  -3.7284  -3.7283  -3.7281  -3.7279  -3.7224  -3.7224
    -3.7224  -3.7140  -3.7137  -3.7137  -3.7133  -3.7123  -3.7114  -3.7110
    -3.7056  -3.7053  -3.7049  -3.6908  -3.6903  -3.6901  -3.6899  -3.6898
    -3.6893  -3.6747  -3.6745  -3.6744  -3.6742  -3.6739  -3.6733  -3.6652
    -3.6650  -3.6646  -3.6645  -3.6641  -3.6639  -3.5958  -3.5956  -3.5952
    -3.5811  -3.5806  -3.5802  -3.5650  -3.5649  -3.5647  -3.5647  -3.5645
    -3.5644  -3.5623  -3.5623  -3.5622  -3.5618  -3.5564  -3.5561  -3.5559
    -3.5513  -3.5467  -3.5466  -3.5466  -3.5465  -3.5465  -3.5464  -3.5447
    -3.5446  -3.5444  -3.5360  -3.5358  -3.5357  -3.5316  -3.5316  -3.5316
    -3.5018  -3.5017  -3.5015  -3.5013  -3.5012  -3.5011  -3.4909  -3.4909
    -3.4906  -3.4906  -3.4904  -3.4903  -3.4837  -3.4837  -3.4837  -3.4823
    -3.4736  -3.4734  -3.4732  -3.4705  -3.4705  -3.4705  -3.4660  -3.4397
    -3.4396  -3.4395  -3.4376  -3.4375  -3.4373  -3.4314  -3.4313  -3.4313
    -3.4184  -3.4182  -3.4179  -3.4176  -3.4174  -3.4172  -3.4167  -3.4163
    -3.4157  -3.4069  -3.4066  -3.4063  -3.3873  -3.3871  -3.3870  -3.3560
    -3.3554  -3.3545  -3.2969  -3.2968  -3.2966  -3.2966  -3.2964  -3.2963
    -3.2580  -3.2580  -3.2576  -3.2575  -3.2571  -3.2571  -3.0682  -3.0682
    -3.0681  -2.6740  -2.6725  -2.6708  -2.4943  -2.4943  -2.4942  -1.6391
    -1.6377  -1.6369  -1.6365  -1.6357  -1.6343  -1.1132  -1.1131  -1.1130
    -0.8103  -0.8102  -0.8098  -0.8094  -0.8090  -0.8088  -0.7996  -0.7983
    -0.7959   0.6299   0.6303   0.6318   0.6324   0.6339   0.6342   0.7291
     0.7292   0.7293   1.7366   1.7377   1.7394   1.9399   1.9412   1.9420
     2.3460   2.3476   2.3495   2.3619   2.3625   2.3632   2.3648   2.3655
     2.3661   2.7873   2.7876   2.7879   3.0150   3.0157   3.0164   3.9139
     3.9139   3.9140   4.0815   4.1475   4.2261   4.5108   4.5151   4.5210
     4.8184   4.8200   4.8219   4.8911   4.9831   5.0503   5.0517   5.0533
     5.1445   5.8147   5.8156   5.8161   5.8175   5.8180   5.8189   6.0607
     6.0613   6.0636   6.2649   6.2654   6.2658   6.2669   6.2673   6.2678
     6.3757   6.3760   6.3761   6.5038   6.7533   6.7589   6.8139   6.8158
     6.8167   6.9788   6.9804   6.9832   7.0544   7.0562   7.0570   7.0587
     7.0596   7.0613   7.8535   7.9333   7.9341   7.9350   7.9668   7.9675
     7.9683   8.1307   8.1330   8.1360   8.1369   8.1401   8.1424   8.4853
     8.5143   8.5557   8.5572   8.5586   8.5598   8.5611   8.5628   8.7315
     8.7316   8.7318   8.9373   8.9389   8.9395   9.5345   9.5356   9.5375
     9.7133   9.7139   9.7147   9.7568   9.7572   9.7575   9.7575   9.7582
     9.7592   9.7789   9.7790   9.7791  10.3097  10.3115  10.3126  10.3139
    10.3149  10.3171  10.3956  10.3971  10.3993  10.6158  10.6179  10.6195
    10.7109  10.7114  10.7127  10.7133  10.7147  10.7152  10.8991  10.9392
    11.3066  11.3067  11.3068  11.4856  11.4858  11.4858  11.5310  11.5333
    11.5358  11.5993  11.5994  11.5994  11.6010  11.6015  11.6110  11.6138

     occupation numbers 
     1.0000   1.0000   1.0000   1.0000   1.0000   1.0000   1.0000   1.0000
     1.0000   1.0000   1.0000   1.0000   1.0000   1.0000   1.0000   1.0000
     1.0000   1.0000   1.0000   1.0000   1.0000   1.0000   1.0000   1.0000
     1.0000   1.0000   1.0000   1.0000   1.0000   1.0000   1.0000   1.0000
     1.0000   1.0000   1.0000   1.0000   1.0000   1.0000   1.0000   1.0000
     1.0000   1.0000   1.0000   1.0000   1.0000   1.0000   1.0000   1.0000
     1.0000   1.0000   1.0000   1.0000   1.0000   1.0000   1.0000   1.0000
     1.0000   1.0000   1.0000   1.0000   1.0000   1.0000   1.0000   1.0000
     1.0000   1.0000   1.0000   1.0000   1.0000   1.0000   1.0000   1.0000
     1.0000   1.0000   1.0000   1.0000   1.0000   1.0000   1.0000   1.0000
     1.0000   1.0000   1.0000   1.0000   1.0000   1.0000   1.0000   1.0000
     1.0000   1.0000   1.0000   1.0000   1.0000   1.0000   1.0000   1.0000
     1.0000   1.0000   1.0000   1.0000   1.0000   1.0000   1.0000   1.0000
     1.0000   1.0000   1.0000   1.0000   1.0000   1.0000   1.0000   1.0000
     1.0000   1.0000   1.0000   1.0000   1.0000   1.0000   1.0000   1.0000
     1.0000   1.0000   1.0000   1.0000   1.0000   1.0000   1.0000   1.0000
     1.0000   1.0000   1.0000   1.0000   1.0000   1.0000   1.0000   1.0000
     1.0000   1.0000   1.0000   1.0000   1.0000   1.0000   1.0000   1.0000
     1.0000   1.0000   1.0000   1.0000   1.0000   1.0000   1.0000   1.0000
     1.0000   1.0000   1.0000   1.0000   1.0000   1.0000   1.0000   1.0000
     1.0000   1.0000   1.0000   1.0000   1.0000   1.0000   1.0000   1.0000
     1.0000   1.0000   1.0000   1.0000   1.0000   1.0000   1.0000   1.0000
     1.0000   1.0000   1.0000   1.0000   1.0000   1.0000   1.0000   1.0000
     1.0000   1.0000   1.0000   1.0000   1.0000   1.0000   1.0000   1.0000
     1.0000   1.0000   1.0000   1.0000   1.0000   1.0000   1.0000   1.0000
     1.0000   1.0000   1.0000   1.0000   1.0000   1.0000   1.0000   1.0000
     1.0000   1.0000   1.0000   1.0000   1.0000   1.0000   1.0000   1.0000
     1.0000   1.0000   1.0000   1.0000   1.0000   1.0000   1.0000   1.0000
     1.0000   1.0000   1.0000   1.0000   1.0000   1.0000   1.0000   1.0000
     1.0000   1.0000   1.0000   1.0000   1.0000   1.0000   1.0000   1.0000
     1.0000   1.0000   1.0000   1.0000   1.0000   1.0000   1.0000   1.0000
     1.0000   1.0000   1.0000   1.0000   1.0000   1.0000   1.0000   1.0000
     1.0000   1.0000   1.0000   1.0000   1.0000   1.0000   1.0000   1.0000
     1.0000   1.0000   1.0000   1.0000   1.0000   1.0000   1.0000   1.0000
     1.0000   1.0000   1.0000   1.0000   1.0000   1.0000   1.0000   1.0000
     1.0000   1.0000   1.0000   1.0000   1.0000   1.0000   1.0000   1.0000
     1.0000   1.0000   1.0000   1.0000   1.0000   1.0000   1.0000   1.0000
     1.0000   1.0000   1.0000   1.0000   1.0000   1.0000   1.0000   1.0000
     1.0000   1.0000   1.0000   1.0000   1.0000   1.0000   1.0000   1.0000
     1.0000   1.0000   1.0000   1.0000   1.0000   1.0000   1.0000   1.0000
     1.0000   1.0000   1.0000   1.0000   1.0000   1.0000   1.0000   1.0000
     1.0000   1.0000   1.0000   1.0000   1.0000   1.0000   1.0000   1.0000
     1.0000   1.0000   1.0000   1.0000   1.0000   1.0000   1.0000   1.0000
     1.0000   1.0000   1.0000   1.0000   1.0000   1.0000   1.0000   1.0000
     1.0000   1.0000   1.0000   1.0000   1.0000   1.0000   1.0000   1.0000
     1.0000   1.0000   1.0000   1.0000   1.0000   1.0000   1.0000   1.0000
     1.0000   1.0000   1.0000   1.0000   1.0000   1.0000   1.0000   1.0000
     1.0000   1.0000   1.0000   1.0000   1.0000   1.0000   1.0000   1.0000
     1.0000   1.0000   1.0000   1.0000   1.0000   1.0000   1.0000   1.0000
     1.0000   1.0000   1.0000   1.0000   1.0000   1.0000   1.0000   1.0000
     1.0000   1.0000   1.0000   1.0000   1.0000   1.0000   1.0000   1.0000
     1.0000   1.0000   1.0000   1.0000   1.0000   1.0000   1.0000   1.0000
     1.0000   1.0000   1.0000   1.0000   1.0000   1.0000   1.0000   1.0000
     1.0000   1.0000   1.0000   1.0000   1.0000   1.0000   1.0000   1.0000
     1.0000   1.0000   1.0000   1.0000   1.0000   1.0000   1.0000   1.0000
     1.0000   1.0000   1.0000   1.0000   1.0000   1.0000   1.0000   1.0000
     1.0000   1.0000   1.0000   1.0000   1.0000   1.0000   1.0000   1.0000
     1.0000   1.0000   1.0000   1.0000   1.0000   1.0000   1.0000   1.0000
[...]
     atom   27 type  1   force =     0.00000000    0.00000000    0.00000000
     atom   28 type  1   force =     0.00000000    0.00000000    0.00000000
     atom   29 type  1   force =     0.00000000    0.00000000    0.00000000
     atom   30 type  1   force =     0.00000000    0.00000000    0.00000000
     atom   31 type  1   force =     0.00000000    0.00000000    0.00000000
     atom   32 type  1   force =     0.00000000    0.00000000    0.00000000
     atom   33 type  1   force =     0.00000000    0.00000000    0.00000000
     atom   34 type  1   force =     0.00000000    0.00000000    0.00000000
     atom   35 type  1   force =     0.00000000    0.00000000    0.00000000
     atom   36 type  1   force =     0.00000000    0.00000000    0.00000000
     atom   37 type  1   force =     0.00000000    0.00000000    0.00000000
     atom   38 type  1   force =     0.00000000    0.00000000    0.00000000
     atom   39 type  1   force =     0.00000000    0.00000000    0.00000000
     atom   40 type  1   force =     0.00000000    0.00000000    0.00000000
     atom   41 type  1   force =     0.00000000    0.00000000    0.00000000
     atom   42 type  1   force =     0.00000000    0.00000000    0.00000000
     atom   43 type  1   force =     0.00000000    0.00000000    0.00000000
     atom   44 type  1   force =     0.00000000    0.00000000    0.00000000
     atom   45 type  1   force =     0.00000000    0.00000000    0.00000000
     atom   46 type  1   force =     0.00000000    0.00000000    0.00000000
     atom   47 type  1   force =     0.00000000    0.00000000    0.00000000
     atom   48 type  1   force =     0.00000000    0.00000000    0.00000000
     atom   49 type  1   force =     0.00000000    0.00000000    0.00000000
     atom   50 type  1   force =     0.00000000    0.00000000    0.00000000
     atom   51 type  1   force =     0.00000000    0.00000000    0.00000000
     atom   52 type  1   force =     0.00000000    0.00000000    0.00000000
     atom   53 type  1   force =     0.00000000    0.00000000    0.00000000
     atom   54 type  1   force =     0.00000000    0.00000000    0.00000000
     atom   55 type  1   force =     0.00000000    0.00000000    0.00000000
     atom   56 type  1   force =     0.00000000    0.00000000    0.00000000
     atom   57 type  1   force =     0.00000000    0.00000000    0.00000000
     atom   58 type  1   force =     0.00000000    0.00000000    0.00000000
     atom   59 type  1   force =     0.00000000    0.00000000    0.00000000
     atom   60 type  1   force =     0.00000000    0.00000000    0.00000000
     atom   61 type  1   force =     0.00000000    0.00000000    0.00000000
     atom   62 type  1   force =     0.00000000    0.00000000    0.00000000
     atom   63 type  1   force =     0.00000000    0.00000000    0.00000000
     atom   64 type  1   force =     0.00000000    0.00000000    0.00000000
     The SCF correction term to forces
     atom    1 type  1   force =     0.00000000    0.00000000    0.00000000
     atom    2 type  1   force =    -0.00000000    0.00000000   -0.00000000
     atom    3 type  1   force =     0.00008322    0.00002579   -0.00001964
     atom    4 type  1   force =    -0.00008588    0.00002086    0.00002208
     atom    5 type  1   force =     0.00000000   -0.00000000    0.00000000
     atom    6 type  1   force =    -0.00000000    0.00000000   -0.00000000
     atom    7 type  1   force =     0.00016702   -0.00004994   -0.00000737
     atom    8 type  1   force =    -0.00016455    0.00004425   -0.00000058
     atom    9 type  1   force =     0.00000000    0.00000000   -0.00000000
     atom   10 type  1   force =    -0.00000000   -0.00000000    0.00000000
     atom   11 type  1   force =     0.00000167    0.00002699    0.00000660
     atom   12 type  1   force =    -0.00000181   -0.00007313   -0.00000858
     atom   13 type  1   force =    -0.00000000    0.00000000    0.00000000
     atom   14 type  1   force =     0.00000000   -0.00000000   -0.00000000
     atom   15 type  1   force =    -0.00007733    0.00009819   -0.00001030
     atom   16 type  1   force =     0.00007514   -0.00009256    0.00001193
     atom   17 type  1   force =    -0.00000000    0.00000000    0.00000000
     atom   18 type  1   force =     0.00000000   -0.00000000   -0.00000000
     atom   19 type  1   force =    -0.00018484    0.00005793   -0.00001003
     atom   20 type  1   force =     0.00018541   -0.00001047    0.00000750
     atom   21 type  1   force =    -0.00000000   -0.00000000    0.00000000
     atom   22 type  1   force =     0.00000000    0.00000000   -0.00000000
     atom   23 type  1   force =    -0.00002144   -0.00006374   -0.00002045
     atom   24 type  1   force =     0.00001859    0.00005949    0.00001770
     atom   25 type  1   force =     0.00000000   -0.00000000   -0.00000000
     atom   26 type  1   force =    -0.00000000    0.00000000   -0.00000000
     atom   27 type  1   force =     0.00005910   -0.00012859   -0.00000285
     atom   28 type  1   force =    -0.00005854    0.00008004   -0.00000091
     atom   29 type  1   force =    -0.00000000   -0.00000000   -0.00000000
     atom   30 type  1   force =     0.00000000    0.00000000    0.00000000
     atom   31 type  1   force =    -0.00010337   -0.00000977    0.00001144
     atom   32 type  1   force =     0.00010389    0.00001584   -0.00000723
     atom   33 type  1   force =    -0.00000000    0.00000000    0.00000000
     atom   34 type  1   force =     0.00000000   -0.00000000   -0.00000000
     atom   35 type  1   force =    -0.00003671    0.00003486   -0.00003685
     atom   36 type  1   force =     0.00003516   -0.00001074    0.00010631
     atom   37 type  1   force =     0.00000000   -0.00000000   -0.00000000
     atom   38 type  1   force =    -0.00000000    0.00000000   -0.00000000
     atom   39 type  1   force =     0.00005222   -0.00002305   -0.00004215
     atom   40 type  1   force =    -0.00004966    0.00003243    0.00008172
     atom   41 type  1   force =     0.00000000   -0.00000000   -0.00000000
     atom   42 type  1   force =    -0.00000000    0.00000000   -0.00000000
     atom   43 type  1   force =     0.00003969   -0.00003245    0.00002300
     atom   44 type  1   force =    -0.00003999    0.00001025    0.00002024
     atom   45 type  1   force =    -0.00000000    0.00000000   -0.00000000
     atom   46 type  1   force =     0.00000000   -0.00000000   -0.00000000
     atom   47 type  1   force =    -0.00004727    0.00002494    0.00002607
     atom   48 type  1   force =     0.00004824   -0.00003582    0.00004590
     atom   49 type  1   force =    -0.00000000    0.00000000   -0.00000000
     atom   50 type  1   force =     0.00000000    0.00000000   -0.00000000
     atom   51 type  1   force =    -0.00008618    0.00001701    0.00005735
     atom   52 type  1   force =     0.00008780    0.00000519    0.00001271
     atom   53 type  1   force =    -0.00000000    0.00000000   -0.00000000
     atom   54 type  1   force =     0.00000000    0.00000000   -0.00000000
     atom   55 type  1   force =    -0.00007684    0.00000647   -0.00001895
     atom   56 type  1   force =     0.00007459    0.00000471    0.00006275
     atom   57 type  1   force =     0.00000000   -0.00000000   -0.00000000
     atom   58 type  1   force =    -0.00000000    0.00000000   -0.00000000
     atom   59 type  1   force =     0.00001340   -0.00006281   -0.00000924
     atom   60 type  1   force =    -0.00001243    0.00003863    0.00005089
     atom   61 type  1   force =     0.00000000   -0.00000000   -0.00000000
     atom   62 type  1   force =    -0.00000000    0.00000000   -0.00000000
     atom   63 type  1   force =    -0.00000021   -0.00004766    0.00006654
     atom   64 type  1   force =    -0.00000089    0.00003782    0.00000431

     Total force =     0.001572     Total SCF correction =     0.000586
     SCF correction compared to forces is large: reduce conv_thr to get better values


     Computing stress (Cartesian axis) and pressure

          total   stress  (Ry/bohr**3)                   (kbar)     P=        2.32
   0.00001181  -0.00000000   0.00000000            1.74       -0.00        0.00
  -0.00000000   0.00001181   0.00000000           -0.00        1.74        0.00
   0.00000000   0.00000000   0.00002371            0.00        0.00        3.49

     kinetic stress (kbar)  16613.78     -0.00     -0.00
                               -0.00  16613.78      0.00
                               -0.00      0.00  16703.65

     local   stress (kbar)**********     -0.34     -0.17
                               -0.34**********      0.04
                               -0.17      0.041558951.03

     nonloc. stress (kbar)  -1738.89      0.00      0.00
                                0.00  -1738.89      0.00
                                0.00      0.00  -1802.89

     hartree stress (kbar) 806149.22      0.15      0.08
                                0.15 806149.42     -0.02
                                0.08     -0.02-732040.56

     exc-cor stress (kbar)  -8377.00      0.00      0.00
                                0.00  -8377.00     -0.00
                                0.00     -0.00  -8388.27

     corecor stress (kbar)      0.00      0.00      0.00
                                0.00      0.00      0.00
                                0.00      0.00      0.00

     ewald   stress (kbar) 726734.35      0.18      0.10
                                0.18 726734.58     -0.02
                                0.10     -0.02-833419.47

     hubbard stress (kbar)      0.00      0.00      0.00
                                0.00      0.00      0.00
                                0.00      0.00      0.00

     DFT-D   stress (kbar)      0.00      0.00      0.00
                                0.00      0.00      0.00
                                0.00      0.00      0.00

     XDM     stress (kbar)      0.00      0.00      0.00
                                0.00      0.00      0.00
                                0.00      0.00      0.00

     dft-nl  stress (kbar)      0.00      0.00      0.00
                                0.00      0.00      0.00
                                0.00      0.00      0.00

     TS-vdW  stress (kbar)      0.00      0.00      0.00
                                0.00      0.00      0.00
                                0.00      0.00      0.00

     MDB     stress (kbar)      0.00      0.00      0.00
                                0.00      0.00      0.00
                                0.00      0.00      0.00

     3D-RISM stress (kbar)      0.00      0.00      0.00
                                0.00      0.00      0.00
                                0.00      0.00      0.00

     Energy error            =      2.0E-06 Ry
     Gradient error          =      4.6E-04 Ry/Bohr

     bfgs converged in   4 scf cycles and   2 bfgs steps
     (criteria: energy <  1.0E-05 Ry, force <  5.0E-04 Ry/Bohr)

     End of BFGS Geometry Optimization

     Final energy             =  -29539.1425886801 Ry

     File ./tmp/Zn002_4layer_relax.bfgs deleted, as requested
Begin final coordinates

ATOMIC_POSITIONS (angstrom)
Zn              -0.0000000130        1.5094013740        1.2182902590    0   0   0
Zn               5.2287196980        1.5094013740        1.2182902590    0   0   0
Zn               0.0009672701        1.5097664644        6.1726102187
Zn               5.2277482449        1.5095930808        6.1873087630
Zn              -1.3071799410        3.7735034240        1.2182902590    0   0   0
Zn               3.9215397700        3.7735034240        1.2182902590    0   0   0
Zn              -1.3063719229        3.7738875604        6.1791594279
Zn               3.9206233662        3.7737133243        6.1838547922
Zn              -2.6143598690        6.0376054730        1.2182902590    0   0   0
Zn               2.6143598420        6.0376054730        1.2182902590    0   0   0
Zn              -2.6142367979        6.0378415726        6.1858921844
Zn               2.6141501874        6.0367976611        6.1776942570
Zn              -3.9215397970        8.3017075230        1.2182902590    0   0   0
Zn               1.3071799140        8.3017075230        1.2182902590    0   0   0
Zn              -3.9212729447        8.3018915921        6.1800104036
Zn               1.3069101852        8.3009087738        6.1814009242
Zn               2.6143598430        1.5094013740        1.2182902590    0   0   0
Zn               7.8430795540        1.5094013740        1.2182902590    0   0   0
Zn               2.6133734869        1.5094697088        6.1808349476
Zn               7.8440575705        1.5099117625        6.1795191443
Zn               1.3071799150        3.7735034240        1.2182902590    0   0   0
Zn               6.5358996260        3.7735034240        1.2182902590    0   0   0
Zn               1.3068312798        3.7732602438        6.1751536362
Zn               6.5361493634        3.7743012135        6.1873106112
Zn              -0.0000000130        6.0376054730        1.2182902590    0   0   0
Zn               5.2287196980        6.0376054730        1.2182902590    0   0   0
Zn              -0.0003941625        6.0368201367        6.1810603843
Zn               5.2290311832        6.0379145550        6.1832350289
Zn              -1.3071799410        8.3017075230        1.2182902590    0   0   0
Zn               3.9215397700        8.3017075230        1.2182902590    0   0   0
Zn              -1.3081728198        8.3012685333        6.1860020419
Zn               3.9227058046        8.3015275799        6.1749638143
Zn               1.3071799410        0.7547006760        3.6548707760    0   0   0
Zn               6.5358996520        0.7547006760        3.6548707760    0   0   0
Zn               1.3061930462        0.7555975515        8.7010815921
Zn               6.5370145388        0.7541845043        8.7014153779
Zn               0.0000000130        3.0188027250        3.6548707760    0   0   0
Zn               5.2287197240        3.0188027250        3.6548707760    0   0   0
Zn               0.0010716017        3.0182670767        8.6988937409
Zn               5.2276864047        3.0192567974        8.7078332229
Zn              -1.3071799150        5.2829047750        3.6548707760    0   0   0
Zn               3.9215397960        5.2829047750        3.6548707760    0   0   0
Zn              -1.3060136470        5.2820959985        8.7084144340
Zn               3.9203397322        5.2832870663        8.7026761737
Zn              -2.6143598430        7.5470068250        3.6548707760    0   0   0
Zn               2.6143598680        7.5470068250        3.6548707760    0   0   0
Zn              -2.6152269173        7.5476044720        8.7107303954
Zn               2.6152988155        7.5463949638        8.6959851686
Zn               3.9215397970        0.7547006760        3.6548707760    0   0   0
Zn               9.1502595080        0.7547006760        3.6548707760    0   0   0
Zn               3.9199180396        0.7550326657        8.7085483689
Zn               9.1520837386        0.7547482280        8.6939540859
Zn               2.6143598690        3.0188027250        3.6548707760    0   0   0
Zn               7.8430795800        3.0188027250        3.6548707760    0   0   0
Zn               2.6125382150        3.0190425603        8.7031321641
Zn               7.8449464234        3.0185202056        8.7041277299
Zn               1.3071799410        5.2829047750        3.6548707760    0   0   0
Zn               6.5358996520        5.2829047750        3.6548707760    0   0   0
Zn               1.3074080423        5.2817564900        8.7011270735
Zn               6.5356311164        5.2836100070        8.7099123907
Zn               0.0000000130        7.5470068250        3.6548707760    0   0   0
Zn               5.2287197240        7.5470068250        3.6548707760    0   0   0
Zn               0.0003821602        7.5459684203        8.7066390524
Zn               5.2283688379        7.5480597522        8.7009756990
End final coordinates



     Writing all to output data dir ./tmp/Zn002_4layer_relax.save/ :
     XML data file, charge density, pseudopotentials, collected wavefunctions

     init_run     :    102.25s CPU    102.90s WALL (       1 calls)
     electrons    :  10542.00s CPU  10618.00s WALL (       4 calls)
     update_pot   :      0.26s CPU      0.28s WALL (       3 calls)
     forces       :    354.21s CPU    356.06s WALL (       4 calls)
     stress       :    930.11s CPU    933.46s WALL (       4 calls)

     Called by init_run:
     wfcinit      :    100.69s CPU    101.30s WALL (       1 calls)
     wfcinit:atom :      0.06s CPU      0.09s WALL (       5 calls)
     wfcinit:wfcr :     99.90s CPU    100.45s WALL (       5 calls)
     potinit      :      0.07s CPU      0.09s WALL (       1 calls)
     hinit0       :      0.04s CPU      0.04s WALL (       1 calls)

     Called by electrons:
     c_bands      :   9797.03s CPU   9867.64s WALL (      29 calls)
     sum_band     :    714.60s CPU    718.79s WALL (      29 calls)
     v_of_rho     :      1.99s CPU      2.09s WALL (      29 calls)
     v_h          :      0.13s CPU      0.14s WALL (      29 calls)
     v_xc         :      1.86s CPU      1.95s WALL (      29 calls)
     newd         :     32.63s CPU     33.60s WALL (      29 calls)
     mix_rho      :      0.19s CPU      0.21s WALL (      29 calls)

     Called by c_bands:
     init_us_2    :      8.21s CPU      8.25s WALL (     335 calls)
     cegterg      :   9781.52s CPU   9851.92s WALL (     145 calls)

     Called by sum_band:
     sum_band:wei :      0.11s CPU      0.11s WALL (      29 calls)
     sum_band:loo :    681.94s CPU    685.11s WALL (      29 calls)
     sum_band:buf :      1.62s CPU      1.63s WALL (     145 calls)
     sum_band:ini :      3.62s CPU      3.63s WALL (     145 calls)
     sum_band:cal :    604.73s CPU    607.34s WALL (     145 calls)
     sum_band:bec :      5.44s CPU      5.45s WALL (     145 calls)
     addusdens    :     31.82s CPU     32.78s WALL (      29 calls)
                                        0.00s GPU  (      29 calls)
     addusd:skk   :      0.25s CPU      0.49s WALL (      29 calls)
                                        0.00s GPU  (      29 calls)

     Called by *egterg:
     cdiaghg      :    672.15s CPU    700.07s WALL (     674 calls)
     cegterg:over :   1508.06s CPU   1512.90s WALL (     564 calls)
     cegterg:upda :    740.86s CPU    744.96s WALL (     564 calls)
     cegterg:last :   2344.05s CPU   2357.98s WALL (     281 calls)
     cdiaghg:chol :     50.08s CPU     50.21s WALL (     674 calls)
     cdiaghg:inve :      7.48s CPU      7.50s WALL (     674 calls)
     cdiaghg:para :    211.54s CPU    214.75s WALL (    1348 calls)
     h_psi        :   2905.08s CPU   2918.02s WALL (     714 calls)
     s_psi        :   1235.50s CPU   1238.46s WALL (     714 calls)
     g_psi        :      0.98s CPU      0.98s WALL (     564 calls)

     Called by h_psi:
     h_psi:calbec :   1373.07s CPU   1379.17s WALL (     714 calls)
     vloc_psi     :    288.57s CPU    290.83s WALL (     714 calls)
     add_vuspsi   :   1240.67s CPU   1243.68s WALL (     714 calls)

     General routines
     calbec       :   2394.82s CPU   2405.38s WALL (     959 calls)
     fft          :      1.52s CPU      1.73s WALL (     408 calls)
     ffts         :      0.06s CPU      0.07s WALL (      58 calls)
     fftw         :    307.00s CPU    309.30s WALL (  616766 calls)
     interpolate  :      0.12s CPU      0.13s WALL (      29 calls)

     Parallel routines

     PWSCF        :      3h18m CPU      3h20m WALL


   This run was terminated on:   0:49:31  28Mar2025            

=------------------------------------------------------------------------------=
   JOB DONE.
=------------------------------------------------------------------------------=
