
     Program PWSCF v.7.3.1 starts on 28Mar2025 at  0:42:26 

     This program is part of the open-source Quantum ESPRESSO suite
     for quantum simulation of materials; please cite
         "P. Giannozzi et al., J. Phys.:Condens. Matter 21 395502 (2009);
         "P. Giannozzi et al., J. Phys.:Condens. Matter 29 465901 (2017);
         "P. Giannozzi et al., J. Chem. Phys. 152 154105 (2020);
          URL http://www.quantum-espresso.org", 
     in publications or presentations arising from this work. More details at
     http://www.quantum-espresso.org/quote

     Parallel version (MPI), running on    33 processors

     MPI processes distributed on     1 nodes
     52664 MiB available memory on the printing compute node when the environment starts

     Waiting for input...
     Reading input from standard input
Warning: card &CELL ignored
Warning: card   CELL_DOFREE = 'ALL' ignored
Warning: card / ignored

     Current dimensions of program PWSCF are:
     Max number of different atomic species (ntypx) = 10
     Max number of k-points (npk) =  40000
     Max angular momentum in pseudopotentials (lmaxx) =  4
     file O.pbe-n-kjpaw_psl.0.1.UPF: wavefunction(s)  2P renormalized

     R & G space division:  proc/nbgrp/npool/nimage =      33
     Subspace diagonalization in iterative solution of the eigenvalue problem:
     one sub-group per band group will be used
     custom distributed-memory algorithm (size of sub-group:  5*  5 procs)


     Parallelization info
     --------------------
     sticks:   dense  smooth     PW     G-vecs:    dense   smooth      PW
     Min         228     130     35                36393    15714    2165
     Max         230     131     36                36401    15723    2173
     Sum        7555    4303   1159              1201061   518755   71619

     Using Slab Decomposition



     bravais-lattice index     =            0
     lattice parameter (alat)  =      19.7617  a.u.
     unit-cell volume          =   15176.5939 (a.u.)^3
     number of atoms/cell      =           51
     number of atomic types    =            3
     number of electrons       =       968.00
     number of Kohn-Sham states=          581
     kinetic-energy cutoff     =      40.0000  Ry
     charge density cutoff     =     280.0000  Ry
     scf convergence threshold =      1.0E-06
     mixing beta               =       0.4000
     number of iterations used =            8  plain     mixing
     energy convergence thresh.=      1.0E-05
     force convergence thresh. =      5.0E-04
     Exchange-correlation= PBE
                           (   1   4   3   4   0   0   0)
     nstep                     =          100


     celldm(1)=  19.761696  celldm(2)=   0.000000  celldm(3)=   0.000000
     celldm(4)=   0.000000  celldm(5)=   0.000000  celldm(6)=   0.000000

     crystal axes: (cart. coord. in units of alat)
               a(1) = (   1.000000   0.000000   0.000000 )  
               a(2) = (  -0.500000   0.866025   0.000000 )  
               a(3) = (   0.000000   0.000000   2.270759 )  

     reciprocal axes: (cart. coord. in units 2 pi/alat)
               b(1) = (  1.000000  0.577350 -0.000000 )  
               b(2) = (  0.000000  1.154701  0.000000 )  
               b(3) = (  0.000000 -0.000000  0.440381 )  


     PseudoPot. # 1 for Zn read from file:
     /home/ys/qepseudo/SSSP_1.3.0_PBE_efficiency/Zn_pbe_v1.uspp.F.UPF
     MD5 check sum: df62231357ef9e81f77b2b3087fa5675
     Pseudo is Ultrasoft, Zval = 20.0
     Generated by new atomic code, or converted to UPF format
     Using radial grid of  943 points,  6 beta functions with: 
                l(1) =   0
                l(2) =   0
                l(3) =   1
                l(4) =   1
                l(5) =   2
                l(6) =   2
     Q(r) pseudized with  8 coefficients,  rinner =    1.100   1.100   1.100
                                                       1.100   1.100

     PseudoPot. # 2 for O  read from file:
     /home/ys/qepseudo/SSSP_1.3.0_PBE_efficiency/O.pbe-n-kjpaw_psl.0.1.UPF
     MD5 check sum: 0234752ac141de4415c5fc33072bef88
     Pseudo is Projector augmented-wave + core cor, Zval =  6.0
     Generated using "atomic" code by A. Dal Corso  v.5.0.99 svn rev. 10869
     Shape of augmentation charge: BESSEL
     Using radial grid of 1095 points,  4 beta functions with: 
                l(1) =   0
                l(2) =   0
                l(3) =   1
                l(4) =   1
     Q(r) pseudized with 0 coefficients 


     PseudoPot. # 3 for H  read from file:
     /home/ys/qepseudo/SSSP_1.3.0_PBE_efficiency/H.pbe-rrkjus_psl.1.0.0.UPF
     MD5 check sum: f52b6d4d1c606e5624b1dc7b2218f220
     Pseudo is Ultrasoft, Zval =  1.0
     Generated using "atomic" code by A. Dal Corso  v.5.1
     Using radial grid of  929 points,  2 beta functions with: 
                l(1) =   0
                l(2) =   0
     Q(r) pseudized with 0 coefficients 


     atomic species   valence    mass     pseudopotential
     Zn               20.00    65.38000     Zn( 1.00)
     O                 6.00    15.99940     O ( 1.00)
     H                 1.00     1.00794     H ( 1.00)

     No symmetry found


                                    s                        frac. trans.

      isym =  1     identity                                     

 cryst.   s( 1) = (     1          0          0      )
                  (     0          1          0      )
                  (     0          0          1      )

 cart.    s( 1) = (  1.0000000  0.0000000  0.0000000 )
                  (  0.0000000  1.0000000  0.0000000 )
                  (  0.0000000  0.0000000  1.0000000 )


   Cartesian axes

     site n.     atom                  positions (alat units)
         1        Zn     tau(   1) = (   0.0000000   0.1443375   0.1164998  )
         2        Zn     tau(   2) = (   0.5000000   0.1443375   0.1164998  )
         3        Zn     tau(   3) = (   0.0000008   0.1443287   0.5996818  )
         4        Zn     tau(   4) = (   0.4999961   0.1443636   0.5996092  )
         5        Zn     tau(   5) = (  -0.1250000   0.3608439   0.1164998  )
         6        Zn     tau(   6) = (   0.3750000   0.3608439   0.1164998  )
         7        Zn     tau(   7) = (  -0.1250014   0.3608365   0.5995712  )
         8        Zn     tau(   8) = (   0.3750108   0.3608622   0.5994892  )
         9        Zn     tau(   9) = (  -0.2500000   0.5773502   0.1164998  )
        10        Zn     tau(  10) = (   0.2500000   0.5773502   0.1164998  )
        11        Zn     tau(  11) = (  -0.2500291   0.5773448   0.5994599  )
        12        Zn     tau(  12) = (   0.2500298   0.5773405   0.5995704  )
        13        Zn     tau(  13) = (  -0.3750000   0.7938567   0.1164998  )
        14        Zn     tau(  14) = (   0.1250000   0.7938567   0.1164998  )
        15        Zn     tau(  15) = (  -0.3750192   0.7938503   0.5995597  )
        16        Zn     tau(  16) = (   0.1250210   0.7938546   0.5996923  )
        17        Zn     tau(  17) = (   0.2500000   0.1443375   0.1164998  )
        18        Zn     tau(  18) = (   0.7500000   0.1443375   0.1164998  )
        19        Zn     tau(  19) = (   0.2499808   0.1443394   0.5997016  )
        20        Zn     tau(  20) = (   0.7500196   0.1443469   0.5995819  )
        21        Zn     tau(  21) = (   0.1250000   0.3608439   0.1164998  )
        22        Zn     tau(  22) = (   0.6250000   0.3608439   0.1164998  )
        23        Zn     tau(  23) = (   0.1249968   0.3608336   0.5996865  )
        24        Zn     tau(  24) = (   0.6249894   0.3608655   0.5993717  )
        25        Zn     tau(  25) = (   0.0000000   0.5773502   0.1164998  )
        26        Zn     tau(  26) = (   0.5000000   0.5773502   0.1164998  )
        27        Zn     tau(  27) = (  -0.0000048   0.5773285   0.5996811  )
        28        Zn     tau(  28) = (   0.5000028   0.5773490   0.5993518  )
        29        Zn     tau(  29) = (  -0.1250000   0.7938567   0.1164998  )
        30        Zn     tau(  30) = (   0.3750000   0.7938567   0.1164998  )
        31        Zn     tau(  31) = (  -0.1250309   0.7938550   0.5996904  )
        32        Zn     tau(  32) = (   0.3750259   0.7938514   0.5995577  )
        33        Zn     tau(  33) = (   0.1249792   0.0721726   0.3581392  )
        34        Zn     tau(  34) = (   0.6250232   0.0722219   0.3581048  )
        35        Zn     tau(  35) = (   0.0000042   0.2886408   0.3581388  )
        36        Zn     tau(  36) = (   0.4999973   0.2887225   0.3580491  )
        37        Zn     tau(  37) = (  -0.1250368   0.5051391   0.3580713  )
        38        Zn     tau(  38) = (   0.3750416   0.5051654   0.3580209  )
        39        Zn     tau(  39) = (  -0.2500605   0.7216974   0.3580709  )
        40        Zn     tau(  40) = (   0.2500676   0.7216835   0.3580819  )
        41        Zn     tau(  41) = (   0.3749556   0.0722083   0.3581429  )
        42        Zn     tau(  42) = (   0.8750408   0.0721787   0.3581002  )
        43        Zn     tau(  43) = (   0.2500052   0.2886728   0.3581307  )
        44        Zn     tau(  44) = (   0.7499958   0.2886849   0.3580462  )
        45        Zn     tau(  45) = (   0.1250297   0.5051286   0.3581191  )
        46        Zn     tau(  46) = (   0.6249636   0.5051713   0.3579785  )
        47        Zn     tau(  47) = (  -0.0000166   0.7216885   0.3581396  )
        48        Zn     tau(  48) = (   0.5000104   0.7216822   0.3580223  )
        49        O      tau(  49) = (   0.2555924   0.5787158   0.8426957  )
        50        H      tau(  50) = (   0.3272824   0.5271706   0.8714240  )
        51        H      tau(  51) = (   0.1808665   0.5279210   0.8641187  )

   Crystallographic axes

     site n.     atom                  positions (cryst. coord.)
         1        Zn     tau(   1) = (  0.0833333  0.1666666  0.0513044  )
         2        Zn     tau(   2) = (  0.5833333  0.1666666  0.0513044  )
         3        Zn     tau(   3) = (  0.0833290  0.1666564  0.2640887  )
         4        Zn     tau(   4) = (  0.5833444  0.1666967  0.2640568  )
         5        Zn     tau(   5) = (  0.0833333  0.4166666  0.0513044  )
         6        Zn     tau(   6) = (  0.5833333  0.4166666  0.0513044  )
         7        Zn     tau(   7) = (  0.0833277  0.4166581  0.2640400  )
         8        Zn     tau(   8) = (  0.5833547  0.4166878  0.2640039  )
         9        Zn     tau(   9) = (  0.0833333  0.6666666  0.0513044  )
        10        Zn     tau(  10) = (  0.5833333  0.6666666  0.0513044  )
        11        Zn     tau(  11) = (  0.0833011  0.6666604  0.2639910  )
        12        Zn     tau(  12) = (  0.5833575  0.6666554  0.2640396  )
        13        Zn     tau(  13) = (  0.0833333  0.9166667  0.0513044  )
        14        Zn     tau(  14) = (  0.5833334  0.9166667  0.0513044  )
        15        Zn     tau(  15) = (  0.0833105  0.9166594  0.2640349  )
        16        Zn     tau(  16) = (  0.5833532  0.9166644  0.2640933  )
        17        Zn     tau(  17) = (  0.3333333  0.1666666  0.0513044  )
        18        Zn     tau(  18) = (  0.8333334  0.1666666  0.0513044  )
        19        Zn     tau(  19) = (  0.3333151  0.1666688  0.2640975  )
        20        Zn     tau(  20) = (  0.8333583  0.1666774  0.2640447  )
        21        Zn     tau(  21) = (  0.3333333  0.4166666  0.0513044  )
        22        Zn     tau(  22) = (  0.8333333  0.4166666  0.0513044  )
        23        Zn     tau(  23) = (  0.3333242  0.4166548  0.2640908  )
        24        Zn     tau(  24) = (  0.8333351  0.4166916  0.2639522  )
        25        Zn     tau(  25) = (  0.3333333  0.6666666  0.0513044  )
        26        Zn     tau(  26) = (  0.8333333  0.6666666  0.0513044  )
        27        Zn     tau(  27) = (  0.3333160  0.6666415  0.2640884  )
        28        Zn     tau(  28) = (  0.8333354  0.6666652  0.2639434  )
        29        Zn     tau(  29) = (  0.3333334  0.9166667  0.0513044  )
        30        Zn     tau(  30) = (  0.8333334  0.9166667  0.0513044  )
        31        Zn     tau(  31) = (  0.3333015  0.9166648  0.2640925  )
        32        Zn     tau(  32) = (  0.8333562  0.9166607  0.2640341  )
        33        Zn     tau(  33) = (  0.1666481  0.0833377  0.1577179  )
        34        Zn     tau(  34) = (  0.6667206  0.0833947  0.1577027  )
        35        Zn     tau(  35) = (  0.1666511  0.3332937  0.1577177  )
        36        Zn     tau(  36) = (  0.6666913  0.3333880  0.1576782  )
        37        Zn     tau(  37) = (  0.1666054  0.5832844  0.1576879  )
        38        Zn     tau(  38) = (  0.6666990  0.5833147  0.1576658  )
        39        Zn     tau(  39) = (  0.1666116  0.8333443  0.1576878  )
        40        Zn     tau(  40) = (  0.6667318  0.8333283  0.1576926  )
        41        Zn     tau(  41) = (  0.4166450  0.0833790  0.1577195  )
        42        Zn     tau(  42) = (  0.9167132  0.0833448  0.1577007  )
        43        Zn     tau(  43) = (  0.4166705  0.3333307  0.1577141  )
        44        Zn     tau(  44) = (  0.9166681  0.3333446  0.1576769  )
        45        Zn     tau(  45) = (  0.4166659  0.5832723  0.1577090  )
        46        Zn     tau(  46) = (  0.9166243  0.5833215  0.1576471  )
        47        Zn     tau(  47) = (  0.4166504  0.8333341  0.1577180  )
        48        Zn     tau(  48) = (  0.9166738  0.8333268  0.1576664  )
        49        O      tau(  49) = (  0.5897142  0.6682435  0.3711076  )
        50        H      tau(  50) = (  0.6316445  0.6087242  0.3837590  )
        51        H      tau(  51) = (  0.4856619  0.6095907  0.3805418  )

     number of k points=     5  Marzari-Vanderbilt smearing, width (Ry)=  0.0200
                       cart. coord. in units 2pi/alat
        k(    1) = (   0.0000000   0.0000000   0.0000000), wk =   0.2222222
        k(    2) = (   0.0000000   0.3849002   0.0000000), wk =   0.4444444
        k(    3) = (   0.3333333   0.1924501   0.0000000), wk =   0.4444444
        k(    4) = (   0.3333333   0.5773503   0.0000000), wk =   0.4444444
        k(    5) = (   0.3333333  -0.1924501   0.0000000), wk =   0.4444444

                       cryst. coord.
        k(    1) = (   0.0000000   0.0000000   0.0000000), wk =   0.2222222
        k(    2) = (   0.0000000   0.3333333   0.0000000), wk =   0.4444444
        k(    3) = (   0.3333333   0.0000000   0.0000000), wk =   0.4444444
        k(    4) = (   0.3333333   0.3333333   0.0000000), wk =   0.4444444
        k(    5) = (   0.3333333  -0.3333333   0.0000000), wk =   0.4444444

     Dense  grid:  1201061 G-vectors     FFT dimensions: ( 108, 108, 240)

     Smooth grid:   518755 G-vectors     FFT dimensions: (  80,  80, 192)

     Dynamical RAM for                 wfc:      17.41 MB

     Dynamical RAM for     wfc (w. buffer):     104.47 MB

     Dynamical RAM for           str. fact:       1.67 MB

     Dynamical RAM for           local pot:       0.00 MB

     Dynamical RAM for          nlocal pot:      26.25 MB

     Dynamical RAM for                qrad:       4.03 MB

     Dynamical RAM for          rho,v,vnew:       3.80 MB

     Dynamical RAM for               rhoin:       1.27 MB

     Dynamical RAM for            rho*nmix:       8.89 MB

     Dynamical RAM for           G-vectors:       2.20 MB

     Dynamical RAM for          h,s,v(r/c):       2.46 MB

     Dynamical RAM for          <psi|beta>:       7.77 MB

     Dynamical RAM for                 psi:      34.82 MB

     Dynamical RAM for                hpsi:      34.82 MB

     Dynamical RAM for                spsi:      34.82 MB

     Dynamical RAM for      wfcinit/wfcrot:      46.85 MB

     Dynamical RAM for           addusdens:     129.95 MB

     Dynamical RAM for          addusforce:     182.62 MB

     Dynamical RAM for         addusstress:     111.63 MB

     Estimated static dynamical RAM per process >     149.47 MB

     Estimated max dynamical RAM per process >     340.98 MB

     Estimated total dynamical RAM >      10.99 GB

     Initial potential from superposition of free atoms

     starting charge     967.9932, renormalised to     968.0000

     negative rho (up, down):  3.716E-03 0.000E+00
     Starting wfcs are  630 randomized atomic wfcs
     Checking if some PAW data can be deallocated... 
       PAW data deallocated on   32 nodes for type:  2

     total cpu time spent up to now is       67.9 secs

     Self-consistent Calculation

     iteration #  1     ecut=    40.00 Ry     beta= 0.40
     Davidson diagonalization with overlap

---- Real-time Memory Report at c_bands before calling an iterative solver
           218 MiB given to the printing process from OS
             0 MiB allocation reported by mallinfo(arena+hblkhd)
         47373 MiB available memory on the node where the printing process lives
------------------
     ethr =  1.00E-02,  avg # of iterations =  8.6

     Threshold (ethr) on eigenvalues was too large:
     Diagonalizing with lowered threshold

     Davidson diagonalization with overlap

---- Real-time Memory Report at c_bands before calling an iterative solver
           310 MiB given to the printing process from OS
             0 MiB allocation reported by mallinfo(arena+hblkhd)
         46230 MiB available memory on the node where the printing process lives
------------------
     ethr =  1.98E-04,  avg # of iterations =  7.4

     negative rho (up, down):  4.558E-03 0.000E+00

     total cpu time spent up to now is      601.2 secs

     total energy              =  -22197.81890216 Ry
     estimated scf accuracy    <       1.94557130 Ry

     iteration #  2     ecut=    40.00 Ry     beta= 0.40
     Davidson diagonalization with overlap

---- Real-time Memory Report at c_bands before calling an iterative solver
           321 MiB given to the printing process from OS
             0 MiB allocation reported by mallinfo(arena+hblkhd)
         46087 MiB available memory on the node where the printing process lives
------------------
     ethr =  2.01E-04,  avg # of iterations =  4.8

     negative rho (up, down):  5.076E-03 0.000E+00

     total cpu time spent up to now is      881.2 secs

     total energy              =  -22198.27262780 Ry
     estimated scf accuracy    <       0.32218091 Ry

     iteration #  3     ecut=    40.00 Ry     beta= 0.40
     Davidson diagonalization with overlap

---- Real-time Memory Report at c_bands before calling an iterative solver
           325 MiB given to the printing process from OS
             0 MiB allocation reported by mallinfo(arena+hblkhd)
         46062 MiB available memory on the node where the printing process lives
------------------
     ethr =  3.33E-05,  avg # of iterations = 11.2

     negative rho (up, down):  5.376E-03 0.000E+00

     total cpu time spent up to now is     1136.8 secs

     total energy              =  -22198.27461780 Ry
     estimated scf accuracy    <       0.11410029 Ry

     iteration #  4     ecut=    40.00 Ry     beta= 0.40
     Davidson diagonalization with overlap

---- Real-time Memory Report at c_bands before calling an iterative solver
           325 MiB given to the printing process from OS
             0 MiB allocation reported by mallinfo(arena+hblkhd)
         46042 MiB available memory on the node where the printing process lives
------------------
     ethr =  1.18E-05,  avg # of iterations = 14.4

     negative rho (up, down):  5.515E-03 0.000E+00

     total cpu time spent up to now is     1423.2 secs

     total energy              =  -22198.24665650 Ry
     estimated scf accuracy    <       0.74805797 Ry

     iteration #  5     ecut=    40.00 Ry     beta= 0.40
     Davidson diagonalization with overlap

---- Real-time Memory Report at c_bands before calling an iterative solver
           326 MiB given to the printing process from OS
             0 MiB allocation reported by mallinfo(arena+hblkhd)
         46023 MiB available memory on the node where the printing process lives
------------------
     c_bands:  1 eigenvalues not converged
     c_bands:  1 eigenvalues not converged
     c_bands:  1 eigenvalues not converged
     ethr =  1.18E-05,  avg # of iterations = 14.6

     negative rho (up, down):  5.609E-03 0.000E+00

     total cpu time spent up to now is     1704.4 secs

     total energy              =  -22198.29501441 Ry
     estimated scf accuracy    <       0.02472773 Ry

     iteration #  6     ecut=    40.00 Ry     beta= 0.40
     Davidson diagonalization with overlap

---- Real-time Memory Report at c_bands before calling an iterative solver
           326 MiB given to the printing process from OS
             0 MiB allocation reported by mallinfo(arena+hblkhd)
         46003 MiB available memory on the node where the printing process lives
------------------
     ethr =  2.55E-06,  avg # of iterations = 12.2

     negative rho (up, down):  5.656E-03 0.000E+00

     total cpu time spent up to now is     1964.4 secs

     total energy              =  -22198.29804800 Ry
     estimated scf accuracy    <       0.00206624 Ry

     iteration #  7     ecut=    40.00 Ry     beta= 0.40
     Davidson diagonalization with overlap

---- Real-time Memory Report at c_bands before calling an iterative solver
           327 MiB given to the printing process from OS
             0 MiB allocation reported by mallinfo(arena+hblkhd)
         45982 MiB available memory on the node where the printing process lives
------------------
     ethr =  2.13E-07,  avg # of iterations =  2.0

     negative rho (up, down):  5.681E-03 0.000E+00

     total cpu time spent up to now is     2208.9 secs

     total energy              =  -22198.29836700 Ry
     estimated scf accuracy    <       0.00032892 Ry

     iteration #  8     ecut=    40.00 Ry     beta= 0.40
     Davidson diagonalization with overlap

---- Real-time Memory Report at c_bands before calling an iterative solver
           328 MiB given to the printing process from OS
             0 MiB allocation reported by mallinfo(arena+hblkhd)
         45963 MiB available memory on the node where the printing process lives
------------------
     ethr =  3.40E-08,  avg # of iterations =  2.0

     negative rho (up, down):  5.695E-03 0.000E+00

     total cpu time spent up to now is     2445.4 secs

     total energy              =  -22198.29841967 Ry
     estimated scf accuracy    <       0.00004409 Ry

     iteration #  9     ecut=    40.00 Ry     beta= 0.40
     Davidson diagonalization with overlap

---- Real-time Memory Report at c_bands before calling an iterative solver
           328 MiB given to the printing process from OS
             0 MiB allocation reported by mallinfo(arena+hblkhd)
         45937 MiB available memory on the node where the printing process lives
------------------
     ethr =  4.55E-09,  avg # of iterations =  2.0

     negative rho (up, down):  5.702E-03 0.000E+00

     total cpu time spent up to now is     2695.9 secs

     total energy              =  -22198.29842645 Ry
     estimated scf accuracy    <       0.00001488 Ry

     iteration # 10     ecut=    40.00 Ry     beta= 0.40
     Davidson diagonalization with overlap

---- Real-time Memory Report at c_bands before calling an iterative solver
           329 MiB given to the printing process from OS
             0 MiB allocation reported by mallinfo(arena+hblkhd)
         45925 MiB available memory on the node where the printing process lives
------------------
     ethr =  1.54E-09,  avg # of iterations =  2.0

     negative rho (up, down):  5.708E-03 0.000E+00

     total cpu time spent up to now is     2937.3 secs

     total energy              =  -22198.29842888 Ry
     estimated scf accuracy    <       0.00000626 Ry

     iteration # 11     ecut=    40.00 Ry     beta= 0.40
     Davidson diagonalization with overlap

---- Real-time Memory Report at c_bands before calling an iterative solver
           329 MiB given to the printing process from OS
             0 MiB allocation reported by mallinfo(arena+hblkhd)
         45920 MiB available memory on the node where the printing process lives
------------------
     ethr =  6.47E-10,  avg # of iterations =  2.0

     negative rho (up, down):  5.719E-03 0.000E+00

     total cpu time spent up to now is     3169.4 secs

     End of self-consistent calculation

          k = 0.0000 0.0000 0.0000 ( 64855 PWs)   bands (ev):

  -124.7833-124.7823-124.7815-124.7810-124.7806-124.7803-124.7797-124.7794
  -124.7789-124.7787-124.7784-124.7781-124.7779-124.7774-124.7767-124.7761
  -124.6628-124.6613-124.6569-124.6561-124.6555-124.6546-124.6535-124.6530
  -124.6523-124.6521-124.6520-124.6516-124.6514-124.6511-124.6511-124.6501
  -124.6499-124.6493-124.6491-124.6490-124.6488-124.6483-124.6480-124.6479
  -124.6476-124.6474-124.6470-124.6464-124.6463-124.6401-124.6392-124.6164
   -78.9484 -78.9481 -78.9480 -78.9422 -78.9419 -78.9415 -78.9411 -78.9410
   -78.9407 -78.9331 -78.9316 -78.9314 -78.9308 -78.9306 -78.9303 -78.9301
   -78.9300 -78.9298 -78.9297 -78.9294 -78.9291 -78.9286 -78.9282 -78.9282
   -78.9281 -78.9281 -78.9278 -78.9275 -78.9275 -78.9272 -78.9271 -78.9267
   -78.9267 -78.9262 -78.9259 -78.9253 -78.9246 -78.9215 -78.9212 -78.9211
   -78.9172 -78.9171 -78.9165 -78.9164 -78.9160 -78.9157 -78.9117 -78.9116
   -78.8213 -78.8205 -78.8194 -78.8189 -78.8181 -78.8154 -78.8150 -78.8149
   -78.8145 -78.8140 -78.8136 -78.8130 -78.8119 -78.8112 -78.8111 -78.8110
   -78.8102 -78.8097 -78.8093 -78.8090 -78.8087 -78.8086 -78.8086 -78.8084
   -78.8083 -78.8083 -78.8079 -78.8077 -78.8076 -78.8075 -78.8071 -78.8070
   -78.8066 -78.8058 -78.8056 -78.8050 -78.8048 -78.8046 -78.8044 -78.8041
   -78.8036 -78.8035 -78.8032 -78.8032 -78.8030 -78.8028 -78.8026 -78.8023
   -78.8020 -78.8019 -78.8008 -78.8006 -78.8002 -78.7992 -78.7992 -78.7976
   -78.7975 -78.7972 -78.7972 -78.7971 -78.7968 -78.7968 -78.7966 -78.7956
   -78.7956 -78.7956 -78.7953 -78.7952 -78.7951 -78.7950 -78.7948 -78.7943
   -78.7923 -78.7921 -78.7911 -78.7896 -78.7886 -78.7883 -78.7882 -78.7881
   -78.7862 -78.7860 -78.7842 -78.7841 -78.7838 -78.7836 -78.7833 -78.7829
   -78.7826 -78.7810 -78.7790 -78.7789 -78.7770 -78.7700 -78.7688 -78.7608
   -20.4256  -8.1978  -8.1668  -7.1506  -6.8366  -6.6826  -6.6800  -6.6794
    -6.6791  -6.6779  -6.6771  -6.6069  -6.6067  -6.6066  -6.4618  -6.4613
    -6.4610  -6.4431  -6.4427  -6.4426  -6.3130  -6.3124  -6.3122  -6.3119
    -6.3115  -6.3112  -6.2880  -6.2870  -6.2867  -6.2867  -6.2861  -6.2857
    -6.2562  -6.2560  -6.2557  -6.1558  -6.1553  -6.1549  -6.1543  -6.1540
    -6.1537  -6.1284  -6.1279  -6.1275  -6.1269  -6.1267  -6.1263  -6.0717
    -6.0712  -6.0700  -6.0424  -6.0416  -6.0412  -6.0404  -6.0396  -6.0394
    -6.0236  -5.9837  -5.9834  -5.9827  -5.9823  -5.9818  -5.9816  -5.9563
    -5.9556  -5.9553  -5.9551  -5.9544  -5.9542  -5.9253  -5.9247  -5.9239
    -5.9233  -5.9229  -5.9222  -5.9117  -5.9110  -5.9103  -5.9102  -5.9092
    -5.9090  -5.8771  -5.8761  -5.8748  -5.8457  -5.8433  -5.8432  -5.8429
    -5.8423  -5.8410  -5.8304  -5.8304  -5.8038  -5.8020  -5.8019  -5.8018
    -5.8012  -5.8012  -5.7387  -5.7380  -5.7379  -5.7376  -5.7374  -5.7373
    -5.6960  -5.6960  -5.6861  -5.6861  -5.6492  -5.6451  -5.6444  -5.6442
    -5.6438  -5.6425  -5.6308  -5.6302  -5.6300  -5.6297  -5.6279  -5.6278
    -5.5682  -5.5654  -5.5650  -5.5647  -5.5642  -5.5641  -5.5637  -5.5630
    -5.5629  -5.5628  -5.5621  -5.5618  -5.5552  -5.5550  -5.5545  -5.5544
    -5.5536  -5.5535  -5.5413  -5.5391  -5.5390  -5.5388  -5.5376  -5.5367
    -5.5304  -5.5302  -5.5300  -5.4926  -5.4879  -5.4865  -5.4858  -5.4849
    -5.4841  -5.4778  -5.4524  -5.4498  -5.4495  -5.4474  -5.4468  -5.4466
    -5.4464  -5.4464  -5.4459  -5.4381  -5.4380  -5.4377  -5.4375  -5.4374
    -5.4367  -5.3743  -5.3735  -5.3730  -5.3719  -5.3717  -5.3711  -5.3651
    -5.3498  -5.3498  -5.3492  -5.3485  -5.3476  -5.3277  -5.3265  -5.3263
    -5.3141  -5.3137  -5.3126  -5.3124  -5.3102  -5.3093  -5.3083  -5.3061
    -5.2932  -5.2923  -5.2916  -5.2909  -5.2898  -5.2897  -5.2837  -5.2837
    -5.2830  -5.2828  -5.2820  -5.2819  -5.2353  -5.2347  -5.2341  -5.2335
    -5.2321  -5.2318  -5.2284  -5.2276  -5.2263  -5.2201  -5.2105  -5.2096
    -5.2029  -5.1997  -5.1993  -5.1845  -5.1845  -5.1838  -5.1833  -5.1824
    -5.1819  -5.1713  -5.1710  -5.1506  -5.1504  -5.1353  -5.1205  -5.1196
    -5.1194  -5.1188  -5.1177  -5.0751  -5.0703  -5.0698  -5.0697  -5.0695
    -5.0688  -4.9945  -4.9945  -4.9944  -4.8629  -4.8619  -4.8612  -4.8601
    -4.8599  -4.8598  -4.6397  -4.1953  -4.1685  -4.1671  -4.1646  -4.1632
    -4.0604  -3.4096  -2.6805  -1.9932  -1.9892  -1.9854  -1.9833  -1.9690
    -1.7754  -1.7321  -1.7315  -1.7311  -1.7308  -1.7288  -1.6626  -0.5387
    -0.4498  -0.4489  -0.4480  -0.3964  -0.3945  -0.3939  -0.3922  -0.3860
    -0.3422   0.2668   0.2677   0.2694   0.5205   0.5219   0.5267   1.5889
     1.5932   1.5949   1.5988   1.6031   1.6110   1.6883   1.6987   1.7076
     1.7120   1.7202   1.8786   2.5212   2.5225   2.5499   2.9468   3.3545
     3.3555   3.3666   4.2059   4.2105   4.2461   4.4807   4.7030   4.7650
     4.7989   4.8007   4.8725   4.9743   5.2396   5.5133   5.5336   5.5408
     5.5573   5.5655   5.6449   5.8174   5.8184   5.8193   5.8196   5.8214
     5.8328   5.9629   5.9837   5.9864   5.9872   5.9879   5.9887   5.9914
     6.3105   6.3275   6.4197   6.6401   6.6653   6.7423   6.7551   6.8269
     6.8379   6.8789   7.0504   7.0541   7.0732   7.0803   7.0849   7.0907
     7.2481   7.2510   7.2528   7.2551   7.2566   7.2668   7.3961   7.4132
     7.4140   7.4184   7.4191   7.4442   7.7254   7.7419   7.9064   7.9515
     7.9897   8.0126   8.0388   8.0424   8.0910   8.1084   8.1344   8.1436
     8.1557   8.1565   8.1720   8.1728   8.1919   8.2290   8.2422   8.3664
     8.4229   8.4251   8.5227   9.0495   9.3658

     occupation numbers 
     1.0000   1.0000   1.0000   1.0000   1.0000   1.0000   1.0000   1.0000
     1.0000   1.0000   1.0000   1.0000   1.0000   1.0000   1.0000   1.0000
     1.0000   1.0000   1.0000   1.0000   1.0000   1.0000   1.0000   1.0000
     1.0000   1.0000   1.0000   1.0000   1.0000   1.0000   1.0000   1.0000
     1.0000   1.0000   1.0000   1.0000   1.0000   1.0000   1.0000   1.0000
     1.0000   1.0000   1.0000   1.0000   1.0000   1.0000   1.0000   1.0000
     1.0000   1.0000   1.0000   1.0000   1.0000   1.0000   1.0000   1.0000
     1.0000   1.0000   1.0000   1.0000   1.0000   1.0000   1.0000   1.0000
     1.0000   1.0000   1.0000   1.0000   1.0000   1.0000   1.0000   1.0000
     1.0000   1.0000   1.0000   1.0000   1.0000   1.0000   1.0000   1.0000
     1.0000   1.0000   1.0000   1.0000   1.0000   1.0000   1.0000   1.0000
     1.0000   1.0000   1.0000   1.0000   1.0000   1.0000   1.0000   1.0000
     1.0000   1.0000   1.0000   1.0000   1.0000   1.0000   1.0000   1.0000
     1.0000   1.0000   1.0000   1.0000   1.0000   1.0000   1.0000   1.0000
     1.0000   1.0000   1.0000   1.0000   1.0000   1.0000   1.0000   1.0000
     1.0000   1.0000   1.0000   1.0000   1.0000   1.0000   1.0000   1.0000
     1.0000   1.0000   1.0000   1.0000   1.0000   1.0000   1.0000   1.0000
     1.0000   1.0000   1.0000   1.0000   1.0000   1.0000   1.0000   1.0000
     1.0000   1.0000   1.0000   1.0000   1.0000   1.0000   1.0000   1.0000
     1.0000   1.0000   1.0000   1.0000   1.0000   1.0000   1.0000   1.0000
     1.0000   1.0000   1.0000   1.0000   1.0000   1.0000   1.0000   1.0000
     1.0000   1.0000   1.0000   1.0000   1.0000   1.0000   1.0000   1.0000
     1.0000   1.0000   1.0000   1.0000   1.0000   1.0000   1.0000   1.0000
     1.0000   1.0000   1.0000   1.0000   1.0000   1.0000   1.0000   1.0000
     1.0000   1.0000   1.0000   1.0000   1.0000   1.0000   1.0000   1.0000
     1.0000   1.0000   1.0000   1.0000   1.0000   1.0000   1.0000   1.0000
     1.0000   1.0000   1.0000   1.0000   1.0000   1.0000   1.0000   1.0000
     1.0000   1.0000   1.0000   1.0000   1.0000   1.0000   1.0000   1.0000
     1.0000   1.0000   1.0000   1.0000   1.0000   1.0000   1.0000   1.0000
     1.0000   1.0000   1.0000   1.0000   1.0000   1.0000   1.0000   1.0000
     1.0000   1.0000   1.0000   1.0000   1.0000   1.0000   1.0000   1.0000
     1.0000   1.0000   1.0000   1.0000   1.0000   1.0000   1.0000   1.0000
     1.0000   1.0000   1.0000   1.0000   1.0000   1.0000   1.0000   1.0000
     1.0000   1.0000   1.0000   1.0000   1.0000   1.0000   1.0000   1.0000
     1.0000   1.0000   1.0000   1.0000   1.0000   1.0000   1.0000   1.0000
     1.0000   1.0000   1.0000   1.0000   1.0000   1.0000   1.0000   1.0000
     1.0000   1.0000   1.0000   1.0000   1.0000   1.0000   1.0000   1.0000
     1.0000   1.0000   1.0000   1.0000   1.0000   1.0000   1.0000   1.0000
     1.0000   1.0000   1.0000   1.0000   1.0000   1.0000   1.0000   1.0000
     1.0000   1.0000   1.0000   1.0000   1.0000   1.0000   1.0000   1.0000
     1.0000   1.0000   1.0000   1.0000   1.0000   1.0000   1.0000   1.0000
     1.0000   1.0000   1.0000   1.0000   1.0000   1.0000   1.0000   1.0000
     1.0000   1.0000   1.0000   1.0000   1.0000   1.0000   1.0000   1.0000
     1.0000   1.0000   1.0000   1.0000   1.0000   1.0000   1.0000   1.0000
     1.0000   1.0000   1.0000   1.0000   1.0000   1.0000   1.0000   1.0000
     1.0000   1.0000   1.0000   1.0000   1.0000   1.0000   1.0000   1.0000
     1.0000   1.0000   1.0000   1.0000   1.0000   1.0000   1.0000   1.0000
     1.0000   1.0000   1.0000   1.0000   1.0000   1.0000   1.0000   1.0000
     1.0000   1.0000   1.0000   1.0000   1.0000   1.0000   1.0000   1.0000
     1.0000   1.0000   1.0000   1.0000   1.0000   1.0000   1.0000   1.0000
     1.0000   1.0000   1.0000   1.0000   1.0000   1.0000   1.0000   1.0000
     1.0000   1.0000   1.0000   1.0000   1.0000   1.0000   1.0000   1.0000
     1.0000   1.0000   1.0000   1.0000   1.0000   1.0000   1.0000   1.0000
     1.0000   1.0000   1.0000   1.0000   1.0000   1.0000   1.0000   1.0000
     1.0000   1.0000   1.0000   1.0000   1.0000   1.0000   1.0000   1.0000
     1.0000   1.0000   1.0000   1.0000   1.0000   1.0000   1.0000   1.0000
     1.0000   1.0000   1.0000   1.0000   1.0000   1.0000   1.0000   1.0000
     1.0000   1.0000   1.0000   1.0000   1.0000   1.0000   1.0000   1.0000
     1.0000   1.0000   1.0000   1.0000   1.0000   1.0000   1.0000   1.0000
     1.0000   1.0000   1.0000   1.0000   1.0000   1.0000   1.0000   0.6529
     0.6409   0.6363   0.6254   0.6135   0.5918   0.3858   0.3603   0.3393
     0.3291   0.3106   0.0736   0.0000   0.0000   0.0000   0.0000   0.0000
     0.0000   0.0000   0.0000   0.0000   0.0000   0.0000   0.0000   0.0000
     0.0000   0.0000   0.0000   0.0000   0.0000   0.0000   0.0000   0.0000
     0.0000   0.0000   0.0000   0.0000   0.0000   0.0000   0.0000   0.0000
     0.0000   0.0000   0.0000   0.0000   0.0000   0.0000   0.0000   0.0000
     0.0000   0.0000   0.0000   0.0000   0.0000   0.0000   0.0000   0.0000
     0.0000   0.0000   0.0000   0.0000   0.0000   0.0000   0.0000   0.0000
     0.0000   0.0000   0.0000   0.0000   0.0000   0.0000   0.0000   0.0000
     0.0000   0.0000   0.0000   0.0000   0.0000   0.0000   0.0000   0.0000
     0.0000   0.0000   0.0000   0.0000   0.0000   0.0000   0.0000   0.0000
     0.0000   0.0000   0.0000   0.0000   0.0000   0.0000   0.0000   0.0000
     0.0000   0.0000   0.0000   0.0000   0.0000

          k = 0.0000 0.3849 0.0000 ( 64840 PWs)   bands (ev):

  -124.7833-124.7823-124.7815-124.7812-124.7804-124.7802-124.7797-124.7794
  -124.7788-124.7786-124.7785-124.7782-124.7780-124.7774-124.7767-124.7761
  -124.6628-124.6613-124.6569-124.6561-124.6555-124.6546-124.6535-124.6531
  -124.6523-124.6520-124.6519-124.6517-124.6515-124.6512-124.6511-124.6501
  -124.6499-124.6492-124.6490-124.6489-124.6489-124.6483-124.6481-124.6478
  -124.6477-124.6474-124.6470-124.6464-124.6463-124.6401-124.6392-124.6164
   -78.9473 -78.9468 -78.9458 -78.9434 -78.9433 -78.9423 -78.9414 -78.9395
   -78.9390 -78.9387 -78.9350 -78.9349 -78.9330 -78.9321 -78.9316 -78.9313
   -78.9310 -78.9305 -78.9299 -78.9291 -78.9283 -78.9281 -78.9274 -78.9272
   -78.9269 -78.9268 -78.9267 -78.9264 -78.9261 -78.9260 -78.9258 -78.9258
   -78.9253 -78.9246 -78.9233 -78.9230 -78.9227 -78.9222 -78.9209 -78.9207
   -78.9191 -78.9188 -78.9183 -78.9165 -78.9155 -78.9143 -78.9140 -78.9121
   -78.8209 -78.8200 -78.8189 -78.8179 -78.8173 -78.8147 -78.8140 -78.8138
   -78.8136 -78.8136 -78.8134 -78.8128 -78.8127 -78.8126 -78.8111 -78.8107
   -78.8104 -78.8104 -78.8102 -78.8099 -78.8094 -78.8089 -78.8087 -78.8083
   -78.8082 -78.8078 -78.8076 -78.8076 -78.8075 -78.8072 -78.8070 -78.8067
   -78.8066 -78.8061 -78.8059 -78.8058 -78.8056 -78.8049 -78.8047 -78.8047
   -78.8046 -78.8045 -78.8043 -78.8040 -78.8038 -78.8034 -78.8033 -78.8031
   -78.8027 -78.8020 -78.8020 -78.8019 -78.8018 -78.8016 -78.8008 -78.7993
   -78.7992 -78.7983 -78.7970 -78.7966 -78.7962 -78.7961 -78.7956 -78.7941
   -78.7939 -78.7938 -78.7931 -78.7929 -78.7927 -78.7917 -78.7916 -78.7913
   -78.7903 -78.7903 -78.7899 -78.7897 -78.7891 -78.7888 -78.7878 -78.7877
   -78.7872 -78.7860 -78.7860 -78.7860 -78.7857 -78.7838 -78.7826 -78.7826
   -78.7818 -78.7813 -78.7813 -78.7795 -78.7770 -78.7701 -78.7691 -78.7608
   -20.4256  -8.1674  -7.9861  -7.3876  -6.9753  -6.8673  -6.8644  -6.7230
    -6.5775  -6.5449  -6.5321  -6.5319  -6.5215  -6.4600  -6.4339  -6.4335
    -6.4281  -6.4129  -6.3912  -6.3910  -6.3690  -6.3688  -6.3454  -6.3424
    -6.3255  -6.3253  -6.2836  -6.2828  -6.2615  -6.2602  -6.2468  -6.2463
    -6.2333  -6.2333  -6.2312  -6.2307  -6.2251  -6.2245  -6.2225  -6.2198
    -6.2194  -6.1751  -6.1748  -6.1664  -6.1659  -6.1320  -6.1310  -6.1262
    -6.1190  -6.1180  -6.1135  -6.1130  -6.0968  -6.0966  -6.0512  -6.0511
    -6.0496  -6.0446  -6.0433  -6.0206  -6.0203  -6.0173  -6.0172  -6.0036
    -5.9980  -5.9749  -5.9739  -5.9719  -5.9715  -5.9660  -5.9651  -5.9643
    -5.9577  -5.9569  -5.9253  -5.9250  -5.9222  -5.9221  -5.9199  -5.9196
    -5.9032  -5.8680  -5.8677  -5.8653  -5.8652  -5.8586  -5.8580  -5.8570
    -5.8423  -5.8327  -5.8312  -5.8246  -5.7861  -5.7857  -5.7851  -5.7842
    -5.7824  -5.7809  -5.7790  -5.7716  -5.7716  -5.7628  -5.7614  -5.7454
    -5.7414  -5.7287  -5.7226  -5.7120  -5.7014  -5.6993  -5.6876  -5.6871
    -5.6719  -5.6715  -5.6459  -5.6363  -5.6348  -5.6105  -5.6104  -5.6069
    -5.6064  -5.5956  -5.5919  -5.5908  -5.5775  -5.5730  -5.5729  -5.5596
    -5.5594  -5.5554  -5.5547  -5.5500  -5.5477  -5.5466  -5.5436  -5.5364
    -5.5353  -5.5215  -5.5214  -5.5182  -5.5124  -5.4921  -5.4858  -5.4829
    -5.4788  -5.4766  -5.4763  -5.4745  -5.4686  -5.4684  -5.4683  -5.4679
    -5.4674  -5.4669  -5.4360  -5.4307  -5.4292  -5.4251  -5.4207  -5.4199
    -5.4189  -5.4138  -5.4097  -5.4028  -5.4020  -5.3992  -5.3939  -5.3931
    -5.3677  -5.3633  -5.3599  -5.3594  -5.3469  -5.3414  -5.3395  -5.3393
    -5.3385  -5.3374  -5.3337  -5.3330  -5.3223  -5.3221  -5.3138  -5.3121
    -5.3111  -5.3096  -5.3070  -5.3068  -5.3054  -5.2965  -5.2960  -5.2936
    -5.2915  -5.2848  -5.2842  -5.2695  -5.2645  -5.2617  -5.2608  -5.2602
    -5.2468  -5.2442  -5.2397  -5.2281  -5.2276  -5.2272  -5.2254  -5.2236
    -5.2225  -5.2155  -5.2094  -5.2085  -5.2039  -5.1996  -5.1976  -5.1961
    -5.1957  -5.1953  -5.1904  -5.1864  -5.1801  -5.1667  -5.1626  -5.1585
    -5.1579  -5.1569  -5.1544  -5.1240  -5.1067  -5.1019  -5.0993  -5.0985
    -5.0807  -5.0789  -5.0775  -5.0773  -5.0771  -5.0760  -5.0552  -5.0542
    -5.0531  -4.9599  -4.9596  -4.9498  -4.9497  -4.9215  -4.9193  -4.8684
    -4.6679  -4.6395  -4.5868  -4.4467  -4.3698  -4.2228  -3.4422  -3.4181
    -3.4033  -3.4026  -3.2743  -2.9268  -2.8186  -2.5681  -2.3674  -2.3167
    -2.1946  -2.1214  -2.0088  -1.5791  -1.5758  -1.2584  -1.2004  -1.0855
    -1.0841  -1.0214  -0.7009  -0.2739  -0.2488  -0.2225  -0.0605  -0.0211
     0.1647   0.1713   0.3697   0.3713   0.5306   0.8543   1.1747   1.1758
     1.2319   1.2942   1.6472   1.6585   1.6920   1.7036   2.6045   2.6570
     2.7329   2.7355   2.9638   2.9711   3.1413   3.2714   3.3025   3.3251
     3.3473   3.7549   3.8069   3.8148   3.9041   3.9541   3.9745   3.9981
     4.3547   4.3652   4.3863   4.4350   4.4486   4.8931   4.9825   4.9881
     5.2167   5.2365   5.2930   5.4399   5.4480   5.4511   5.5133   5.5646
     5.6951   5.8734   5.8914   5.9758   6.0541   6.1394   6.1992   6.2846
     6.2947   6.3512   6.4001   6.4194   6.4317   6.4518   6.5317   6.5564
     6.6158   6.6608   6.6773   6.8299   6.8375   6.9054   6.9116   6.9554
     6.9565   7.0260   7.1370   7.2651   7.3901   7.5077   7.5734   7.5985
     7.6080   7.6497   7.7331   7.7383   7.8675   7.8698   8.0441   8.0465
     8.0632   8.0914   8.1287   8.2267   8.3326   8.4294   8.4352   8.4627
     8.4739   8.5083   8.6885   8.7648   8.7739   8.8143   8.8172   8.8278
     8.8354   8.8654   8.9053   8.9713   9.0551

     occupation numbers 
     1.0000   1.0000   1.0000   1.0000   1.0000   1.0000   1.0000   1.0000
     1.0000   1.0000   1.0000   1.0000   1.0000   1.0000   1.0000   1.0000
     1.0000   1.0000   1.0000   1.0000   1.0000   1.0000   1.0000   1.0000
     1.0000   1.0000   1.0000   1.0000   1.0000   1.0000   1.0000   1.0000
     1.0000   1.0000   1.0000   1.0000   1.0000   1.0000   1.0000   1.0000
     1.0000   1.0000   1.0000   1.0000   1.0000   1.0000   1.0000   1.0000
     1.0000   1.0000   1.0000   1.0000   1.0000   1.0000   1.0000   1.0000
     1.0000   1.0000   1.0000   1.0000   1.0000   1.0000   1.0000   1.0000
     1.0000   1.0000   1.0000   1.0000   1.0000   1.0000   1.0000   1.0000
     1.0000   1.0000   1.0000   1.0000   1.0000   1.0000   1.0000   1.0000
     1.0000   1.0000   1.0000   1.0000   1.0000   1.0000   1.0000   1.0000
     1.0000   1.0000   1.0000   1.0000   1.0000   1.0000   1.0000   1.0000
     1.0000   1.0000   1.0000   1.0000   1.0000   1.0000   1.0000   1.0000
     1.0000   1.0000   1.0000   1.0000   1.0000   1.0000   1.0000   1.0000
     1.0000   1.0000   1.0000   1.0000   1.0000   1.0000   1.0000   1.0000
     1.0000   1.0000   1.0000   1.0000   1.0000   1.0000   1.0000   1.0000
     1.0000   1.0000   1.0000   1.0000   1.0000   1.0000   1.0000   1.0000
     1.0000   1.0000   1.0000   1.0000   1.0000   1.0000   1.0000   1.0000
     1.0000   1.0000   1.0000   1.0000   1.0000   1.0000   1.0000   1.0000
     1.0000   1.0000   1.0000   1.0000   1.0000   1.0000   1.0000   1.0000
     1.0000   1.0000   1.0000   1.0000   1.0000   1.0000   1.0000   1.0000
     1.0000   1.0000   1.0000   1.0000   1.0000   1.0000   1.0000   1.0000
     1.0000   1.0000   1.0000   1.0000   1.0000   1.0000   1.0000   1.0000
     1.0000   1.0000   1.0000   1.0000   1.0000   1.0000   1.0000   1.0000
     1.0000   1.0000   1.0000   1.0000   1.0000   1.0000   1.0000   1.0000
     1.0000   1.0000   1.0000   1.0000   1.0000   1.0000   1.0000   1.0000
     1.0000   1.0000   1.0000   1.0000   1.0000   1.0000   1.0000   1.0000
     1.0000   1.0000   1.0000   1.0000   1.0000   1.0000   1.0000   1.0000
     1.0000   1.0000   1.0000   1.0000   1.0000   1.0000   1.0000   1.0000
     1.0000   1.0000   1.0000   1.0000   1.0000   1.0000   1.0000   1.0000
     1.0000   1.0000   1.0000   1.0000   1.0000   1.0000   1.0000   1.0000
     1.0000   1.0000   1.0000   1.0000   1.0000   1.0000   1.0000   1.0000
     1.0000   1.0000   1.0000   1.0000   1.0000   1.0000   1.0000   1.0000
     1.0000   1.0000   1.0000   1.0000   1.0000   1.0000   1.0000   1.0000
     1.0000   1.0000   1.0000   1.0000   1.0000   1.0000   1.0000   1.0000
     1.0000   1.0000   1.0000   1.0000   1.0000   1.0000   1.0000   1.0000
     1.0000   1.0000   1.0000   1.0000   1.0000   1.0000   1.0000   1.0000
     1.0000   1.0000   1.0000   1.0000   1.0000   1.0000   1.0000   1.0000
     1.0000   1.0000   1.0000   1.0000   1.0000   1.0000   1.0000   1.0000
     1.0000   1.0000   1.0000   1.0000   1.0000   1.0000   1.0000   1.0000
     1.0000   1.0000   1.0000   1.0000   1.0000   1.0000   1.0000   1.0000
     1.0000   1.0000   1.0000   1.0000   1.0000   1.0000   1.0000   1.0000
     1.0000   1.0000   1.0000   1.0000   1.0000   1.0000   1.0000   1.0000
     1.0000   1.0000   1.0000   1.0000   1.0000   1.0000   1.0000   1.0000
     1.0000   1.0000   1.0000   1.0000   1.0000   1.0000   1.0000   1.0000
     1.0000   1.0000   1.0000   1.0000   1.0000   1.0000   1.0000   1.0000
     1.0000   1.0000   1.0000   1.0000   1.0000   1.0000   1.0000   1.0000
     1.0000   1.0000   1.0000   1.0000   1.0000   1.0000   1.0000   1.0000
     1.0000   1.0000   1.0000   1.0000   1.0000   1.0000   1.0000   1.0000
     1.0000   1.0000   1.0000   1.0000   1.0000   1.0000   1.0000   1.0000
     1.0000   1.0000   1.0000   1.0000   1.0000   1.0000   1.0000   1.0000
     1.0000   1.0000   1.0000   1.0000   1.0000   1.0000   1.0000   1.0000
     1.0000   1.0000   1.0000   1.0000   1.0000   1.0000   1.0000   1.0000
     1.0000   1.0000   1.0000   1.0000   1.0000   1.0000   1.0000   1.0000
     1.0000   1.0000   1.0000   1.0000   1.0000   1.0000   1.0000   1.0000
     1.0000   1.0000   1.0000   1.0000   1.0000   1.0000   1.0000   1.0000
     1.0000   1.0000   1.0000   1.0000   1.0000   1.0000   1.0000   1.0000
     1.0000   1.0000   1.0000   1.0000   1.0000   1.0000   1.0000   1.0000
     1.0000   1.0000   1.0000   1.0000   1.0000   1.0000   1.0000   1.0000
     1.0000   1.0000   1.0000   1.0000   1.0000   1.0012   1.0536   1.0540
     1.0724   1.0833   0.4923   0.4622   0.3767   0.3486   0.0000   0.0000
     0.0000   0.0000   0.0000   0.0000   0.0000   0.0000   0.0000   0.0000
     0.0000   0.0000   0.0000   0.0000   0.0000   0.0000   0.0000   0.0000
     0.0000   0.0000   0.0000   0.0000   0.0000   0.0000   0.0000   0.0000
     0.0000   0.0000   0.0000   0.0000   0.0000   0.0000   0.0000   0.0000
     0.0000   0.0000   0.0000   0.0000   0.0000   0.0000   0.0000   0.0000
     0.0000   0.0000   0.0000   0.0000   0.0000   0.0000   0.0000   0.0000
     0.0000   0.0000   0.0000   0.0000   0.0000   0.0000   0.0000   0.0000
     0.0000   0.0000   0.0000   0.0000   0.0000   0.0000   0.0000   0.0000
     0.0000   0.0000   0.0000   0.0000   0.0000   0.0000   0.0000   0.0000
     0.0000   0.0000   0.0000   0.0000   0.0000   0.0000   0.0000   0.0000
     0.0000   0.0000   0.0000   0.0000   0.0000   0.0000   0.0000   0.0000
     0.0000   0.0000   0.0000   0.0000   0.0000

          k = 0.3333 0.1925 0.0000 ( 64840 PWs)   bands (ev):

  -124.7833-124.7824-124.7816-124.7811-124.7804-124.7803-124.7797-124.7793
  -124.7788-124.7787-124.7785-124.7781-124.7779-124.7774-124.7767-124.7761
  -124.6628-124.6613-124.6569-124.6561-124.6555-124.6546-124.6535-124.6530
  -124.6524-124.6520-124.6519-124.6516-124.6514-124.6512-124.6511-124.6501
  -124.6499-124.6493-124.6490-124.6489-124.6488-124.6484-124.6480-124.6478
  -124.6477-124.6475-124.6470-124.6464-124.6463-124.6401-124.6392-124.6164
   -78.9470 -78.9468 -78.9458 -78.9437 -78.9436 -78.9421 -78.9414 -78.9395
   -78.9389 -78.9385 -78.9349 -78.9348 -78.9330 -78.9320 -78.9316 -78.9315
   -78.9311 -78.9305 -78.9299 -78.9291 -78.9283 -78.9281 -78.9274 -78.9272
   -78.9270 -78.9268 -78.9266 -78.9263 -78.9262 -78.9259 -78.9258 -78.9256
   -78.9253 -78.9246 -78.9235 -78.9233 -78.9227 -78.9222 -78.9209 -78.9205
   -78.9193 -78.9187 -78.9182 -78.9164 -78.9158 -78.9141 -78.9138 -78.9123
   -78.8204 -78.8200 -78.8189 -78.8181 -78.8173 -78.8150 -78.8148 -78.8141
   -78.8140 -78.8137 -78.8136 -78.8129 -78.8127 -78.8120 -78.8111 -78.8108
   -78.8105 -78.8102 -78.8098 -78.8091 -78.8090 -78.8089 -78.8086 -78.8085
   -78.8082 -78.8080 -78.8076 -78.8075 -78.8074 -78.8071 -78.8071 -78.8067
   -78.8067 -78.8061 -78.8058 -78.8056 -78.8055 -78.8053 -78.8051 -78.8046
   -78.8045 -78.8044 -78.8041 -78.8037 -78.8035 -78.8033 -78.8031 -78.8030
   -78.8026 -78.8022 -78.8020 -78.8020 -78.8019 -78.8018 -78.8011 -78.7997
   -78.7990 -78.7985 -78.7978 -78.7966 -78.7959 -78.7956 -78.7954 -78.7946
   -78.7938 -78.7933 -78.7932 -78.7930 -78.7928 -78.7927 -78.7921 -78.7909
   -78.7903 -78.7902 -78.7898 -78.7896 -78.7893 -78.7880 -78.7878 -78.7878
   -78.7869 -78.7862 -78.7861 -78.7858 -78.7857 -78.7835 -78.7829 -78.7829
   -78.7813 -78.7812 -78.7811 -78.7796 -78.7776 -78.7702 -78.7689 -78.7608
   -20.4256  -8.1680  -7.9857  -7.3873  -6.9751  -6.8672  -6.8649  -6.7229
    -6.5774  -6.5444  -6.5321  -6.5319  -6.5215  -6.4599  -6.4339  -6.4335
    -6.4281  -6.4128  -6.3914  -6.3908  -6.3691  -6.3687  -6.3453  -6.3424
    -6.3255  -6.3253  -6.2836  -6.2830  -6.2617  -6.2606  -6.2469  -6.2463
    -6.2334  -6.2333  -6.2312  -6.2307  -6.2249  -6.2244  -6.2225  -6.2197
    -6.2196  -6.1753  -6.1748  -6.1662  -6.1659  -6.1320  -6.1312  -6.1262
    -6.1188  -6.1181  -6.1134  -6.1131  -6.0968  -6.0966  -6.0512  -6.0511
    -6.0489  -6.0448  -6.0438  -6.0205  -6.0201  -6.0173  -6.0171  -6.0035
    -5.9977  -5.9753  -5.9743  -5.9718  -5.9716  -5.9658  -5.9653  -5.9642
    -5.9572  -5.9569  -5.9253  -5.9251  -5.9222  -5.9221  -5.9201  -5.9195
    -5.9032  -5.8679  -5.8672  -5.8653  -5.8651  -5.8593  -5.8580  -5.8576
    -5.8405  -5.8337  -5.8320  -5.8246  -5.7861  -5.7856  -5.7851  -5.7844
    -5.7823  -5.7810  -5.7790  -5.7717  -5.7715  -5.7624  -5.7615  -5.7437
    -5.7413  -5.7288  -5.7227  -5.7120  -5.7020  -5.6996  -5.6878  -5.6873
    -5.6718  -5.6714  -5.6459  -5.6363  -5.6348  -5.6108  -5.6103  -5.6068
    -5.6058  -5.5954  -5.5921  -5.5907  -5.5782  -5.5732  -5.5726  -5.5597
    -5.5594  -5.5550  -5.5542  -5.5483  -5.5478  -5.5472  -5.5447  -5.5365
    -5.5354  -5.5217  -5.5215  -5.5181  -5.5124  -5.4922  -5.4859  -5.4848
    -5.4776  -5.4764  -5.4757  -5.4748  -5.4688  -5.4684  -5.4682  -5.4678
    -5.4675  -5.4671  -5.4359  -5.4313  -5.4283  -5.4253  -5.4205  -5.4202
    -5.4183  -5.4138  -5.4110  -5.4026  -5.4023  -5.3976  -5.3950  -5.3925
    -5.3677  -5.3631  -5.3597  -5.3590  -5.3468  -5.3411  -5.3398  -5.3395
    -5.3393  -5.3355  -5.3344  -5.3331  -5.3228  -5.3223  -5.3139  -5.3121
    -5.3112  -5.3096  -5.3075  -5.3066  -5.3054  -5.2963  -5.2958  -5.2937
    -5.2912  -5.2854  -5.2843  -5.2681  -5.2655  -5.2612  -5.2608  -5.2596
    -5.2489  -5.2447  -5.2398  -5.2288  -5.2277  -5.2265  -5.2252  -5.2232
    -5.2225  -5.2145  -5.2098  -5.2088  -5.2039  -5.1997  -5.1976  -5.1963
    -5.1957  -5.1952  -5.1903  -5.1861  -5.1802  -5.1668  -5.1619  -5.1583
    -5.1581  -5.1572  -5.1546  -5.1242  -5.1062  -5.1019  -5.0994  -5.0988
    -5.0806  -5.0788  -5.0776  -5.0773  -5.0771  -5.0759  -5.0552  -5.0544
    -5.0531  -4.9603  -4.9595  -4.9500  -4.9495  -4.9215  -4.9193  -4.8657
    -4.6688  -4.6409  -4.5916  -4.4547  -4.3524  -4.2256  -3.4428  -3.4177
    -3.4136  -3.3918  -3.2707  -2.9185  -2.8317  -2.5736  -2.3693  -2.3073
    -2.1962  -2.1180  -2.0136  -1.5781  -1.5754  -1.2537  -1.2047  -1.0848
    -1.0835  -1.0236  -0.7036  -0.2709  -0.2460  -0.2283  -0.0572  -0.0227
     0.1674   0.1708   0.3699   0.3706   0.5300   0.8525   1.1747   1.1769
     1.2403   1.2866   1.6500   1.6565   1.6933   1.7019   2.6104   2.6509
     2.7329   2.7345   2.9634   2.9742   3.1438   3.2710   3.3032   3.3248
     3.3456   3.7513   3.8065   3.8143   3.9140   3.9487   3.9769   3.9970
     4.3056   4.3733   4.4061   4.4365   4.4548   4.9116   4.9817   4.9894
     5.2213   5.2334   5.2863   5.4410   5.4492   5.4505   5.5284   5.5649
     5.6352   5.8817   5.8835   5.9602   6.0537   6.1409   6.2557   6.2798
     6.3314   6.3519   6.4071   6.4174   6.4358   6.4465   6.5260   6.5547
     6.6225   6.6645   6.6796   6.8278   6.8379   6.8768   6.9412   6.9533
     6.9639   7.0202   7.1312   7.2092   7.4551   7.5109   7.5522   7.5853
     7.6013   7.6174   7.7282   7.7748   7.8632   7.8713   8.0182   8.0485
     8.0523   8.0949   8.1392   8.2013   8.3074   8.4205   8.4413   8.4676
     8.4969   8.5254   8.7070   8.7476   8.7889   8.8028   8.8173   8.8284
     8.8532   8.8642   8.8986   8.9746   9.0508

     occupation numbers 
     1.0000   1.0000   1.0000   1.0000   1.0000   1.0000   1.0000   1.0000
     1.0000   1.0000   1.0000   1.0000   1.0000   1.0000   1.0000   1.0000
     1.0000   1.0000   1.0000   1.0000   1.0000   1.0000   1.0000   1.0000
     1.0000   1.0000   1.0000   1.0000   1.0000   1.0000   1.0000   1.0000
     1.0000   1.0000   1.0000   1.0000   1.0000   1.0000   1.0000   1.0000
     1.0000   1.0000   1.0000   1.0000   1.0000   1.0000   1.0000   1.0000
     1.0000   1.0000   1.0000   1.0000   1.0000   1.0000   1.0000   1.0000
     1.0000   1.0000   1.0000   1.0000   1.0000   1.0000   1.0000   1.0000
     1.0000   1.0000   1.0000   1.0000   1.0000   1.0000   1.0000   1.0000
     1.0000   1.0000   1.0000   1.0000   1.0000   1.0000   1.0000   1.0000
     1.0000   1.0000   1.0000   1.0000   1.0000   1.0000   1.0000   1.0000
     1.0000   1.0000   1.0000   1.0000   1.0000   1.0000   1.0000   1.0000
     1.0000   1.0000   1.0000   1.0000   1.0000   1.0000   1.0000   1.0000
     1.0000   1.0000   1.0000   1.0000   1.0000   1.0000   1.0000   1.0000
     1.0000   1.0000   1.0000   1.0000   1.0000   1.0000   1.0000   1.0000
     1.0000   1.0000   1.0000   1.0000   1.0000   1.0000   1.0000   1.0000
     1.0000   1.0000   1.0000   1.0000   1.0000   1.0000   1.0000   1.0000
     1.0000   1.0000   1.0000   1.0000   1.0000   1.0000   1.0000   1.0000
     1.0000   1.0000   1.0000   1.0000   1.0000   1.0000   1.0000   1.0000
     1.0000   1.0000   1.0000   1.0000   1.0000   1.0000   1.0000   1.0000
     1.0000   1.0000   1.0000   1.0000   1.0000   1.0000   1.0000   1.0000
     1.0000   1.0000   1.0000   1.0000   1.0000   1.0000   1.0000   1.0000
     1.0000   1.0000   1.0000   1.0000   1.0000   1.0000   1.0000   1.0000
     1.0000   1.0000   1.0000   1.0000   1.0000   1.0000   1.0000   1.0000
     1.0000   1.0000   1.0000   1.0000   1.0000   1.0000   1.0000   1.0000
     1.0000   1.0000   1.0000   1.0000   1.0000   1.0000   1.0000   1.0000
     1.0000   1.0000   1.0000   1.0000   1.0000   1.0000   1.0000   1.0000
     1.0000   1.0000   1.0000   1.0000   1.0000   1.0000   1.0000   1.0000
     1.0000   1.0000   1.0000   1.0000   1.0000   1.0000   1.0000   1.0000
     1.0000   1.0000   1.0000   1.0000   1.0000   1.0000   1.0000   1.0000
     1.0000   1.0000   1.0000   1.0000   1.0000   1.0000   1.0000   1.0000
     1.0000   1.0000   1.0000   1.0000   1.0000   1.0000   1.0000   1.0000
     1.0000   1.0000   1.0000   1.0000   1.0000   1.0000   1.0000   1.0000
     1.0000   1.0000   1.0000   1.0000   1.0000   1.0000   1.0000   1.0000
     1.0000   1.0000   1.0000   1.0000   1.0000   1.0000   1.0000   1.0000
     1.0000   1.0000   1.0000   1.0000   1.0000   1.0000   1.0000   1.0000
     1.0000   1.0000   1.0000   1.0000   1.0000   1.0000   1.0000   1.0000
     1.0000   1.0000   1.0000   1.0000   1.0000   1.0000   1.0000   1.0000
     1.0000   1.0000   1.0000   1.0000   1.0000   1.0000   1.0000   1.0000
     1.0000   1.0000   1.0000   1.0000   1.0000   1.0000   1.0000   1.0000
     1.0000   1.0000   1.0000   1.0000   1.0000   1.0000   1.0000   1.0000
     1.0000   1.0000   1.0000   1.0000   1.0000   1.0000   1.0000   1.0000
     1.0000   1.0000   1.0000   1.0000   1.0000   1.0000   1.0000   1.0000
     1.0000   1.0000   1.0000   1.0000   1.0000   1.0000   1.0000   1.0000
     1.0000   1.0000   1.0000   1.0000   1.0000   1.0000   1.0000   1.0000
     1.0000   1.0000   1.0000   1.0000   1.0000   1.0000   1.0000   1.0000
     1.0000   1.0000   1.0000   1.0000   1.0000   1.0000   1.0000   1.0000
     1.0000   1.0000   1.0000   1.0000   1.0000   1.0000   1.0000   1.0000
     1.0000   1.0000   1.0000   1.0000   1.0000   1.0000   1.0000   1.0000
     1.0000   1.0000   1.0000   1.0000   1.0000   1.0000   1.0000   1.0000
     1.0000   1.0000   1.0000   1.0000   1.0000   1.0000   1.0000   1.0000
     1.0000   1.0000   1.0000   1.0000   1.0000   1.0000   1.0000   1.0000
     1.0000   1.0000   1.0000   1.0000   1.0000   1.0000   1.0000   1.0000
     1.0000   1.0000   1.0000   1.0000   1.0000   1.0000   1.0000   1.0000
     1.0000   1.0000   1.0000   1.0000   1.0000   1.0000   1.0000   1.0000
     1.0000   1.0000   1.0000   1.0000   1.0000   1.0000   1.0000   1.0000
     1.0000   1.0000   1.0000   1.0000   1.0000   1.0000   1.0000   1.0000
     1.0000   1.0000   1.0000   1.0000   1.0000   1.0000   1.0000   1.0000
     1.0000   1.0000   1.0000   1.0000   1.0000   1.0000   1.0000   1.0000
     1.0000   1.0000   1.0000   1.0000   1.0000   1.0012   1.0536   1.0544
     1.0747   1.0829   0.4848   0.4675   0.3734   0.3527   0.0000   0.0000
     0.0000   0.0000   0.0000   0.0000   0.0000   0.0000   0.0000   0.0000
     0.0000   0.0000   0.0000   0.0000   0.0000   0.0000   0.0000   0.0000
     0.0000   0.0000   0.0000   0.0000   0.0000   0.0000   0.0000   0.0000
     0.0000   0.0000   0.0000   0.0000   0.0000   0.0000   0.0000   0.0000
     0.0000   0.0000   0.0000   0.0000   0.0000   0.0000   0.0000   0.0000
     0.0000   0.0000   0.0000   0.0000   0.0000   0.0000   0.0000   0.0000
     0.0000   0.0000   0.0000   0.0000   0.0000   0.0000   0.0000   0.0000
     0.0000   0.0000   0.0000   0.0000   0.0000   0.0000   0.0000   0.0000
     0.0000   0.0000   0.0000   0.0000   0.0000   0.0000   0.0000   0.0000
     0.0000   0.0000   0.0000   0.0000   0.0000   0.0000   0.0000   0.0000
     0.0000   0.0000   0.0000   0.0000   0.0000   0.0000   0.0000   0.0000
     0.0000   0.0000   0.0000   0.0000   0.0000

          k = 0.3333 0.5774 0.0000 ( 64848 PWs)   bands (ev):

  -124.7833-124.7824-124.7816-124.7812-124.7804-124.7802-124.7797-124.7793
  -124.7789-124.7786-124.7784-124.7782-124.7780-124.7774-124.7767-124.7761
  -124.6628-124.6613-124.6569-124.6561-124.6555-124.6546-124.6535-124.6531
  -124.6523-124.6520-124.6518-124.6516-124.6515-124.6513-124.6511-124.6501
  -124.6499-124.6494-124.6490-124.6489-124.6487-124.6484-124.6481-124.6478
  -124.6476-124.6475-124.6470-124.6464-124.6463-124.6401-124.6392-124.6164
   -78.9459 -78.9454 -78.9449 -78.9433 -78.9429 -78.9426 -78.9424 -78.9416
   -78.9415 -78.9374 -78.9373 -78.9333 -78.9331 -78.9327 -78.9326 -78.9316
   -78.9311 -78.9306 -78.9299 -78.9291 -78.9283 -78.9281 -78.9274 -78.9273
   -78.9272 -78.9270 -78.9269 -78.9267 -78.9265 -78.9263 -78.9258 -78.9253
   -78.9246 -78.9222 -78.9220 -78.9215 -78.9213 -78.9209 -78.9206 -78.9198
   -78.9195 -78.9191 -78.9187 -78.9181 -78.9179 -78.9140 -78.9136 -78.9131
   -78.8204 -78.8194 -78.8188 -78.8174 -78.8163 -78.8153 -78.8149 -78.8144
   -78.8136 -78.8129 -78.8125 -78.8123 -78.8121 -78.8119 -78.8115 -78.8111
   -78.8109 -78.8102 -78.8100 -78.8098 -78.8098 -78.8095 -78.8090 -78.8089
   -78.8089 -78.8087 -78.8082 -78.8079 -78.8076 -78.8075 -78.8072 -78.8071
   -78.8067 -78.8063 -78.8058 -78.8056 -78.8055 -78.8051 -78.8047 -78.8046
   -78.8045 -78.8044 -78.8043 -78.8041 -78.8039 -78.8038 -78.8034 -78.8033
   -78.8032 -78.8027 -78.8026 -78.8020 -78.8018 -78.8018 -78.8001 -78.7999
   -78.7999 -78.7992 -78.7969 -78.7964 -78.7960 -78.7956 -78.7951 -78.7941
   -78.7940 -78.7939 -78.7938 -78.7932 -78.7922 -78.7909 -78.7906 -78.7895
   -78.7889 -78.7889 -78.7887 -78.7886 -78.7883 -78.7881 -78.7880 -78.7871
   -78.7867 -78.7864 -78.7863 -78.7862 -78.7858 -78.7856 -78.7853 -78.7828
   -78.7816 -78.7810 -78.7808 -78.7807 -78.7776 -78.7702 -78.7690 -78.7608
   -20.4256  -8.1678  -7.5809  -7.5769  -7.5753  -6.6664  -6.6620  -6.6608
    -6.5293  -6.5277  -6.5262  -6.4746  -6.4743  -6.4738  -6.4733  -6.4728
    -6.4725  -6.3604  -6.3601  -6.3596  -6.3281  -6.3272  -6.3267  -6.3259
    -6.3252  -6.3245  -6.3134  -6.3129  -6.3127  -6.3117  -6.3111  -6.3107
    -6.2674  -6.2664  -6.2661  -6.2554  -6.2546  -6.2539  -6.2038  -6.2029
    -6.2022  -6.1610  -6.1608  -6.1602  -6.1597  -6.1588  -6.1586  -6.1239
    -6.1234  -6.1230  -6.1097  -6.1096  -6.1094  -6.0820  -6.0815  -6.0809
    -6.0574  -6.0573  -6.0572  -6.0449  -6.0120  -6.0115  -6.0107  -6.0097
    -6.0092  -6.0084  -5.9838  -5.9827  -5.9820  -5.9756  -5.9743  -5.9733
    -5.9625  -5.9518  -5.9156  -5.9153  -5.9150  -5.9128  -5.9067  -5.9064
    -5.9061  -5.8990  -5.8851  -5.8847  -5.8845  -5.8825  -5.8822  -5.8819
    -5.8500  -5.8491  -5.8479  -5.8088  -5.8085  -5.8078  -5.8035  -5.8015
    -5.8000  -5.7998  -5.7984  -5.7979  -5.7976  -5.7973  -5.7961  -5.7626
    -5.7612  -5.7609  -5.7171  -5.7163  -5.7120  -5.7118  -5.6711  -5.6705
    -5.6698  -5.6692  -5.6682  -5.6664  -5.6495  -5.6461  -5.6455  -5.6428
    -5.6398  -5.6396  -5.6382  -5.5895  -5.5589  -5.5526  -5.5517  -5.5512
    -5.5503  -5.5499  -5.5438  -5.5422  -5.5419  -5.5416  -5.5409  -5.5397
    -5.5295  -5.5294  -5.5284  -5.5281  -5.5277  -5.5275  -5.5268  -5.5261
    -5.5258  -5.4618  -5.4567  -5.4565  -5.4557  -5.4482  -5.4347  -5.4324
    -5.4107  -5.4068  -5.4062  -5.3999  -5.3980  -5.3975  -5.3788  -5.3682
    -5.3671  -5.3665  -5.3655  -5.3650  -5.3477  -5.3464  -5.3454  -5.3386
    -5.3285  -5.3283  -5.3280  -5.3276  -5.3274  -5.3271  -5.3269  -5.3267
    -5.3260  -5.3254  -5.3252  -5.3236  -5.3230  -5.3222  -5.3215  -5.3198
    -5.3195  -5.3141  -5.3114  -5.3109  -5.3073  -5.3021  -5.3008  -5.2733
    -5.2532  -5.2488  -5.2483  -5.2478  -5.2466  -5.2459  -5.2457  -5.2446
    -5.2441  -5.2427  -5.2225  -5.2106  -5.2020  -5.2017  -5.2015  -5.1999
    -5.1997  -5.1991  -5.1980  -5.1977  -5.1886  -5.1880  -5.1879  -5.1875
    -5.1873  -5.1869  -5.1829  -5.1778  -5.1770  -5.1766  -5.1759  -5.1751
    -5.1737  -5.1729  -5.1715  -5.1616  -5.1603  -5.1594  -5.1078  -5.1064
    -5.1060  -5.0507  -5.0390  -5.0373  -5.0364  -5.0353  -5.0345  -5.0342
    -5.0341  -5.0340  -5.0338  -5.0337  -5.0328  -4.9771  -4.9356  -4.9330
    -4.6896  -4.6775  -4.6754  -4.5005  -3.5839  -3.5506  -3.5317  -3.1750
    -3.1358  -3.1346  -3.1340  -3.1329  -3.1276  -3.0689  -2.9463  -2.9342
    -2.4289  -1.7929  -1.7912  -1.7890  -1.7871  -1.7769  -1.7148  -1.4227
    -1.4144  -1.3134   0.2291   0.2378   0.2464   0.2493   0.2508   0.2522
     0.2549   0.2668   0.4196   0.4437   0.4446   0.4493   0.9385   0.9406
     0.9416   1.4562   1.4597   1.4614   2.3886   2.3989   2.4591   2.5331
     2.7555   2.8081   2.9615   2.9630   2.9799   3.4792   3.5756   3.6157
     3.6261   4.0036   4.0081   4.0151   4.1177   4.2632   4.2716   4.2876
     4.2966   4.3025   4.3813   4.6905   4.7095   4.7160   4.7438   4.7622
     4.7630   4.7639   4.7652   4.7656   4.7947   4.9503   5.3300   5.3980
     5.4906   5.5558   5.6530   5.8041   5.8353   5.8552   5.8642   6.1521
     6.1645   6.1699   6.1718   6.1752   6.2013   6.3065   6.5096   6.5356
     6.6392   6.7906   6.8225   6.8666   6.9335   6.9671   6.9801   7.0036
     7.0129   7.0313   7.1311   7.2094   7.2889   7.3497   7.3612   7.4010
     7.4914   7.6732   7.6785   7.7018   8.1806   8.2519   8.2531   8.2565
     8.3109   8.3870   8.4104   8.4178   8.4218   8.4364   8.4601   8.5545
     8.5886   8.6759   8.7210   8.7744   8.7891   8.8060   8.8388   8.8516
     8.8633   8.8767   8.8844   8.8912   8.9500

     occupation numbers 
     1.0000   1.0000   1.0000   1.0000   1.0000   1.0000   1.0000   1.0000
     1.0000   1.0000   1.0000   1.0000   1.0000   1.0000   1.0000   1.0000
     1.0000   1.0000   1.0000   1.0000   1.0000   1.0000   1.0000   1.0000
     1.0000   1.0000   1.0000   1.0000   1.0000   1.0000   1.0000   1.0000
     1.0000   1.0000   1.0000   1.0000   1.0000   1.0000   1.0000   1.0000
     1.0000   1.0000   1.0000   1.0000   1.0000   1.0000   1.0000   1.0000
     1.0000   1.0000   1.0000   1.0000   1.0000   1.0000   1.0000   1.0000
     1.0000   1.0000   1.0000   1.0000   1.0000   1.0000   1.0000   1.0000
     1.0000   1.0000   1.0000   1.0000   1.0000   1.0000   1.0000   1.0000
     1.0000   1.0000   1.0000   1.0000   1.0000   1.0000   1.0000   1.0000
     1.0000   1.0000   1.0000   1.0000   1.0000   1.0000   1.0000   1.0000
     1.0000   1.0000   1.0000   1.0000   1.0000   1.0000   1.0000   1.0000
     1.0000   1.0000   1.0000   1.0000   1.0000   1.0000   1.0000   1.0000
     1.0000   1.0000   1.0000   1.0000   1.0000   1.0000   1.0000   1.0000
     1.0000   1.0000   1.0000   1.0000   1.0000   1.0000   1.0000   1.0000
     1.0000   1.0000   1.0000   1.0000   1.0000   1.0000   1.0000   1.0000
     1.0000   1.0000   1.0000   1.0000   1.0000   1.0000   1.0000   1.0000
     1.0000   1.0000   1.0000   1.0000   1.0000   1.0000   1.0000   1.0000
     1.0000   1.0000   1.0000   1.0000   1.0000   1.0000   1.0000   1.0000
     1.0000   1.0000   1.0000   1.0000   1.0000   1.0000   1.0000   1.0000
     1.0000   1.0000   1.0000   1.0000   1.0000   1.0000   1.0000   1.0000
     1.0000   1.0000   1.0000   1.0000   1.0000   1.0000   1.0000   1.0000
     1.0000   1.0000   1.0000   1.0000   1.0000   1.0000   1.0000   1.0000
     1.0000   1.0000   1.0000   1.0000   1.0000   1.0000   1.0000   1.0000
     1.0000   1.0000   1.0000   1.0000   1.0000   1.0000   1.0000   1.0000
     1.0000   1.0000   1.0000   1.0000   1.0000   1.0000   1.0000   1.0000
     1.0000   1.0000   1.0000   1.0000   1.0000   1.0000   1.0000   1.0000
     1.0000   1.0000   1.0000   1.0000   1.0000   1.0000   1.0000   1.0000
     1.0000   1.0000   1.0000   1.0000   1.0000   1.0000   1.0000   1.0000
     1.0000   1.0000   1.0000   1.0000   1.0000   1.0000   1.0000   1.0000
     1.0000   1.0000   1.0000   1.0000   1.0000   1.0000   1.0000   1.0000
     1.0000   1.0000   1.0000   1.0000   1.0000   1.0000   1.0000   1.0000
     1.0000   1.0000   1.0000   1.0000   1.0000   1.0000   1.0000   1.0000
     1.0000   1.0000   1.0000   1.0000   1.0000   1.0000   1.0000   1.0000
     1.0000   1.0000   1.0000   1.0000   1.0000   1.0000   1.0000   1.0000
     1.0000   1.0000   1.0000   1.0000   1.0000   1.0000   1.0000   1.0000
     1.0000   1.0000   1.0000   1.0000   1.0000   1.0000   1.0000   1.0000
     1.0000   1.0000   1.0000   1.0000   1.0000   1.0000   1.0000   1.0000
     1.0000   1.0000   1.0000   1.0000   1.0000   1.0000   1.0000   1.0000
     1.0000   1.0000   1.0000   1.0000   1.0000   1.0000   1.0000   1.0000
     1.0000   1.0000   1.0000   1.0000   1.0000   1.0000   1.0000   1.0000
     1.0000   1.0000   1.0000   1.0000   1.0000   1.0000   1.0000   1.0000
     1.0000   1.0000   1.0000   1.0000   1.0000   1.0000   1.0000   1.0000
     1.0000   1.0000   1.0000   1.0000   1.0000   1.0000   1.0000   1.0000
     1.0000   1.0000   1.0000   1.0000   1.0000   1.0000   1.0000   1.0000
     1.0000   1.0000   1.0000   1.0000   1.0000   1.0000   1.0000   1.0000
     1.0000   1.0000   1.0000   1.0000   1.0000   1.0000   1.0000   1.0000
     1.0000   1.0000   1.0000   1.0000   1.0000   1.0000   1.0000   1.0000
     1.0000   1.0000   1.0000   1.0000   1.0000   1.0000   1.0000   1.0000
     1.0000   1.0000   1.0000   1.0000   1.0000   1.0000   1.0000   1.0000
     1.0000   1.0000   1.0000   1.0000   1.0000   1.0000   1.0000   1.0000
     1.0000   1.0000   1.0000   1.0000   1.0000   1.0000   1.0000   1.0000
     1.0000   1.0000   1.0000   1.0000   1.0000   1.0000   1.0000   1.0000
     1.0000   1.0000   1.0000   1.0000   1.0000   1.0000   1.0000   1.0000
     1.0000   1.0000   1.0000   1.0000   1.0000   1.0000   1.0000   1.0000
     1.0000   1.0000   1.0000   1.0000   1.0000   1.0000   1.0000   1.0000
     1.0000   1.0000   1.0000   1.0000   1.0000   1.0000   1.0000   1.0000
     1.0000   1.0000   1.0000   1.0000   1.0000   1.0000   1.0000   1.0000
     1.0000   1.0000   1.0000   1.0000   1.0000   1.0000   1.0000   1.0000
     1.0000   1.0000   1.0000   1.0000   1.0000   1.0000   1.0045   1.0046
     1.0047   0.9623   0.9565   0.9534   0.0000   0.0000   0.0000   0.0000
     0.0000   0.0000   0.0000   0.0000   0.0000   0.0000   0.0000   0.0000
     0.0000   0.0000   0.0000   0.0000   0.0000   0.0000   0.0000   0.0000
     0.0000   0.0000   0.0000   0.0000   0.0000   0.0000   0.0000   0.0000
     0.0000   0.0000   0.0000   0.0000   0.0000   0.0000   0.0000   0.0000
     0.0000   0.0000   0.0000   0.0000   0.0000   0.0000   0.0000   0.0000
     0.0000   0.0000   0.0000   0.0000   0.0000   0.0000   0.0000   0.0000
     0.0000   0.0000   0.0000   0.0000   0.0000   0.0000   0.0000   0.0000
     0.0000   0.0000   0.0000   0.0000   0.0000   0.0000   0.0000   0.0000
     0.0000   0.0000   0.0000   0.0000   0.0000   0.0000   0.0000   0.0000
     0.0000   0.0000   0.0000   0.0000   0.0000   0.0000   0.0000   0.0000
     0.0000   0.0000   0.0000   0.0000   0.0000   0.0000   0.0000   0.0000
     0.0000   0.0000   0.0000   0.0000   0.0000

          k = 0.3333-0.1925 0.0000 ( 64840 PWs)   bands (ev):

  -124.7833-124.7824-124.7815-124.7811-124.7806-124.7802-124.7796-124.7793
  -124.7791-124.7785-124.7784-124.7782-124.7780-124.7774-124.7767-124.7761
  -124.6628-124.6613-124.6569-124.6561-124.6555-124.6546-124.6535-124.6531
  -124.6523-124.6521-124.6519-124.6516-124.6515-124.6512-124.6511-124.6500
  -124.6498-124.6495-124.6490-124.6489-124.6487-124.6484-124.6481-124.6478
  -124.6476-124.6475-124.6470-124.6464-124.6463-124.6401-124.6392-124.6164
   -78.9470 -78.9469 -78.9459 -78.9437 -78.9436 -78.9421 -78.9414 -78.9396
   -78.9389 -78.9385 -78.9349 -78.9348 -78.9329 -78.9320 -78.9317 -78.9315
   -78.9309 -78.9305 -78.9300 -78.9291 -78.9282 -78.9281 -78.9276 -78.9271
   -78.9268 -78.9268 -78.9267 -78.9264 -78.9263 -78.9260 -78.9259 -78.9256
   -78.9253 -78.9246 -78.9235 -78.9232 -78.9226 -78.9221 -78.9208 -78.9206
   -78.9192 -78.9188 -78.9183 -78.9163 -78.9157 -78.9142 -78.9139 -78.9122
   -78.8205 -78.8198 -78.8190 -78.8180 -78.8173 -78.8153 -78.8148 -78.8140
   -78.8140 -78.8137 -78.8135 -78.8130 -78.8127 -78.8120 -78.8111 -78.8109
   -78.8105 -78.8102 -78.8097 -78.8092 -78.8090 -78.8089 -78.8087 -78.8084
   -78.8082 -78.8079 -78.8077 -78.8075 -78.8073 -78.8071 -78.8071 -78.8067
   -78.8066 -78.8061 -78.8058 -78.8057 -78.8055 -78.8052 -78.8051 -78.8046
   -78.8044 -78.8043 -78.8041 -78.8038 -78.8034 -78.8033 -78.8032 -78.8031
   -78.8026 -78.8021 -78.8020 -78.8020 -78.8020 -78.8018 -78.8012 -78.7996
   -78.7991 -78.7985 -78.7980 -78.7966 -78.7959 -78.7956 -78.7954 -78.7947
   -78.7938 -78.7932 -78.7931 -78.7930 -78.7929 -78.7928 -78.7920 -78.7909
   -78.7903 -78.7902 -78.7898 -78.7896 -78.7893 -78.7879 -78.7878 -78.7878
   -78.7868 -78.7862 -78.7861 -78.7859 -78.7857 -78.7835 -78.7828 -78.7828
   -78.7813 -78.7813 -78.7811 -78.7796 -78.7776 -78.7701 -78.7689 -78.7608
   -20.4256  -8.1680  -7.9857  -7.3872  -6.9751  -6.8673  -6.8649  -6.7229
    -6.5774  -6.5444  -6.5321  -6.5320  -6.5215  -6.4599  -6.4339  -6.4334
    -6.4280  -6.4128  -6.3914  -6.3909  -6.3691  -6.3688  -6.3453  -6.3424
    -6.3255  -6.3253  -6.2836  -6.2830  -6.2616  -6.2606  -6.2468  -6.2463
    -6.2334  -6.2333  -6.2312  -6.2307  -6.2250  -6.2244  -6.2225  -6.2197
    -6.2196  -6.1753  -6.1748  -6.1663  -6.1659  -6.1319  -6.1311  -6.1262
    -6.1188  -6.1181  -6.1134  -6.1131  -6.0968  -6.0966  -6.0512  -6.0511
    -6.0489  -6.0448  -6.0439  -6.0206  -6.0202  -6.0173  -6.0171  -6.0035
    -5.9976  -5.9752  -5.9745  -5.9718  -5.9717  -5.9658  -5.9653  -5.9642
    -5.9571  -5.9570  -5.9253  -5.9251  -5.9223  -5.9221  -5.9201  -5.9195
    -5.9032  -5.8679  -5.8674  -5.8654  -5.8649  -5.8592  -5.8580  -5.8576
    -5.8406  -5.8336  -5.8320  -5.8246  -5.7862  -5.7856  -5.7851  -5.7844
    -5.7822  -5.7810  -5.7790  -5.7717  -5.7716  -5.7625  -5.7615  -5.7438
    -5.7413  -5.7288  -5.7227  -5.7120  -5.7017  -5.6996  -5.6878  -5.6873
    -5.6717  -5.6714  -5.6459  -5.6363  -5.6348  -5.6109  -5.6102  -5.6070
    -5.6059  -5.5956  -5.5921  -5.5905  -5.5779  -5.5733  -5.5726  -5.5597
    -5.5594  -5.5552  -5.5542  -5.5485  -5.5478  -5.5472  -5.5448  -5.5364
    -5.5354  -5.5217  -5.5215  -5.5181  -5.5124  -5.4921  -5.4859  -5.4841
    -5.4775  -5.4765  -5.4759  -5.4748  -5.4687  -5.4684  -5.4682  -5.4678
    -5.4675  -5.4672  -5.4358  -5.4312  -5.4287  -5.4253  -5.4205  -5.4203
    -5.4186  -5.4138  -5.4110  -5.4027  -5.4023  -5.3978  -5.3951  -5.3927
    -5.3677  -5.3630  -5.3597  -5.3591  -5.3467  -5.3411  -5.3398  -5.3395
    -5.3393  -5.3354  -5.3343  -5.3332  -5.3226  -5.3221  -5.3140  -5.3122
    -5.3111  -5.3096  -5.3076  -5.3065  -5.3054  -5.2963  -5.2959  -5.2938
    -5.2913  -5.2850  -5.2843  -5.2686  -5.2656  -5.2613  -5.2609  -5.2598
    -5.2484  -5.2446  -5.2398  -5.2288  -5.2276  -5.2266  -5.2252  -5.2230
    -5.2225  -5.2148  -5.2098  -5.2088  -5.2039  -5.1997  -5.1975  -5.1962
    -5.1957  -5.1952  -5.1904  -5.1861  -5.1803  -5.1668  -5.1620  -5.1584
    -5.1582  -5.1572  -5.1546  -5.1240  -5.1062  -5.1019  -5.0994  -5.0988
    -5.0806  -5.0789  -5.0776  -5.0773  -5.0770  -5.0760  -5.0551  -5.0544
    -5.0531  -4.9603  -4.9595  -4.9500  -4.9495  -4.9215  -4.9193  -4.8653
    -4.6694  -4.6410  -4.5923  -4.4547  -4.3499  -4.2267  -3.4429  -3.4176
    -3.4137  -3.3917  -3.2709  -2.9195  -2.8315  -2.5734  -2.3693  -2.3073
    -2.1959  -2.1181  -2.0133  -1.5780  -1.5756  -1.2539  -1.2046  -1.0847
    -1.0838  -1.0235  -0.7035  -0.2713  -0.2459  -0.2278  -0.0574  -0.0228
     0.1675   0.1707   0.3698   0.3707   0.5300   0.8525   1.1750   1.1767
     1.2394   1.2879   1.6500   1.6568   1.6930   1.7019   2.6091   2.6522
     2.7327   2.7343   2.9636   2.9735   3.1451   3.2701   3.3033   3.3251
     3.3452   3.7498   3.8066   3.8140   3.9134   3.9488   3.9767   3.9988
     4.3037   4.3730   4.4083   4.4363   4.4574   4.9116   4.9822   4.9880
     5.2194   5.2346   5.2874   5.4404   5.4494   5.4504   5.5246   5.5647
     5.6379   5.8803   5.8842   5.9625   6.0532   6.1408   6.2577   6.2793
     6.3346   6.3510   6.4073   6.4169   6.4358   6.4467   6.5251   6.5548
     6.6209   6.6646   6.6789   6.8281   6.8361   6.8733   6.9404   6.9521
     6.9634   7.0221   7.1330   7.2146   7.4557   7.5096   7.5500   7.5862
     7.6018   7.6192   7.7246   7.7747   7.8629   7.8710   8.0156   8.0488
     8.0537   8.0940   8.1411   8.1967   8.3057   8.4160   8.4417   8.4653
     8.4973   8.5279   8.7105   8.7500   8.7899   8.7987   8.8175   8.8283
     8.8546   8.8680   8.9004   8.9737   9.0486

     occupation numbers 
     1.0000   1.0000   1.0000   1.0000   1.0000   1.0000   1.0000   1.0000
     1.0000   1.0000   1.0000   1.0000   1.0000   1.0000   1.0000   1.0000
     1.0000   1.0000   1.0000   1.0000   1.0000   1.0000   1.0000   1.0000
     1.0000   1.0000   1.0000   1.0000   1.0000   1.0000   1.0000   1.0000
     1.0000   1.0000   1.0000   1.0000   1.0000   1.0000   1.0000   1.0000
     1.0000   1.0000   1.0000   1.0000   1.0000   1.0000   1.0000   1.0000
     1.0000   1.0000   1.0000   1.0000   1.0000   1.0000   1.0000   1.0000
     1.0000   1.0000   1.0000   1.0000   1.0000   1.0000   1.0000   1.0000
     1.0000   1.0000   1.0000   1.0000   1.0000   1.0000   1.0000   1.0000
     1.0000   1.0000   1.0000   1.0000   1.0000   1.0000   1.0000   1.0000
     1.0000   1.0000   1.0000   1.0000   1.0000   1.0000   1.0000   1.0000
     1.0000   1.0000   1.0000   1.0000   1.0000   1.0000   1.0000   1.0000
     1.0000   1.0000   1.0000   1.0000   1.0000   1.0000   1.0000   1.0000
     1.0000   1.0000   1.0000   1.0000   1.0000   1.0000   1.0000   1.0000
     1.0000   1.0000   1.0000   1.0000   1.0000   1.0000   1.0000   1.0000
     1.0000   1.0000   1.0000   1.0000   1.0000   1.0000   1.0000   1.0000
     1.0000   1.0000   1.0000   1.0000   1.0000   1.0000   1.0000   1.0000
     1.0000   1.0000   1.0000   1.0000   1.0000   1.0000   1.0000   1.0000
     1.0000   1.0000   1.0000   1.0000   1.0000   1.0000   1.0000   1.0000
     1.0000   1.0000   1.0000   1.0000   1.0000   1.0000   1.0000   1.0000
     1.0000   1.0000   1.0000   1.0000   1.0000   1.0000   1.0000   1.0000
     1.0000   1.0000   1.0000   1.0000   1.0000   1.0000   1.0000   1.0000
     1.0000   1.0000   1.0000   1.0000   1.0000   1.0000   1.0000   1.0000
     1.0000   1.0000   1.0000   1.0000   1.0000   1.0000   1.0000   1.0000
     1.0000   1.0000   1.0000   1.0000   1.0000   1.0000   1.0000   1.0000
     1.0000   1.0000   1.0000   1.0000   1.0000   1.0000   1.0000   1.0000
     1.0000   1.0000   1.0000   1.0000   1.0000   1.0000   1.0000   1.0000
     1.0000   1.0000   1.0000   1.0000   1.0000   1.0000   1.0000   1.0000
     1.0000   1.0000   1.0000   1.0000   1.0000   1.0000   1.0000   1.0000
     1.0000   1.0000   1.0000   1.0000   1.0000   1.0000   1.0000   1.0000
     1.0000   1.0000   1.0000   1.0000   1.0000   1.0000   1.0000   1.0000
     1.0000   1.0000   1.0000   1.0000   1.0000   1.0000   1.0000   1.0000
     1.0000   1.0000   1.0000   1.0000   1.0000   1.0000   1.0000   1.0000
     1.0000   1.0000   1.0000   1.0000   1.0000   1.0000   1.0000   1.0000
     1.0000   1.0000   1.0000   1.0000   1.0000   1.0000   1.0000   1.0000
     1.0000   1.0000   1.0000   1.0000   1.0000   1.0000   1.0000   1.0000
     1.0000   1.0000   1.0000   1.0000   1.0000   1.0000   1.0000   1.0000
     1.0000   1.0000   1.0000   1.0000   1.0000   1.0000   1.0000   1.0000
     1.0000   1.0000   1.0000   1.0000   1.0000   1.0000   1.0000   1.0000
     1.0000   1.0000   1.0000   1.0000   1.0000   1.0000   1.0000   1.0000
     1.0000   1.0000   1.0000   1.0000   1.0000   1.0000   1.0000   1.0000
     1.0000   1.0000   1.0000   1.0000   1.0000   1.0000   1.0000   1.0000
     1.0000   1.0000   1.0000   1.0000   1.0000   1.0000   1.0000   1.0000
     1.0000   1.0000   1.0000   1.0000   1.0000   1.0000   1.0000   1.0000
     1.0000   1.0000   1.0000   1.0000   1.0000   1.0000   1.0000   1.0000
     1.0000   1.0000   1.0000   1.0000   1.0000   1.0000   1.0000   1.0000
     1.0000   1.0000   1.0000   1.0000   1.0000   1.0000   1.0000   1.0000
     1.0000   1.0000   1.0000   1.0000   1.0000   1.0000   1.0000   1.0000
     1.0000   1.0000   1.0000   1.0000   1.0000   1.0000   1.0000   1.0000
     1.0000   1.0000   1.0000   1.0000   1.0000   1.0000   1.0000   1.0000
     1.0000   1.0000   1.0000   1.0000   1.0000   1.0000   1.0000   1.0000
     1.0000   1.0000   1.0000   1.0000   1.0000   1.0000   1.0000   1.0000
     1.0000   1.0000   1.0000   1.0000   1.0000   1.0000   1.0000   1.0000
     1.0000   1.0000   1.0000   1.0000   1.0000   1.0000   1.0000   1.0000
     1.0000   1.0000   1.0000   1.0000   1.0000   1.0000   1.0000   1.0000
     1.0000   1.0000   1.0000   1.0000   1.0000   1.0000   1.0000   1.0000
     1.0000   1.0000   1.0000   1.0000   1.0000   1.0000   1.0000   1.0000
     1.0000   1.0000   1.0000   1.0000   1.0000   1.0000   1.0000   1.0000
     1.0000   1.0000   1.0000   1.0000   1.0000   1.0000   1.0000   1.0000
     1.0000   1.0000   1.0000   1.0000   1.0000   1.0012   1.0537   1.0543
     1.0745   1.0830   0.4847   0.4667   0.3741   0.3526   0.0000   0.0000
     0.0000   0.0000   0.0000   0.0000   0.0000   0.0000   0.0000   0.0000
     0.0000   0.0000   0.0000   0.0000   0.0000   0.0000   0.0000   0.0000
     0.0000   0.0000   0.0000   0.0000   0.0000   0.0000   0.0000   0.0000
     0.0000   0.0000   0.0000   0.0000   0.0000   0.0000   0.0000   0.0000
     0.0000   0.0000   0.0000   0.0000   0.0000   0.0000   0.0000   0.0000
     0.0000   0.0000   0.0000   0.0000   0.0000   0.0000   0.0000   0.0000
     0.0000   0.0000   0.0000   0.0000   0.0000   0.0000   0.0000   0.0000
     0.0000   0.0000   0.0000   0.0000   0.0000   0.0000   0.0000   0.0000
     0.0000   0.0000   0.0000   0.0000   0.0000   0.0000   0.0000   0.0000
     0.0000   0.0000   0.0000   0.0000   0.0000   0.0000   0.0000   0.0000
     0.0000   0.0000   0.0000   0.0000   0.0000   0.0000   0.0000   0.0000
     0.0000   0.0000   0.0000   0.0000   0.0000

     the Fermi energy is     1.6823 ev

!    total energy              =  -22198.29842962 Ry
     estimated scf accuracy    <       0.00000046 Ry
     smearing contrib. (-TS)   =      -0.00879054 Ry
     internal energy E=F+TS    =  -22198.28963908 Ry

     The total energy is F=E-TS. E is the sum of the following terms:
     one-electron contribution = -141562.18138752 Ry
     hartree contribution      =   70725.58753294 Ry
     xc contribution           =   -2032.60126718 Ry
     ewald contribution        =   50680.41709007 Ry
     one-center paw contrib.   =      -9.51160738 Ry
      -> PAW hartree energy AE =       0.00000000 Ry
      -> PAW hartree energy PS =       0.00000000 Ry
      -> PAW xc energy AE      =       0.00000000 Ry
[...]
     atom   40 type  1   force =     0.00000000    0.00000000    0.00000000
     atom   41 type  1   force =     0.00000000    0.00000000    0.00000000
     atom   42 type  1   force =     0.00000000    0.00000000    0.00000000
     atom   43 type  1   force =     0.00000000    0.00000000    0.00000000
     atom   44 type  1   force =     0.00000000    0.00000000    0.00000000
     atom   45 type  1   force =     0.00000000    0.00000000    0.00000000
     atom   46 type  1   force =     0.00000000    0.00000000    0.00000000
     atom   47 type  1   force =     0.00000000    0.00000000    0.00000000
     atom   48 type  1   force =     0.00000000    0.00000000    0.00000000
     atom   49 type  2   force =    -0.00046127    0.02211807   -0.00700186
     atom   50 type  3   force =     0.00000000    0.00000000    0.00000000
     atom   51 type  3   force =     0.00000000    0.00000000    0.00000000
     The Hubbard contrib.    to forces
     atom    1 type  1   force =     0.00000000    0.00000000    0.00000000
     atom    2 type  1   force =     0.00000000    0.00000000    0.00000000
     atom    3 type  1   force =     0.00000000    0.00000000    0.00000000
     atom    4 type  1   force =     0.00000000    0.00000000    0.00000000
     atom    5 type  1   force =     0.00000000    0.00000000    0.00000000
     atom    6 type  1   force =     0.00000000    0.00000000    0.00000000
     atom    7 type  1   force =     0.00000000    0.00000000    0.00000000
     atom    8 type  1   force =     0.00000000    0.00000000    0.00000000
     atom    9 type  1   force =     0.00000000    0.00000000    0.00000000
     atom   10 type  1   force =     0.00000000    0.00000000    0.00000000
     atom   11 type  1   force =     0.00000000    0.00000000    0.00000000
     atom   12 type  1   force =     0.00000000    0.00000000    0.00000000
     atom   13 type  1   force =     0.00000000    0.00000000    0.00000000
     atom   14 type  1   force =     0.00000000    0.00000000    0.00000000
     atom   15 type  1   force =     0.00000000    0.00000000    0.00000000
     atom   16 type  1   force =     0.00000000    0.00000000    0.00000000
     atom   17 type  1   force =     0.00000000    0.00000000    0.00000000
     atom   18 type  1   force =     0.00000000    0.00000000    0.00000000
     atom   19 type  1   force =     0.00000000    0.00000000    0.00000000
     atom   20 type  1   force =     0.00000000    0.00000000    0.00000000
     atom   21 type  1   force =     0.00000000    0.00000000    0.00000000
     atom   22 type  1   force =     0.00000000    0.00000000    0.00000000
     atom   23 type  1   force =     0.00000000    0.00000000    0.00000000
     atom   24 type  1   force =     0.00000000    0.00000000    0.00000000
     atom   25 type  1   force =     0.00000000    0.00000000    0.00000000
     atom   26 type  1   force =     0.00000000    0.00000000    0.00000000
     atom   27 type  1   force =     0.00000000    0.00000000    0.00000000
     atom   28 type  1   force =     0.00000000    0.00000000    0.00000000
     atom   29 type  1   force =     0.00000000    0.00000000    0.00000000
     atom   30 type  1   force =     0.00000000    0.00000000    0.00000000
     atom   31 type  1   force =     0.00000000    0.00000000    0.00000000
     atom   32 type  1   force =     0.00000000    0.00000000    0.00000000
     atom   33 type  1   force =     0.00000000    0.00000000    0.00000000
     atom   34 type  1   force =     0.00000000    0.00000000    0.00000000
     atom   35 type  1   force =     0.00000000    0.00000000    0.00000000
     atom   36 type  1   force =     0.00000000    0.00000000    0.00000000
     atom   37 type  1   force =     0.00000000    0.00000000    0.00000000
     atom   38 type  1   force =     0.00000000    0.00000000    0.00000000
     atom   39 type  1   force =     0.00000000    0.00000000    0.00000000
     atom   40 type  1   force =     0.00000000    0.00000000    0.00000000
     atom   41 type  1   force =     0.00000000    0.00000000    0.00000000
     atom   42 type  1   force =     0.00000000    0.00000000    0.00000000
     atom   43 type  1   force =     0.00000000    0.00000000    0.00000000
     atom   44 type  1   force =     0.00000000    0.00000000    0.00000000
     atom   45 type  1   force =     0.00000000    0.00000000    0.00000000
     atom   46 type  1   force =     0.00000000    0.00000000    0.00000000
     atom   47 type  1   force =     0.00000000    0.00000000    0.00000000
     atom   48 type  1   force =     0.00000000    0.00000000    0.00000000
     atom   49 type  2   force =     0.00000000    0.00000000    0.00000000
     atom   50 type  3   force =     0.00000000    0.00000000    0.00000000
     atom   51 type  3   force =     0.00000000    0.00000000    0.00000000
     The SCF correction term to forces
     atom    1 type  1   force =    -0.00000000   -0.00000000    0.00000000
     atom    2 type  1   force =     0.00000000   -0.00000000    0.00000000
     atom    3 type  1   force =     0.00000589   -0.00003662   -0.00002689
     atom    4 type  1   force =    -0.00000272    0.00002403   -0.00003048
     atom    5 type  1   force =    -0.00000000   -0.00000000    0.00000000
     atom    6 type  1   force =     0.00000000   -0.00000000    0.00000000
     atom    7 type  1   force =     0.00003298   -0.00000410    0.00000194
     atom    8 type  1   force =     0.00000079    0.00003645   -0.00005082
     atom    9 type  1   force =     0.00000000    0.00000000    0.00000000
     atom   10 type  1   force =    -0.00000000    0.00000000    0.00000000
     atom   11 type  1   force =    -0.00004653    0.00004644   -0.00000921
     atom   12 type  1   force =     0.00005192   -0.00000548    0.00008129
     atom   13 type  1   force =     0.00000000    0.00000000    0.00000000
     atom   14 type  1   force =    -0.00000000    0.00000000    0.00000000
     atom   15 type  1   force =    -0.00006208   -0.00000975   -0.00003289
     atom   16 type  1   force =     0.00005722   -0.00002714   -0.00005917
     atom   17 type  1   force =    -0.00000000   -0.00000000    0.00000000
     atom   18 type  1   force =     0.00000000    0.00000000    0.00000000
     atom   19 type  1   force =     0.00001537    0.00005626   -0.00002069
     atom   20 type  1   force =    -0.00001136   -0.00007178   -0.00002340
     atom   21 type  1   force =    -0.00000000   -0.00000000    0.00000000
     atom   22 type  1   force =     0.00000000   -0.00000000    0.00000000
     atom   23 type  1   force =     0.00007496    0.00001749   -0.00004277
     atom   24 type  1   force =    -0.00008781    0.00001264   -0.00001186
     atom   25 type  1   force =    -0.00000000    0.00000000    0.00000000
     atom   26 type  1   force =     0.00000000    0.00000000    0.00000000
     atom   27 type  1   force =     0.00008714    0.00004088   -0.00003530
     atom   28 type  1   force =    -0.00006611    0.00001816   -0.00005152
     atom   29 type  1   force =    -0.00000000    0.00000000    0.00000000
     atom   30 type  1   force =     0.00000000    0.00000000    0.00000000
     atom   31 type  1   force =     0.00003437    0.00002420   -0.00002138
     atom   32 type  1   force =    -0.00001530   -0.00005462   -0.00006792
     atom   33 type  1   force =    -0.00002511   -0.00003897   -0.00003729
     atom   34 type  1   force =     0.00002802   -0.00002258   -0.00004474
     atom   35 type  1   force =    -0.00000977   -0.00004693   -0.00004292
     atom   36 type  1   force =     0.00001588   -0.00003313    0.00001024
     atom   37 type  1   force =     0.00000234    0.00001554   -0.00007510
     atom   38 type  1   force =     0.00001499    0.00002723    0.00008875
     atom   39 type  1   force =    -0.00001361    0.00002136   -0.00006323
     atom   40 type  1   force =     0.00001766    0.00005451    0.00004022
     atom   41 type  1   force =     0.00002752   -0.00002242   -0.00003317
     atom   42 type  1   force =    -0.00002194   -0.00003885   -0.00004609
     atom   43 type  1   force =     0.00001443   -0.00001732    0.00004610
     atom   44 type  1   force =    -0.00001103   -0.00007085   -0.00010659
     atom   45 type  1   force =     0.00001750    0.00002279    0.00003752
     atom   46 type  1   force =    -0.00002279    0.00002007   -0.00002182
     atom   47 type  1   force =     0.00002032    0.00004720   -0.00003715
     atom   48 type  1   force =    -0.00001379    0.00002815    0.00001200
     atom   49 type  2   force =     0.00004889   -0.00011667    0.00003101
     atom   50 type  3   force =    -0.00000457   -0.00000088   -0.00000388
     atom   51 type  3   force =     0.00000713   -0.00000382    0.00000029

     Total force =     0.001294     Total SCF correction =     0.000420
     SCF correction compared to forces is large: reduce conv_thr to get better values


     Computing stress (Cartesian axis) and pressure


     negative rho (up, down):  5.653E-03 0.000E+00
          total   stress  (Ry/bohr**3)                   (kbar)     P=       -3.14
  -0.00003063  -0.00000000  -0.00000004           -4.51       -0.00       -0.01
  -0.00000000  -0.00003108  -0.00000093           -0.00       -4.57       -0.14
  -0.00000004  -0.00000093  -0.00000225           -0.01       -0.14       -0.33

     kinetic stress (kbar)  12562.42     -0.10      0.45
                               -0.10  12576.46      5.43
                                0.45      5.43  12664.31

     local   stress (kbar)**********     -2.43      1.40
                               -2.43**********     53.84
                                1.40     53.841216664.24

     nonloc. stress (kbar)  -1287.08      0.02      0.02
                                0.02  -1286.97      0.32
                                0.02      0.32  -1334.27

     hartree stress (kbar) 628261.62      0.98     -0.40
                                0.98 628253.58    -19.69
                               -0.40    -19.69-572259.38

     exc-cor stress (kbar)  -6303.51      0.00     -0.01
                                0.00  -6303.68     -0.08
                               -0.01     -0.08  -6313.37

     corecor stress (kbar)     -4.10      0.00     -0.00
                                0.00     -4.13     -0.01
                               -0.00     -0.01     -4.15

     ewald   stress (kbar) 569705.00      1.53     -1.47
                                1.53 569659.91    -39.96
                               -1.47    -39.96-649417.70

     hubbard stress (kbar)      0.00      0.00      0.00
                                0.00      0.00      0.00
                                0.00      0.00      0.00

     DFT-D   stress (kbar)      0.00      0.00      0.00
                                0.00      0.00      0.00
                                0.00      0.00      0.00

     XDM     stress (kbar)      0.00      0.00      0.00
                                0.00      0.00      0.00
                                0.00      0.00      0.00

     dft-nl  stress (kbar)      0.00      0.00      0.00
                                0.00      0.00      0.00
                                0.00      0.00      0.00

     TS-vdW  stress (kbar)      0.00      0.00      0.00
                                0.00      0.00      0.00
                                0.00      0.00      0.00

     MDB     stress (kbar)      0.00      0.00      0.00
                                0.00      0.00      0.00
                                0.00      0.00      0.00

     3D-RISM stress (kbar)      0.00      0.00      0.00
                                0.00      0.00      0.00
                                0.00      0.00      0.00

     Energy error            =      3.0E-06 Ry
     Gradient error          =      4.4E-04 Ry/Bohr

     bfgs converged in  40 scf cycles and  39 bfgs steps
     (criteria: energy <  1.0E-05 Ry, force <  5.0E-04 Ry/Bohr)

     End of BFGS Geometry Optimization

     Final energy             =  -22198.3040847428 Ry

     File ./tmp/Zn002_3layer_H2O_relax.bfgs deleted, as requested
Begin final coordinates

ATOMIC_POSITIONS (angstrom)
Zn               0.0000000000        1.5094010000        1.2182900000    0   0   0
Zn               5.2287200000        1.5094010000        1.2182900000    0   0   0
Zn               0.0002549034        1.5173447393        6.2607043310
Zn               5.2299275832        1.5179648092        6.2611791019
Zn              -1.3071800000        3.7735030000        1.2182900000    0   0   0
Zn               3.9215400000        3.7735030000        1.2182900000    0   0   0
Zn              -1.3058529755        3.7829757418        6.2590679922
Zn               3.9195563997        3.7894696698        6.2292010848
Zn              -2.6143600000        6.0376050000        1.2182900000    0   0   0
Zn               2.6143600000        6.0376050000        1.2182900000    0   0   0
Zn              -2.6140501997        6.0477532919        6.2612236614
Zn               2.6138257075        6.0504208649        6.6203649906
Zn              -3.9215400000        8.3017080000        1.2182900000    0   0   0
Zn               1.3071800000        8.3017080000        1.2182900000    0   0   0
Zn              -3.9213779982        8.3106869172        6.2561802630
Zn               1.3135954725        8.3033812990        6.2474069549
Zn               2.6143600000        1.5094010000        1.2182900000    0   0   0
Zn               7.8430800000        1.5094010000        1.2182900000    0   0   0
Zn               2.6152234486        1.5180755495        6.2600378602
Zn               7.8442255857        1.5162330683        6.2566727504
Zn               1.3071800000        3.7735030000        1.2182900000    0   0   0
Zn               6.5359000000        3.7735030000        1.2182900000    0   0   0
Zn               1.3124441561        3.7884902875        6.2274977294
Zn               6.5368479346        3.7830815071        6.2600960044
Zn               0.0000000000        6.0376050000        1.2182900000    0   0   0
Zn               5.2287200000        6.0376050000        1.2182900000    0   0   0
Zn               0.0097402204        6.0472667727        6.2351626923
Zn               5.2202873211        6.0474468754        6.2379777044
Zn              -1.3071800000        8.3017080000        1.2182900000    0   0   0
Zn               3.9215400000        8.3017080000        1.2182900000    0   0   0
Zn              -1.3053099419        8.3107180363        6.2552949709
Zn               3.9185006226        8.3023236949        6.2494181932
Zn               1.3091041999        0.7590863678        3.7334172817
Zn               6.5391637510        0.7576331689        3.7366598474
Zn               0.0014237961        3.0258972398        3.7394823342
Zn               5.2300923005        3.0264916889        3.7402196103
Zn              -1.3036821767        5.2877873229        3.7400939920
Zn               3.9169294579        5.2926569677        3.7515598427
Zn              -2.6133827712        7.5530700721        3.7327252571
Zn               2.6162904695        7.5452969287        3.7449451331
Zn               3.9222656562        0.7595156793        3.7334113304
Zn               9.1501445871        0.7571607994        3.7369968601
Zn               2.6161561213        3.0270544461        3.7424082030
Zn               7.8442475390        3.0240263460        3.7334354970
Zn               1.3154163530        5.2925475467        3.7490930435
Zn               6.5345216301        5.2880685968        3.7416347281
Zn               0.0047834407        7.5508033996        3.7430648457
Zn               5.2267303945        7.5504061133        3.7450541158
O                2.6255704208        5.9664780980        9.1355209597
H                3.4096561666        5.4216598680        9.3287686399
H                1.8672634391        5.3989340482        9.3630602355
End final coordinates



     Writing all to output data dir ./tmp/Zn002_3layer_H2O_relax.save/ :
     XML data file, charge density, pseudopotentials, collected wavefunctions

     init_run     :     66.96s CPU     67.42s WALL (       1 calls)
     electrons    :  83290.15s CPU  83934.49s WALL (      40 calls)
     update_pot   :      5.21s CPU      5.41s WALL (      39 calls)
     forces       :   2354.28s CPU   2371.43s WALL (      40 calls)
     stress       :   5539.12s CPU   5570.60s WALL (      40 calls)

     Called by init_run:
     wfcinit      :     65.45s CPU     65.85s WALL (       1 calls)
     wfcinit:atom :      0.07s CPU      0.09s WALL (       5 calls)
     wfcinit:wfcr :     64.81s CPU     65.13s WALL (       5 calls)
     potinit      :      0.12s CPU      0.13s WALL (       1 calls)
     hinit0       :      0.06s CPU      0.07s WALL (       1 calls)

     Called by electrons:
     c_bands      :  77432.96s CPU  78010.52s WALL (     333 calls)
     sum_band     :   5514.33s CPU   5560.77s WALL (     333 calls)
     v_of_rho     :     24.11s CPU     25.17s WALL (     334 calls)
     v_h          :      1.65s CPU      1.77s WALL (     334 calls)
     v_xc         :     27.76s CPU     29.10s WALL (     414 calls)
     newd         :    343.60s CPU    361.55s WALL (     334 calls)
     PAW_pot      :     13.08s CPU     13.15s WALL (     373 calls)
     mix_rho      :      2.87s CPU      3.15s WALL (     333 calls)

     Called by c_bands:
     init_us_2    :     97.87s CPU     98.25s WALL (    3930 calls)
     cegterg      :  77281.92s CPU  77856.47s WALL (    1665 calls)

     Called by sum_band:
     sum_band:wei :      0.79s CPU      0.83s WALL (     333 calls)
     sum_band:loo :   5188.10s CPU   5213.59s WALL (     333 calls)
     sum_band:buf :     16.98s CPU     17.55s WALL (    1665 calls)
     sum_band:ini :     42.27s CPU     42.42s WALL (    1665 calls)
     sum_band:cal :   5019.94s CPU   5041.83s WALL (    1860 calls)
     sum_band:bec :     38.82s CPU     38.93s WALL (    1860 calls)
     addusdens    :    320.56s CPU    340.89s WALL (     333 calls)
                                        0.00s GPU  (     333 calls)
     addusd:skk   :      3.62s CPU      4.79s WALL (     999 calls)
                                        0.00s GPU  (     999 calls)

     Called by *egterg:
     cdiaghg      :   3358.89s CPU   3483.34s WALL (    5891 calls)
     cegterg:over :  11138.09s CPU  11178.66s WALL (    4616 calls)
     cegterg:upda :   4548.80s CPU   4588.08s WALL (    4616 calls)
     cegterg:last :  23769.44s CPU  23897.63s WALL (    3464 calls)
     cdiaghg:chol :    241.58s CPU    242.23s WALL (    5891 calls)
     cdiaghg:inve :     35.98s CPU     36.08s WALL (    5891 calls)
     cdiaghg:para :    898.47s CPU    916.01s WALL (   11782 calls)
     h_psi        :  22066.71s CPU  22184.05s WALL (    6286 calls)
     s_psi        :   9426.10s CPU   9449.44s WALL (    6286 calls)
     g_psi        :      8.78s CPU      8.86s WALL (    4616 calls)

     Called by h_psi:
     h_psi:calbec :  10007.65s CPU  10052.55s WALL (    6286 calls)
     vloc_psi     :   2505.44s CPU   2525.73s WALL (    6286 calls)
     add_vuspsi   :   9539.90s CPU   9564.07s WALL (    6286 calls)

     General routines
     calbec       :  17697.15s CPU  17775.58s WALL (    9146 calls)
     fft          :     16.73s CPU     18.78s WALL (    5340 calls)
     ffts         :      0.67s CPU      0.76s WALL (     667 calls)
     fftw         :   2693.67s CPU   2714.71s WALL ( 5276871 calls)
     interpolate  :      1.42s CPU      1.56s WALL (     334 calls)

     Parallel routines

     PAW routines
     PAW_pot      :     13.08s CPU     13.15s WALL (     373 calls)

     PWSCF        :   1d 1h30m CPU   1d 1h42m WALL


   This run was terminated on:   2:24:40  29Mar2025            

=------------------------------------------------------------------------------=
   JOB DONE.
=------------------------------------------------------------------------------=
