--------------------------------------------------------------------------
By default, for Open MPI 4.0 and later, infiniband ports on a device
are not used by default.  The intent is to use UCX for these devices.
You can override this policy by setting the btl_openib_allow_ib MCA parameter
to true.

  Local host:              psid09
  Local adapter:           mlx4_0
  Local port:              1

--------------------------------------------------------------------------
--------------------------------------------------------------------------
WARNING: There was an error initializing an OpenFabrics device.

  Local host:   psid09
  Local device: mlx4_0
--------------------------------------------------------------------------

     Program PWSCF v.7.3.1 starts on 22Mar2025 at 11:35: 0 

     This program is part of the open-source Quantum ESPRESSO suite
     for quantum simulation of materials; please cite
         "P. Giannozzi et al., J. Phys.:Condens. Matter 21 395502 (2009);
         "P. Giannozzi et al., J. Phys.:Condens. Matter 29 465901 (2017);
         "P. Giannozzi et al., J. Chem. Phys. 152 154105 (2020);
          URL http://www.quantum-espresso.org", 
     in publications or presentations arising from this work. More details at
     http://www.quantum-espresso.org/quote

     Parallel version (MPI), running on    34 processors

     MPI processes distributed on     1 nodes
     121693 MiB available memory on the printing compute node when the environment starts

     Waiting for input...
     Reading input from standard input
Warning: card &CELL ignored
Warning: card   CELL_DOFREE = 'ALL' ignored
Warning: card / ignored

     Current dimensions of program PWSCF are:
     Max number of different atomic species (ntypx) = 10
     Max number of k-points (npk) =  40000
     Max angular momentum in pseudopotentials (lmaxx) =  4
     Message from routine input:
     WARNING: "startingwfc" set to atomic+random may spoil restart
     Message from routine input:
     WARNING: "startingpot" set to atomic may spoil restart
     Message from routine iosys:
     restart disabled: needed files not found
     file O.pbe-n-kjpaw_psl.0.1.UPF: wavefunction(s)  2P renormalized

     Atomic positions and unit cell read from directory:
     ./tmp/Zn002_optimized_topsite_H2O_scf.save/
     Message from routine qexsd_readschema :
     xml data file ./tmp/Zn002_optimized_topsite_H2O_scf.save/data-file-schema.xml no
     Nothing found: using input atomic positions and unit cell


     R & G space division:  proc/nbgrp/npool/nimage =      34
     Subspace diagonalization in iterative solution of the eigenvalue problem:
     one sub-group per band group will be used
     custom distributed-memory algorithm (size of sub-group:  5*  5 procs)


     Parallelization info
     --------------------
     sticks:   dense  smooth     PW     G-vecs:    dense   smooth      PW
     Min         158     158     41                21318    21318    2903
     Max         159     159     42                21327    21327    2916
     Sum        5389    5389   1417               724931   724931   99009

     Using Slab Decomposition



     bravais-lattice index     =            0
     lattice parameter (alat)  =      19.7617  a.u.
     unit-cell volume          =   15176.5939 (a.u.)^3
     number of atoms/cell      =           67
     number of atomic types    =            3
     number of electrons       =      1288.00
     number of Kohn-Sham states=          773
     kinetic-energy cutoff     =      50.0000  Ry
     charge density cutoff     =     200.0000  Ry
     scf convergence threshold =      7.3E-07
     mixing beta               =       0.7000
     number of iterations used =            8  plain     mixing
     Exchange-correlation= PBE
                           (   1   4   3   4   0   0   0)

     celldm(1)=  19.761696  celldm(2)=   0.000000  celldm(3)=   0.000000
     celldm(4)=   0.000000  celldm(5)=   0.000000  celldm(6)=   0.000000

     crystal axes: (cart. coord. in units of alat)
               a(1) = (   1.000000   0.000000   0.000000 )  
               a(2) = (  -0.500000   0.866025   0.000000 )  
               a(3) = (   0.000000   0.000000   2.270759 )  

     reciprocal axes: (cart. coord. in units 2 pi/alat)
               b(1) = (  1.000000  0.577350 -0.000000 )  
               b(2) = (  0.000000  1.154701  0.000000 )  
               b(3) = (  0.000000 -0.000000  0.440381 )  


     PseudoPot. # 1 for Zn read from file:
     /home/ys/qepseudo/SSSP_1.3.0_PBE_efficiency/Zn_pbe_v1.uspp.F.UPF
     MD5 check sum: df62231357ef9e81f77b2b3087fa5675
     Pseudo is Ultrasoft, Zval = 20.0
     Generated by new atomic code, or converted to UPF format
     Using radial grid of  943 points,  6 beta functions with: 
                l(1) =   0
                l(2) =   0
                l(3) =   1
                l(4) =   1
                l(5) =   2
                l(6) =   2
     Q(r) pseudized with  8 coefficients,  rinner =    1.100   1.100   1.100
                                                       1.100   1.100

     PseudoPot. # 2 for O  read from file:
     /home/ys/qepseudo/SSSP_1.3.0_PBE_efficiency/O.pbe-n-kjpaw_psl.0.1.UPF
     MD5 check sum: 0234752ac141de4415c5fc33072bef88
     Pseudo is Projector augmented-wave + core cor, Zval =  6.0
     Generated using "atomic" code by A. Dal Corso  v.5.0.99 svn rev. 10869
     Shape of augmentation charge: BESSEL
     Using radial grid of 1095 points,  4 beta functions with: 
                l(1) =   0
                l(2) =   0
                l(3) =   1
                l(4) =   1
     Q(r) pseudized with 0 coefficients 


     PseudoPot. # 3 for H  read from file:
     /home/ys/qepseudo/SSSP_1.3.0_PBE_efficiency/H.pbe-rrkjus_psl.1.0.0.UPF
     MD5 check sum: f52b6d4d1c606e5624b1dc7b2218f220
     Pseudo is Ultrasoft, Zval =  1.0
     Generated using "atomic" code by A. Dal Corso  v.5.1
     Using radial grid of  929 points,  2 beta functions with: 
                l(1) =   0
                l(2) =   0
     Q(r) pseudized with 0 coefficients 


     atomic species   valence    mass     pseudopotential
     Zn               20.00    65.38000     Zn( 1.00)
     O                 6.00    16.00000     O ( 1.00)
     H                 1.00     1.00800     H ( 1.00)

     No symmetry found


                                    s                        frac. trans.

      isym =  1     identity                                     

 cryst.   s( 1) = (     1          0          0      )
                  (     0          1          0      )
                  (     0          0          1      )

 cart.    s( 1) = (  1.0000000  0.0000000  0.0000000 )
                  (  0.0000000  1.0000000  0.0000000 )
                  (  0.0000000  0.0000000  1.0000000 )


   Cartesian axes

     site n.     atom                  positions (alat units)
         1        Zn     tau(   1) = (  -0.0000000   0.1443376   0.1164999  )
         2        Zn     tau(   2) = (   0.5000000   0.1443376   0.1164999  )
         3        Zn     tau(   3) = (   0.0001063   0.1443772   0.5902127  )
         4        Zn     tau(   4) = (   0.4998958   0.1443643   0.5917156  )
         5        Zn     tau(   5) = (  -0.1250000   0.3608439   0.1164999  )
         6        Zn     tau(   6) = (   0.3750000   0.3608439   0.1164999  )
         7        Zn     tau(   7) = (  -0.1249761   0.3609302   0.5908726  )
         8        Zn     tau(   8) = (   0.3749642   0.3608477   0.5913644  )
         9        Zn     tau(   9) = (  -0.2500000   0.5773503   0.1164999  )
        10        Zn     tau(  10) = (   0.2500000   0.5773503   0.1164999  )
        11        Zn     tau(  11) = (  -0.2499911   0.5773738   0.5915504  )
        12        Zn     tau(  12) = (   0.2499824   0.5772583   0.5907382  )
        13        Zn     tau(  13) = (  -0.3750000   0.7938566   0.1164999  )
        14        Zn     tau(  14) = (   0.1250000   0.7938566   0.1164999  )
        15        Zn     tau(  15) = (  -0.3749161   0.7938269   0.5909604  )
        16        Zn     tau(  16) = (   0.1249053   0.7937898   0.5911170  )
        17        Zn     tau(  17) = (   0.2500000   0.1443376   0.1164999  )
        18        Zn     tau(  18) = (   0.7500000   0.1443376   0.1164999  )
        19        Zn     tau(  19) = (   0.2499566   0.1443139   0.5910485  )
        20        Zn     tau(  20) = (   0.7500401   0.1444360   0.5909256  )
        21        Zn     tau(  21) = (   0.1250000   0.3608439   0.1164999  )
        22        Zn     tau(  22) = (   0.6250000   0.3608439   0.1164999  )
        23        Zn     tau(  23) = (   0.1249684   0.3608327   0.5904686  )
        24        Zn     tau(  24) = (   0.6250220   0.3609386   0.5917101  )
        25        Zn     tau(  25) = (  -0.0000000   0.5773503   0.1164999  )
        26        Zn     tau(  26) = (   0.5000000   0.5773503   0.1164999  )
        27        Zn     tau(  27) = (  -0.0000983   0.5773031   0.5910657  )
        28        Zn     tau(  28) = (   0.5000885   0.5773473   0.5912976  )
        29        Zn     tau(  29) = (  -0.1250000   0.7938566   0.1164999  )
        30        Zn     tau(  30) = (   0.3750000   0.7938566   0.1164999  )
        31        Zn     tau(  31) = (  -0.1251014   0.7937984   0.5915674  )
        32        Zn     tau(  32) = (   0.3751324   0.7938157   0.5904624  )
        33        Zn     tau(  33) = (   0.1250000   0.0721688   0.3494996  )
        34        Zn     tau(  34) = (   0.6250000   0.0721688   0.3494996  )
        35        Zn     tau(  35) = (   0.1250926   0.0721433   0.8316914  )
        36        Zn     tau(  36) = (   0.6252869   0.0720799   0.8321300  )
        37        Zn     tau(  37) = (   0.0000000   0.2886751   0.3494996  )
        38        Zn     tau(  38) = (   0.5000000   0.2886751   0.3494996  )
        39        Zn     tau(  39) = (   0.0004518   0.2894219   0.8284743  )
        40        Zn     tau(  40) = (   0.5001369   0.2885437   0.8323416  )
        41        Zn     tau(  41) = (  -0.1250000   0.5051815   0.3494996  )
        42        Zn     tau(  42) = (   0.3750000   0.5051815   0.3494996  )
        43        Zn     tau(  43) = (  -0.1244229   0.5051065   0.8309976  )
        44        Zn     tau(  44) = (   0.3741380   0.5050527   0.8288067  )
        45        Zn     tau(  45) = (  -0.2500000   0.7216878   0.3494996  )
        46        Zn     tau(  46) = (   0.2500000   0.7216878   0.3494996  )
        47        Zn     tau(  47) = (  -0.2499764   0.7215992   0.8322672  )
        48        Zn     tau(  48) = (   0.2496034   0.7210428   0.8293446  )
        49        Zn     tau(  49) = (   0.3750000   0.0721688   0.3494996  )
        50        Zn     tau(  50) = (   0.8750000   0.0721688   0.3494996  )
        51        Zn     tau(  51) = (   0.3749107   0.0722252   0.8324667  )
        52        Zn     tau(  52) = (   0.8752701   0.0721467   0.8316659  )
        53        Zn     tau(  53) = (   0.2500000   0.2886751   0.3494996  )
        54        Zn     tau(  54) = (   0.7500000   0.2886751   0.3494996  )
        55        Zn     tau(  55) = (   0.2495824   0.2892770   0.8284810  )
        56        Zn     tau(  56) = (   0.7502218   0.2884442   0.8321238  )
        57        Zn     tau(  57) = (   0.1250000   0.5051815   0.3494996  )
        58        Zn     tau(  58) = (   0.6250000   0.5051815   0.3494996  )
        59        Zn     tau(  59) = (   0.1246076   0.5054607   0.8620509  )
        60        Zn     tau(  60) = (   0.6248602   0.5050701   0.8325701  )
        61        Zn     tau(  61) = (   0.0000000   0.7216878   0.3494996  )
        62        Zn     tau(  62) = (   0.5000000   0.7216878   0.3494996  )
        63        Zn     tau(  63) = (   0.0002648   0.7211104   0.8311823  )
        64        Zn     tau(  64) = (   0.4999678   0.7214843   0.8317350  )
        65        O      tau(  65) = (   0.1262908   0.4965317   1.1121106  )
        66        H      tau(  66) = (   0.2112248   0.5277800   1.1368136  )
        67        H      tau(  67) = (   0.1299766   0.4042637   1.1287182  )

   Crystallographic axes

     site n.     atom                  positions (cryst. coord.)
         1        Zn     tau(   1) = (  0.0833333  0.1666667  0.0513044  )
         2        Zn     tau(   2) = (  0.5833333  0.1666667  0.0513044  )
         3        Zn     tau(   3) = (  0.0834625  0.1667124  0.2599187  )
         4        Zn     tau(   4) = (  0.5832446  0.1666976  0.2605806  )
         5        Zn     tau(   5) = (  0.0833333  0.4166667  0.0513044  )
         6        Zn     tau(   6) = (  0.5833333  0.4166667  0.0513044  )
         7        Zn     tau(   7) = (  0.0834070  0.4167663  0.2602093  )
         8        Zn     tau(   8) = (  0.5832997  0.4166711  0.2604259  )
         9        Zn     tau(   9) = (  0.0833333  0.6666667  0.0513044  )
        10        Zn     tau(  10) = (  0.5833333  0.6666667  0.0513044  )
        11        Zn     tau(  11) = (  0.0833558  0.6666938  0.2605078  )
        12        Zn     tau(  12) = (  0.5832626  0.6665605  0.2601501  )
        13        Zn     tau(  13) = (  0.0833333  0.9166667  0.0513044  )
        14        Zn     tau(  14) = (  0.5833333  0.9166667  0.0513044  )
        15        Zn     tau(  15) = (  0.0834001  0.9166324  0.2602480  )
        16        Zn     tau(  16) = (  0.5832000  0.9165895  0.2603170  )
        17        Zn     tau(  17) = (  0.3333333  0.1666667  0.0513044  )
        18        Zn     tau(  18) = (  0.8333333  0.1666667  0.0513044  )
        19        Zn     tau(  19) = (  0.3332763  0.1666393  0.2602868  )
        20        Zn     tau(  20) = (  0.8334303  0.1667804  0.2602327  )
        21        Zn     tau(  21) = (  0.3333333  0.4166667  0.0513044  )
        22        Zn     tau(  22) = (  0.8333333  0.4166667  0.0513044  )
        23        Zn     tau(  23) = (  0.3332952  0.4166537  0.2600314  )
        24        Zn     tau(  24) = (  0.8334099  0.4167759  0.2605781  )
        25        Zn     tau(  25) = (  0.3333333  0.6666667  0.0513044  )
        26        Zn     tau(  26) = (  0.8333333  0.6666667  0.0513044  )
        27        Zn     tau(  27) = (  0.3332078  0.6666122  0.2602944  )
        28        Zn     tau(  28) = (  0.8334201  0.6666632  0.2603965  )
        29        Zn     tau(  29) = (  0.3333333  0.9166667  0.0513044  )
        30        Zn     tau(  30) = (  0.8333333  0.9166667  0.0513044  )
        31        Zn     tau(  31) = (  0.3331983  0.9165994  0.2605153  )
        32        Zn     tau(  32) = (  0.8334421  0.9166194  0.2600287  )
        33        Zn     tau(  33) = (  0.1666667  0.0833333  0.1539131  )
        34        Zn     tau(  34) = (  0.6666667  0.0833333  0.1539131  )
        35        Zn     tau(  35) = (  0.1667445  0.0833039  0.3662614  )
        36        Zn     tau(  36) = (  0.6669022  0.0832307  0.3664546  )
        37        Zn     tau(  37) = (  0.1666667  0.3333333  0.1539131  )
        38        Zn     tau(  38) = (  0.6666667  0.3333333  0.1539131  )
        39        Zn     tau(  39) = (  0.1675496  0.3341957  0.3648447  )
        40        Zn     tau(  40) = (  0.6667277  0.3331815  0.3665478  )
        41        Zn     tau(  41) = (  0.1666667  0.5833333  0.1539131  )
        42        Zn     tau(  42) = (  0.6666667  0.5833333  0.1539131  )
        43        Zn     tau(  43) = (  0.1672005  0.5832467  0.3659559  )
        44        Zn     tau(  44) = (  0.6657304  0.5831847  0.3649911  )
        45        Zn     tau(  45) = (  0.1666667  0.8333333  0.1539131  )
        46        Zn     tau(  46) = (  0.6666667  0.8333333  0.1539131  )
        47        Zn     tau(  47) = (  0.1666391  0.8332310  0.3665150  )
        48        Zn     tau(  48) = (  0.6658976  0.8325885  0.3652279  )
        49        Zn     tau(  49) = (  0.4166667  0.0833333  0.1539131  )
        50        Zn     tau(  50) = (  0.9166667  0.0833333  0.1539131  )
        51        Zn     tau(  51) = (  0.4166099  0.0833984  0.3666029  )
        52        Zn     tau(  52) = (  0.9169241  0.0833078  0.3662502  )
        53        Zn     tau(  53) = (  0.4166667  0.3333333  0.1539131  )
        54        Zn     tau(  54) = (  0.9166667  0.3333333  0.1539131  )
        55        Zn     tau(  55) = (  0.4165966  0.3340283  0.3648477  )
        56        Zn     tau(  56) = (  0.9167551  0.3330666  0.3664519  )
        57        Zn     tau(  57) = (  0.4166667  0.5833333  0.1539131  )
        58        Zn     tau(  58) = (  0.9166667  0.5833333  0.1539131  )
        59        Zn     tau(  59) = (  0.4164355  0.5836557  0.3796312  )
        60        Zn     tau(  60) = (  0.9164626  0.5832047  0.3666484  )
        61        Zn     tau(  61) = (  0.4166667  0.8333333  0.1539131  )
        62        Zn     tau(  62) = (  0.9166667  0.8333333  0.1539131  )
        63        Zn     tau(  63) = (  0.4165981  0.8326665  0.3660372  )
        64        Zn     tau(  64) = (  0.9165170  0.8330983  0.3662807  )
        65        O      tau(  65) = (  0.4129635  0.5733454  0.4897528  )
        66        H      tau(  66) = (  0.5159387  0.6094278  0.5006316  )
        67        H      tau(  67) = (  0.3633783  0.4668035  0.4970665  )

     number of k points=     5  Marzari-Vanderbilt smearing, width (Ry)=  0.0200
                       cart. coord. in units 2pi/alat
        k(    1) = (   0.0000000   0.0000000   0.0000000), wk =   0.2222222
        k(    2) = (   0.0000000   0.3849002   0.0000000), wk =   0.4444444
        k(    3) = (   0.3333333   0.1924501   0.0000000), wk =   0.4444444
        k(    4) = (   0.3333333   0.5773503   0.0000000), wk =   0.4444444
        k(    5) = (   0.3333333  -0.1924501   0.0000000), wk =   0.4444444

                       cryst. coord.
        k(    1) = (   0.0000000   0.0000000   0.0000000), wk =   0.2222222
        k(    2) = (   0.0000000   0.3333333   0.0000000), wk =   0.4444444
        k(    3) = (   0.3333333   0.0000000   0.0000000), wk =   0.4444444
        k(    4) = (   0.3333333   0.3333333   0.0000000), wk =   0.4444444
        k(    5) = (   0.3333333  -0.3333333   0.0000000), wk =   0.4444444

     Dense  grid:   724931 G-vectors     FFT dimensions: (  90,  90, 216)

     Dynamical RAM for                 wfc:      31.43 MB

     Dynamical RAM for     wfc (w. buffer):     188.60 MB

     Dynamical RAM for           str. fact:       0.98 MB

     Dynamical RAM for           local pot:       0.00 MB

     Dynamical RAM for          nlocal pot:      47.33 MB

     Dynamical RAM for                qrad:       3.41 MB

     Dynamical RAM for          rho,v,vnew:       2.27 MB

     Dynamical RAM for               rhoin:       0.76 MB

     Dynamical RAM for            rho*nmix:       5.21 MB

     Dynamical RAM for           G-vectors:       1.38 MB

     Dynamical RAM for          h,s,v(r/c):       4.37 MB

     Dynamical RAM for          <psi|beta>:      13.73 MB

     Dynamical RAM for                 psi:      62.87 MB

     Dynamical RAM for                hpsi:      62.87 MB

     Dynamical RAM for                spsi:      62.87 MB

     Dynamical RAM for      wfcinit/wfcrot:      84.23 MB

     Dynamical RAM for           addusdens:      81.33 MB

     Dynamical RAM for          addusforce:     122.74 MB

     Dynamical RAM for         addusstress:      65.39 MB

     Estimated static dynamical RAM per process >     248.20 MB

     Estimated max dynamical RAM per process >     460.11 MB

     Estimated total dynamical RAM >      15.28 GB

     Check: negative core charge=   -0.000001
     Cannot read rho : file not found

     Initial potential from superposition of free atoms

     starting charge    1287.9910, renormalised to    1288.0000

     negative rho (up, down):  9.431E-03 0.000E+00
     Starting wfcs are  838 randomized atomic wfcs
[psid09:235198] 33 more processes have sent help message help-mpi-btl-openib.txt / ib port not selected
[psid09:235198] Set MCA parameter "orte_base_help_aggregate" to 0 to see all help / error messages
[psid09:235198] 33 more processes have sent help message help-mpi-btl-openib.txt / error in device init
     Checking if some PAW data can be deallocated... 
       PAW data deallocated on   33 nodes for type:  2

     total cpu time spent up to now is      144.5 secs

     Self-consistent Calculation

     iteration #  1     ecut=    50.00 Ry     beta= 0.70
     Davidson diagonalization with overlap

---- Real-time Memory Report at c_bands before calling an iterative solver
           343 MiB given to the printing process from OS
             0 MiB allocation reported by mallinfo(arena+hblkhd)
        111805 MiB available memory on the node where the printing process lives
------------------
     ethr =  1.00E-05,  avg # of iterations = 11.6

     negative rho (up, down):  8.663E-03 0.000E+00

     total cpu time spent up to now is     1535.3 secs

     total energy              =  -29582.06782211 Ry
     estimated scf accuracy    <       2.57328339 Ry

     iteration #  2     ecut=    50.00 Ry     beta= 0.70
     Davidson diagonalization with overlap

---- Real-time Memory Report at c_bands before calling an iterative solver
           500 MiB given to the printing process from OS
             0 MiB allocation reported by mallinfo(arena+hblkhd)
        111657 MiB available memory on the node where the printing process lives
------------------
     ethr =  2.00E-04,  avg # of iterations =  4.4

     negative rho (up, down):  8.420E-03 0.000E+00

     total cpu time spent up to now is     2200.3 secs

     total energy              =  -29582.46348791 Ry
     estimated scf accuracy    <       4.09802194 Ry

     iteration #  3     ecut=    50.00 Ry     beta= 0.70
     Davidson diagonalization with overlap

---- Real-time Memory Report at c_bands before calling an iterative solver
           503 MiB given to the printing process from OS
             0 MiB allocation reported by mallinfo(arena+hblkhd)
        111457 MiB available memory on the node where the printing process lives
------------------
     ethr =  2.00E-04,  avg # of iterations = 10.2

     negative rho (up, down):  8.281E-03 0.000E+00

     total cpu time spent up to now is     2818.7 secs

     total energy              =  -29583.01060449 Ry
     estimated scf accuracy    <       1.76616059 Ry

     iteration #  4     ecut=    50.00 Ry     beta= 0.70
     Davidson diagonalization with overlap

---- Real-time Memory Report at c_bands before calling an iterative solver
           504 MiB given to the printing process from OS
             0 MiB allocation reported by mallinfo(arena+hblkhd)
        111441 MiB available memory on the node where the printing process lives
------------------
     ethr =  1.37E-04,  avg # of iterations =  6.2

     negative rho (up, down):  7.978E-03 0.000E+00

     total cpu time spent up to now is     3312.6 secs

     total energy              =  -29583.12331988 Ry
     estimated scf accuracy    <       1.92119179 Ry

     iteration #  5     ecut=    50.00 Ry     beta= 0.70
     Davidson diagonalization with overlap

---- Real-time Memory Report at c_bands before calling an iterative solver
           505 MiB given to the printing process from OS
             0 MiB allocation reported by mallinfo(arena+hblkhd)
        111424 MiB available memory on the node where the printing process lives
------------------
     ethr =  1.37E-04,  avg # of iterations =  4.8

     negative rho (up, down):  7.896E-03 0.000E+00

     total cpu time spent up to now is     3801.7 secs

     total energy              =  -29583.15955190 Ry
     estimated scf accuracy    <       1.32545812 Ry

     iteration #  6     ecut=    50.00 Ry     beta= 0.70
     Davidson diagonalization with overlap

---- Real-time Memory Report at c_bands before calling an iterative solver
           506 MiB given to the printing process from OS
             0 MiB allocation reported by mallinfo(arena+hblkhd)
        111407 MiB available memory on the node where the printing process lives
------------------
     ethr =  1.03E-04,  avg # of iterations =  2.2

     negative rho (up, down):  7.924E-03 0.000E+00

     total cpu time spent up to now is     4280.0 secs

     total energy              =  -29583.27317173 Ry
     estimated scf accuracy    <       0.03775389 Ry

     iteration #  7     ecut=    50.00 Ry     beta= 0.70
     Davidson diagonalization with overlap

---- Real-time Memory Report at c_bands before calling an iterative solver
           507 MiB given to the printing process from OS
             0 MiB allocation reported by mallinfo(arena+hblkhd)
        111390 MiB available memory on the node where the printing process lives
------------------
     ethr =  2.93E-06,  avg # of iterations = 14.8

     negative rho (up, down):  7.963E-03 0.000E+00

     total cpu time spent up to now is     4839.9 secs

     total energy              =  -29583.27823820 Ry
     estimated scf accuracy    <       0.00398928 Ry

     iteration #  8     ecut=    50.00 Ry     beta= 0.70
     Davidson diagonalization with overlap

---- Real-time Memory Report at c_bands before calling an iterative solver
           508 MiB given to the printing process from OS
             0 MiB allocation reported by mallinfo(arena+hblkhd)
        111376 MiB available memory on the node where the printing process lives
------------------
     ethr =  3.10E-07,  avg # of iterations =  2.2

     negative rho (up, down):  8.010E-03 0.000E+00

     total cpu time spent up to now is     5317.1 secs

     total energy              =  -29583.27896274 Ry
     estimated scf accuracy    <       0.00097698 Ry

     iteration #  9     ecut=    50.00 Ry     beta= 0.70
     Davidson diagonalization with overlap

---- Real-time Memory Report at c_bands before calling an iterative solver
           508 MiB given to the printing process from OS
             0 MiB allocation reported by mallinfo(arena+hblkhd)
        111357 MiB available memory on the node where the printing process lives
------------------
     ethr =  7.59E-08,  avg # of iterations =  2.0

     negative rho (up, down):  8.027E-03 0.000E+00

     total cpu time spent up to now is     5789.7 secs

     total energy              =  -29583.27906479 Ry
     estimated scf accuracy    <       0.00037272 Ry

     iteration # 10     ecut=    50.00 Ry     beta= 0.70
     Davidson diagonalization with overlap

---- Real-time Memory Report at c_bands before calling an iterative solver
           509 MiB given to the printing process from OS
             0 MiB allocation reported by mallinfo(arena+hblkhd)
        111344 MiB available memory on the node where the printing process lives
------------------
     ethr =  2.89E-08,  avg # of iterations =  2.2

     negative rho (up, down):  8.047E-03 0.000E+00

     total cpu time spent up to now is     6274.9 secs

     total energy              =  -29583.27912619 Ry
     estimated scf accuracy    <       0.00004116 Ry

     iteration # 11     ecut=    50.00 Ry     beta= 0.70
     Davidson diagonalization with overlap

---- Real-time Memory Report at c_bands before calling an iterative solver
           510 MiB given to the printing process from OS
             0 MiB allocation reported by mallinfo(arena+hblkhd)
        111326 MiB available memory on the node where the printing process lives
------------------
     ethr =  3.20E-09,  avg # of iterations =  2.0

     negative rho (up, down):  8.050E-03 0.000E+00

     total cpu time spent up to now is     6831.6 secs

     total energy              =  -29583.27913255 Ry
     estimated scf accuracy    <       0.00002200 Ry

     iteration # 12     ecut=    50.00 Ry     beta= 0.70
     Davidson diagonalization with overlap

---- Real-time Memory Report at c_bands before calling an iterative solver
           510 MiB given to the printing process from OS
             0 MiB allocation reported by mallinfo(arena+hblkhd)
        111325 MiB available memory on the node where the printing process lives
------------------
     ethr =  1.71E-09,  avg # of iterations =  2.0

     negative rho (up, down):  8.052E-03 0.000E+00

     total cpu time spent up to now is     7309.1 secs

     total energy              =  -29583.27913619 Ry
     estimated scf accuracy    <       0.00000128 Ry

     iteration # 13     ecut=    50.00 Ry     beta= 0.70
     Davidson diagonalization with overlap

---- Real-time Memory Report at c_bands before calling an iterative solver
           510 MiB given to the printing process from OS
             0 MiB allocation reported by mallinfo(arena+hblkhd)
        111324 MiB available memory on the node where the printing process lives
------------------
     ethr =  9.92E-11,  avg # of iterations =  2.0

     negative rho (up, down):  8.055E-03 0.000E+00

     total cpu time spent up to now is     7867.7 secs

     End of self-consistent calculation

          k = 0.0000 0.0000 0.0000 ( 90569 PWs)   bands (ev):

  -122.9456-122.9442-122.9431-122.9429-122.9422-122.9420-122.9413-122.9408
  -122.9408-122.9403-122.9402-122.9396-122.9392-122.9369-122.9357-122.9328
  -122.8988-122.8982-122.8973-122.8961-122.8944-122.8935-122.8906-122.8897
  -122.8894-122.8888-122.8881-122.8879-122.8869-122.8625-122.8583-122.8487
  -122.7469-122.7457-122.7453-122.7452-122.7450-122.7448-122.7444-122.7438
  -122.7436-122.7434-122.7433-122.7431-122.7426-122.7423-122.7415-122.7413
  -122.7217-122.7199-122.7169-122.7118-122.7077-122.7063-122.7049-122.7023
  -122.7020-122.7011-122.7003-122.7000-122.6998-122.6976-122.6962-122.5767
   -77.1084 -77.1082 -77.1078 -77.1022 -77.1020 -77.1014 -77.1007 -77.1001
   -77.1001 -77.0969 -77.0952 -77.0941 -77.0939 -77.0930 -77.0928 -77.0922
   -77.0918 -77.0916 -77.0911 -77.0911 -77.0909 -77.0908 -77.0906 -77.0901
   -77.0899 -77.0896 -77.0895 -77.0890 -77.0889 -77.0882 -77.0881 -77.0876
   -77.0873 -77.0870 -77.0861 -77.0860 -77.0835 -77.0815 -77.0812 -77.0808
   -77.0776 -77.0767 -77.0764 -77.0763 -77.0757 -77.0745 -77.0708 -77.0704
   -77.0599 -77.0582 -77.0574 -77.0534 -77.0522 -77.0515 -77.0501 -77.0498
   -77.0492 -77.0484 -77.0483 -77.0479 -77.0472 -77.0455 -77.0444 -77.0430
   -77.0423 -77.0418 -77.0410 -77.0409 -77.0406 -77.0401 -77.0398 -77.0396
   -77.0393 -77.0391 -77.0390 -77.0385 -77.0383 -77.0371 -77.0346 -77.0327
   -77.0318 -77.0311 -77.0291 -77.0278 -77.0269 -77.0245 -77.0231 -77.0144
   -77.0134 -77.0101 -77.0095 -77.0058 -77.0008 -77.0005 -76.9939 -76.9914
   -76.9087 -76.9080 -76.9079 -76.9056 -76.9044 -76.9040 -76.9039 -76.9037
   -76.9033 -76.9027 -76.9023 -76.9023 -76.9021 -76.9021 -76.9019 -76.9017
   -76.9016 -76.9014 -76.9014 -76.9013 -76.9010 -76.9008 -76.9006 -76.8996
   -76.8993 -76.8909 -76.8907 -76.8906 -76.8906 -76.8903 -76.8903 -76.8890
   -76.8887 -76.8885 -76.8884 -76.8882 -76.8876 -76.8819 -76.8818 -76.8818
   -76.8814 -76.8796 -76.8779 -76.8777 -76.8774 -76.8774 -76.8770 -76.8769
   -76.8764 -76.8763 -76.8726 -76.8726 -76.8719 -76.8713 -76.8704 -76.8681
   -76.8677 -76.8666 -76.8655 -76.8651 -76.8640 -76.8627 -76.8624 -76.8619
   -76.8616 -76.8609 -76.8607 -76.8606 -76.8604 -76.8593 -76.8577 -76.8572
   -76.8560 -76.8558 -76.8544 -76.8526 -76.8513 -76.8505 -76.8492 -76.8468
   -76.8465 -76.8452 -76.8446 -76.8419 -76.8415 -76.8405 -76.8389 -76.8377
   -76.8355 -76.8350 -76.8337 -76.8320 -76.8301 -76.7333 -76.7295 -76.7283
   -18.4579  -6.5657  -6.2078  -5.7665  -5.0537  -4.9742  -4.9728  -4.9711
    -4.9682  -4.9678  -4.9539  -4.9475  -4.7788  -4.7787  -4.7787  -4.7147
    -4.7146  -4.7124  -4.6133  -4.6129  -4.6107  -4.6099  -4.6094  -4.5925
    -4.5879  -4.5878  -4.5816  -4.5059  -4.4958  -4.4956  -4.4549  -4.4544
    -4.4540  -4.4529  -4.4522  -4.4490  -4.4118  -4.4093  -4.4092  -4.3725
    -4.3719  -4.3687  -4.3563  -4.3559  -4.3549  -4.3542  -4.3526  -4.3516
    -4.3484  -4.3477  -4.3372  -4.3364  -4.3362  -4.3245  -4.3139  -4.3127
    -4.3115  -4.3100  -4.3087  -4.3059  -4.2695  -4.2686  -4.2672  -4.2624
    -4.2615  -4.2594  -4.1943  -4.1779  -4.1761  -4.1753  -4.1745  -4.1737
    -4.1700  -4.1693  -4.1690  -4.1682  -4.1676  -4.1670  -4.1573  -4.1264
    -4.1254  -4.1248  -4.1237  -4.1233  -4.1216  -4.1210  -4.1193  -4.1177
    -4.1171  -4.1170  -4.1165  -4.1155  -4.1012  -4.0998  -4.0821  -4.0817
    -4.0762  -4.0759  -4.0640  -4.0627  -4.0344  -4.0289  -4.0285  -4.0270
    -4.0213  -4.0203  -3.9952  -3.9944  -3.9910  -3.9910  -3.9874  -3.9819
    -3.9813  -3.9812  -3.9804  -3.9790  -3.9788  -3.9777  -3.9702  -3.9690
    -3.9689  -3.9682  -3.9673  -3.9524  -3.9302  -3.9301  -3.9161  -3.9150
    -3.9144  -3.9118  -3.9055  -3.9054  -3.9019  -3.9018  -3.9013  -3.8946
    -3.8943  -3.8938  -3.8603  -3.8594  -3.8591  -3.8568  -3.8567  -3.8535
    -3.8363  -3.8356  -3.8311  -3.8305  -3.8304  -3.8133  -3.7861  -3.7861
    -3.7613  -3.7608  -3.7568  -3.7558  -3.7553  -3.7551  -3.7340  -3.7338
    -3.7263  -3.7195  -3.7194  -3.7187  -3.7169  -3.7157  -3.7109  -3.7101
    -3.7089  -3.6864  -3.6858  -3.6844  -3.6809  -3.6799  -3.6786  -3.6732
    -3.6718  -3.6672  -3.6628  -3.6627  -3.6621  -3.6621  -3.6613  -3.6612
    -3.6538  -3.6515  -3.6512  -3.6380  -3.6376  -3.6334  -3.6331  -3.6327
    -3.6311  -3.6309  -3.6306  -3.6296  -3.6293  -3.6276  -3.6275  -3.6233
    -3.6204  -3.6198  -3.6155  -3.6120  -3.6113  -3.6062  -3.6057  -3.6024
    -3.6014  -3.6013  -3.6007  -3.5983  -3.5978  -3.5811  -3.5516  -3.5495
    -3.5494  -3.5481  -3.5479  -3.5475  -3.5420  -3.5417  -3.5395  -3.5367
    -3.5349  -3.5343  -3.5334  -3.5244  -3.5236  -3.4998  -3.4977  -3.4976
    -3.4963  -3.4962  -3.4908  -3.4892  -3.4876  -3.4847  -3.4829  -3.4828
    -3.4778  -3.4771  -3.4737  -3.4703  -3.4676  -3.4663  -3.4658  -3.4645
    -3.4643  -3.4582  -3.4564  -3.4509  -3.4506  -3.4282  -3.4256  -3.3925
    -3.3923  -3.3897  -3.3880  -3.3875  -3.3736  -3.3732  -3.3729  -3.3726
    -3.3725  -3.3721  -3.3581  -3.3556  -3.3552  -3.3408  -3.3403  -3.3402
    -3.3374  -3.3365  -3.3331  -3.3310  -3.3190  -3.3186  -3.3126  -3.3096
    -3.3083  -3.3081  -3.3054  -3.3052  -3.3043  -3.3015  -3.3009  -3.2966
    -3.2962  -3.2961  -3.2958  -3.2936  -3.2935  -3.2665  -3.2647  -3.2642
    -3.2598  -3.2594  -3.2549  -3.2541  -3.2536  -3.2535  -3.2529  -3.2512
    -3.2167  -3.2159  -3.1869  -3.1857  -3.1855  -3.1851  -3.1848  -3.1846
    -3.1802  -3.1566  -3.1557  -3.1549  -3.1521  -3.1515  -3.1513  -3.1510
    -3.1509  -3.0964  -3.0959  -3.0927  -3.0831  -2.9641  -2.9508  -2.9504
    -2.9503  -2.9439  -2.9430  -2.9410  -2.9333  -2.9283  -2.9125  -2.9081
    -2.9071  -2.5882  -1.6254  -1.5483  -1.5467  -1.5446  -1.5409  -1.5297
    -1.1353  -0.6367  -0.0816  -0.0806  -0.0799  -0.0691  -0.0683  -0.0509
     0.3260   0.3314   0.3373   0.3411   0.3431   0.4175   0.7499   0.7509
     0.7571   0.7795   0.7830   0.8136   1.0960   1.2127   1.2128   1.2179
     1.7732   1.7735   1.7929   2.1143   2.1284   2.1293   2.1739   2.1748
     2.1758   2.1800   2.1837   2.1939   2.3769   2.3859   2.3887   3.3485
     3.3588   3.3750   3.3788   3.3798   3.4566   3.8424   3.8447   3.8678
     3.8693   3.8704   3.8811   4.0291   4.4579   4.4585   4.4818   4.7426
     4.7429   4.7623   5.5575   5.5577   5.5698   5.7886   5.8710   5.8926
     5.9044   5.9108   5.9479   6.2135   6.4640   6.4657   6.4813   7.0035
     7.2064   7.2103   7.2193   7.2293   7.2436   7.2456   7.3128   7.4560
     7.4580   7.4601   7.4708   7.4723   7.4750   7.6387   7.6395   7.6421
     7.6437   7.6561   7.6569   7.7415   7.8090   8.1088   8.1876   8.1970
     8.2433   8.3494   8.3504   8.3580   8.3590   8.3601   8.3679   8.3928
     8.3985   8.4312   8.4396   8.4405   8.4472   8.4752   8.4808   8.4996
     8.6653   8.7504   8.8672   8.9325   8.9635   9.0079   9.0092   9.0217
     9.0425   9.0694   9.0848   9.1121   9.1243   9.1580   9.3835   9.4249
     9.4494   9.4812   9.4875   9.4938   9.8491   9.8657   9.8733   9.8903
     9.8920   9.8940   9.9182   9.9212   9.9438   9.9468   9.9523   9.9591
    10.0339  10.0443  10.0721  10.2685  10.3087  10.5905  10.6575  10.6712
    10.6778  10.7074  10.7269  10.8236  10.8697  10.8754  10.9009  11.0200
    11.1560  11.1806  11.2444  11.3137  11.3206  11.3258  11.3270  11.3341
    11.3374  11.3465  11.4475  11.5278  11.5306

     occupation numbers 
     1.0000   1.0000   1.0000   1.0000   1.0000   1.0000   1.0000   1.0000
     1.0000   1.0000   1.0000   1.0000   1.0000   1.0000   1.0000   1.0000
     1.0000   1.0000   1.0000   1.0000   1.0000   1.0000   1.0000   1.0000
     1.0000   1.0000   1.0000   1.0000   1.0000   1.0000   1.0000   1.0000
     1.0000   1.0000   1.0000   1.0000   1.0000   1.0000   1.0000   1.0000
     1.0000   1.0000   1.0000   1.0000   1.0000   1.0000   1.0000   1.0000
     1.0000   1.0000   1.0000   1.0000   1.0000   1.0000   1.0000   1.0000
     1.0000   1.0000   1.0000   1.0000   1.0000   1.0000   1.0000   1.0000
     1.0000   1.0000   1.0000   1.0000   1.0000   1.0000   1.0000   1.0000
     1.0000   1.0000   1.0000   1.0000   1.0000   1.0000   1.0000   1.0000
     1.0000   1.0000   1.0000   1.0000   1.0000   1.0000   1.0000   1.0000
     1.0000   1.0000   1.0000   1.0000   1.0000   1.0000   1.0000   1.0000
     1.0000   1.0000   1.0000   1.0000   1.0000   1.0000   1.0000   1.0000
     1.0000   1.0000   1.0000   1.0000   1.0000   1.0000   1.0000   1.0000
     1.0000   1.0000   1.0000   1.0000   1.0000   1.0000   1.0000   1.0000
     1.0000   1.0000   1.0000   1.0000   1.0000   1.0000   1.0000   1.0000
     1.0000   1.0000   1.0000   1.0000   1.0000   1.0000   1.0000   1.0000
     1.0000   1.0000   1.0000   1.0000   1.0000   1.0000   1.0000   1.0000
     1.0000   1.0000   1.0000   1.0000   1.0000   1.0000   1.0000   1.0000
     1.0000   1.0000   1.0000   1.0000   1.0000   1.0000   1.0000   1.0000
     1.0000   1.0000   1.0000   1.0000   1.0000   1.0000   1.0000   1.0000
     1.0000   1.0000   1.0000   1.0000   1.0000   1.0000   1.0000   1.0000
     1.0000   1.0000   1.0000   1.0000   1.0000   1.0000   1.0000   1.0000
     1.0000   1.0000   1.0000   1.0000   1.0000   1.0000   1.0000   1.0000
     1.0000   1.0000   1.0000   1.0000   1.0000   1.0000   1.0000   1.0000
     1.0000   1.0000   1.0000   1.0000   1.0000   1.0000   1.0000   1.0000
     1.0000   1.0000   1.0000   1.0000   1.0000   1.0000   1.0000   1.0000
     1.0000   1.0000   1.0000   1.0000   1.0000   1.0000   1.0000   1.0000
     1.0000   1.0000   1.0000   1.0000   1.0000   1.0000   1.0000   1.0000
     1.0000   1.0000   1.0000   1.0000   1.0000   1.0000   1.0000   1.0000
     1.0000   1.0000   1.0000   1.0000   1.0000   1.0000   1.0000   1.0000
     1.0000   1.0000   1.0000   1.0000   1.0000   1.0000   1.0000   1.0000
     1.0000   1.0000   1.0000   1.0000   1.0000   1.0000   1.0000   1.0000
     1.0000   1.0000   1.0000   1.0000   1.0000   1.0000   1.0000   1.0000
     1.0000   1.0000   1.0000   1.0000   1.0000   1.0000   1.0000   1.0000
     1.0000   1.0000   1.0000   1.0000   1.0000   1.0000   1.0000   1.0000
     1.0000   1.0000   1.0000   1.0000   1.0000   1.0000   1.0000   1.0000
     1.0000   1.0000   1.0000   1.0000   1.0000   1.0000   1.0000   1.0000
     1.0000   1.0000   1.0000   1.0000   1.0000   1.0000   1.0000   1.0000
     1.0000   1.0000   1.0000   1.0000   1.0000   1.0000   1.0000   1.0000
     1.0000   1.0000   1.0000   1.0000   1.0000   1.0000   1.0000   1.0000
     1.0000   1.0000   1.0000   1.0000   1.0000   1.0000   1.0000   1.0000
     1.0000   1.0000   1.0000   1.0000   1.0000   1.0000   1.0000   1.0000
     1.0000   1.0000   1.0000   1.0000   1.0000   1.0000   1.0000   1.0000
     1.0000   1.0000   1.0000   1.0000   1.0000   1.0000   1.0000   1.0000
     1.0000   1.0000   1.0000   1.0000   1.0000   1.0000   1.0000   1.0000
     1.0000   1.0000   1.0000   1.0000   1.0000   1.0000   1.0000   1.0000
     1.0000   1.0000   1.0000   1.0000   1.0000   1.0000   1.0000   1.0000
     1.0000   1.0000   1.0000   1.0000   1.0000   1.0000   1.0000   1.0000
     1.0000   1.0000   1.0000   1.0000   1.0000   1.0000   1.0000   1.0000
     1.0000   1.0000   1.0000   1.0000   1.0000   1.0000   1.0000   1.0000
     1.0000   1.0000   1.0000   1.0000   1.0000   1.0000   1.0000   1.0000
     1.0000   1.0000   1.0000   1.0000   1.0000   1.0000   1.0000   1.0000
     1.0000   1.0000   1.0000   1.0000   1.0000   1.0000   1.0000   1.0000
     1.0000   1.0000   1.0000   1.0000   1.0000   1.0000   1.0000   1.0000
     1.0000   1.0000   1.0000   1.0000   1.0000   1.0000   1.0000   1.0000
     1.0000   1.0000   1.0000   1.0000   1.0000   1.0000   1.0000   1.0000
     1.0000   1.0000   1.0000   1.0000   1.0000   1.0000   1.0000   1.0000
     1.0000   1.0000   1.0000   1.0000   1.0000   1.0000   1.0000   1.0000
     1.0000   1.0000   1.0000   1.0000   1.0000   1.0000   1.0000   1.0000
     1.0000   1.0000   1.0000   1.0000   1.0000   1.0000   1.0000   1.0000
     1.0000   1.0000   1.0000   1.0000   1.0000   1.0000   1.0000   1.0000
     1.0000   1.0000   1.0000   1.0000   1.0000   1.0000   1.0000   1.0000
     1.0000   1.0000   1.0000   1.0000   1.0000   1.0000   1.0000   1.0000
     1.0000   1.0000   1.0000   1.0000   1.0000   1.0000   1.0000   1.0000
     1.0000   1.0000   1.0000   1.0000   1.0000   1.0000   1.0000   1.0000
     1.0000   1.0000   1.0000   1.0000   1.0000   1.0000   1.0000   1.0000
     1.0000   1.0000   1.0000   1.0000   1.0000   1.0000   1.0000   1.0000
     1.0000   1.0000   1.0000   1.0000   1.0000   1.0000   1.0000   1.0000
     1.0000   1.0000   1.0000   1.0000   1.0000   1.0000   1.0000   1.0000
     1.0000   1.0000   1.0000   1.0000   1.0000   1.0000   1.0000   1.0000
     1.0000   1.0000   1.0000   1.0000   1.0000   1.0000   1.0000   1.0000
     1.0000   1.0000   1.0000   1.0000   1.0000   1.0000   1.0000   1.0000
     1.0000   1.0000   1.0000   1.0000   1.0000   1.0000   1.0000   1.0000
     1.0000   1.0000   1.0000   1.0000   1.0000   1.0000   1.0000   1.0000
     1.0000   1.0000   1.0000   1.0000   1.0000   1.0000   1.0000   1.0000
     1.0000   1.0000   1.0000   1.0000   1.0000   1.0000   1.0000   1.0000
     1.0000   1.0000   1.0000   1.0000   1.0000   1.0000   1.0000   1.0000
     1.0000   1.0000   1.0000   1.0000   1.0000   1.0000   1.0000   1.0000
     1.0000   1.0000   1.0000   1.0000   1.0000   1.0000   1.0000   1.0313
     1.0343   1.0392   1.0404   1.0407   1.0667   0.6247   0.6182   0.5543
     0.5503   0.5471   0.5178   0.1842   0.0004   0.0004   0.0003   0.0000
     0.0000   0.0000   0.0000   0.0000   0.0000   0.0000   0.0000   0.0000
     0.0000   0.0000   0.0000   0.0000   0.0000   0.0000   0.0000   0.0000
     0.0000   0.0000   0.0000   0.0000   0.0000   0.0000   0.0000   0.0000
     0.0000   0.0000   0.0000   0.0000   0.0000   0.0000   0.0000   0.0000
     0.0000   0.0000   0.0000   0.0000   0.0000   0.0000   0.0000   0.0000
     0.0000   0.0000   0.0000   0.0000   0.0000   0.0000   0.0000   0.0000
     0.0000   0.0000   0.0000   0.0000   0.0000   0.0000   0.0000   0.0000
     0.0000   0.0000   0.0000   0.0000   0.0000   0.0000   0.0000   0.0000
     0.0000   0.0000   0.0000   0.0000   0.0000   0.0000   0.0000   0.0000
     0.0000   0.0000   0.0000   0.0000   0.0000   0.0000   0.0000   0.0000
     0.0000   0.0000   0.0000   0.0000   0.0000   0.0000   0.0000   0.0000
     0.0000   0.0000   0.0000   0.0000   0.0000   0.0000   0.0000   0.0000
     0.0000   0.0000   0.0000   0.0000   0.0000   0.0000   0.0000   0.0000
     0.0000   0.0000   0.0000   0.0000   0.0000   0.0000   0.0000   0.0000
     0.0000   0.0000   0.0000   0.0000   0.0000

          k = 0.0000 0.3849 0.0000 ( 90604 PWs)   bands (ev):

  -122.9456-122.9442-122.9434-122.9427-122.9422-122.9420-122.9414-122.9408
  -122.9407-122.9403-122.9402-122.9397-122.9392-122.9369-122.9357-122.9328
  -122.8988-122.8983-122.8973-122.8961-122.8944-122.8935-122.8906-122.8897
  -122.8895-122.8888-122.8882-122.8879-122.8869-122.8625-122.8583-122.8487
  -122.7467-122.7460-122.7457-122.7451-122.7447-122.7445-122.7442-122.7439
  -122.7436-122.7435-122.7433-122.7431-122.7425-122.7423-122.7415-122.7413
  -122.7217-122.7199-122.7169-122.7118-122.7077-122.7063-122.7049-122.7023
  -122.7021-122.7011-122.7004-122.7000-122.6998-122.6976-122.6962-122.5767
   -77.1073 -77.1071 -77.1059 -77.1036 -77.1025 -77.1019 -77.1018 -77.0989
   -77.0987 -77.0979 -77.0969 -77.0952 -77.0948 -77.0944 -77.0943 -77.0936
   -77.0930 -77.0928 -77.0923 -77.0917 -77.0916 -77.0915 -77.0911 -77.0911
   -77.0909 -77.0902 -77.0899 -77.0873 -77.0870 -77.0869 -77.0862 -77.0861
   -77.0853 -77.0837 -77.0835 -77.0833 -77.0821 -77.0817 -77.0809 -77.0808
   -77.0791 -77.0784 -77.0775 -77.0763 -77.0753 -77.0742 -77.0723 -77.0708
   -77.0589 -77.0573 -77.0564 -77.0543 -77.0527 -77.0520 -77.0512 -77.0498
   -77.0493 -77.0491 -77.0483 -77.0479 -77.0472 -77.0455 -77.0447 -77.0444
   -77.0436 -77.0418 -77.0415 -77.0410 -77.0406 -77.0406 -77.0401 -77.0400
   -77.0394 -77.0390 -77.0383 -77.0372 -77.0370 -77.0354 -77.0338 -77.0327
   -77.0311 -77.0308 -77.0288 -77.0280 -77.0271 -77.0249 -77.0239 -77.0143
   -77.0131 -77.0101 -77.0094 -77.0059 -77.0009 -77.0005 -76.9940 -76.9914
   -76.9073 -76.9067 -76.9058 -76.9054 -76.9047 -76.9043 -76.9042 -76.9038
   -76.9035 -76.9034 -76.9030 -76.9027 -76.9024 -76.9023 -76.9021 -76.9020
   -76.9019 -76.9017 -76.9014 -76.9008 -76.9006 -76.8996 -76.8995 -76.8994
   -76.8993 -76.8990 -76.8954 -76.8952 -76.8924 -76.8921 -76.8871 -76.8866
   -76.8864 -76.8863 -76.8838 -76.8837 -76.8831 -76.8829 -76.8815 -76.8814
   -76.8812 -76.8797 -76.8796 -76.8795 -76.8793 -76.8769 -76.8768 -76.8767
   -76.8763 -76.8749 -76.8749 -76.8732 -76.8719 -76.8713 -76.8699 -76.8681
   -76.8673 -76.8666 -76.8661 -76.8655 -76.8644 -76.8627 -76.8624 -76.8616
   -76.8615 -76.8609 -76.8608 -76.8606 -76.8603 -76.8600 -76.8582 -76.8572
   -76.8561 -76.8558 -76.8541 -76.8538 -76.8523 -76.8509 -76.8499 -76.8470
   -76.8454 -76.8437 -76.8428 -76.8417 -76.8413 -76.8398 -76.8384 -76.8369
   -76.8364 -76.8350 -76.8340 -76.8324 -76.8313 -76.7333 -76.7295 -76.7284
   -18.4579  -6.3537  -6.2078  -5.7468  -5.5682  -5.2081  -5.1975  -5.0388
    -4.9148  -4.8388  -4.7506  -4.7085  -4.7049  -4.7049  -4.6840  -4.6576
    -4.6501  -4.6484  -4.6404  -4.6391  -4.6354  -4.6180  -4.6123  -4.5571
    -4.5469  -4.5300  -4.5288  -4.5066  -4.5039  -4.5014  -4.4997  -4.4806
    -4.4684  -4.4500  -4.4483  -4.4394  -4.4379  -4.4321  -4.4281  -4.4124
    -4.4123  -4.3976  -4.3955  -4.3935  -4.3900  -4.3895  -4.3785  -4.3776
    -4.3755  -4.3620  -4.3600  -4.3434  -4.3359  -4.3338  -4.3305  -4.3265
    -4.3251  -4.3082  -4.3052  -4.3042  -4.2992  -4.2966  -4.2932  -4.2923
    -4.2858  -4.2638  -4.2636  -4.2547  -4.2486  -4.2377  -4.2369  -4.2326
    -4.2318  -4.2265  -4.2252  -4.2165  -4.1791  -4.1768  -4.1723  -4.1710
    -4.1656  -4.1551  -4.1529  -4.1499  -4.1455  -4.1417  -4.1408  -4.1313
    -4.1126  -4.1119  -4.1069  -4.1039  -4.1022  -4.1006  -4.0996  -4.0899
    -4.0882  -4.0785  -4.0764  -4.0721  -4.0682  -4.0656  -4.0617  -4.0609
    -4.0574  -4.0543  -4.0445  -4.0393  -4.0381  -4.0310  -4.0298  -4.0265
    -4.0188  -3.9898  -3.9872  -3.9754  -3.9731  -3.9643  -3.9622  -3.9582
    -3.9567  -3.9547  -3.9517  -3.9513  -3.9478  -3.9473  -3.9394  -3.9389
    -3.9233  -3.9178  -3.9095  -3.9067  -3.8995  -3.8931  -3.8816  -3.8790
    -3.8766  -3.8756  -3.8726  -3.8719  -3.8622  -3.8491  -3.8427  -3.8389
    -3.8349  -3.8311  -3.8259  -3.8225  -3.8148  -3.8088  -3.8076  -3.8024
    -3.7969  -3.7917  -3.7849  -3.7798  -3.7789  -3.7737  -3.7685  -3.7624
    -3.7490  -3.7486  -3.7396  -3.7392  -3.7366  -3.7312  -3.7241  -3.7231
    -3.7199  -3.7061  -3.6902  -3.6895  -3.6812  -3.6737  -3.6733  -3.6721
    -3.6707  -3.6703  -3.6695  -3.6683  -3.6636  -3.6606  -3.6599  -3.6472
    -3.6456  -3.6374  -3.6362  -3.6352  -3.6345  -3.6322  -3.6303  -3.6187
    -3.6180  -3.6150  -3.6148  -3.6132  -3.6075  -3.6015  -3.5925  -3.5907
    -3.5885  -3.5847  -3.5814  -3.5702  -3.5690  -3.5647  -3.5611  -3.5560
    -3.5554  -3.5546  -3.5537  -3.5527  -3.5477  -3.5459  -3.5450  -3.5377
    -3.5346  -3.5273  -3.5269  -3.5251  -3.5238  -3.5216  -3.5214  -3.5195
    -3.5142  -3.5135  -3.5061  -3.4935  -3.4881  -3.4867  -3.4806  -3.4793
    -3.4670  -3.4633  -3.4610  -3.4558  -3.4450  -3.4338  -3.4324  -3.4301
    -3.4268  -3.4263  -3.4256  -3.4247  -3.4242  -3.4232  -3.4203  -3.4195
    -3.4145  -3.4075  -3.4043  -3.4010  -3.4006  -3.3994  -3.3981  -3.3949
    -3.3942  -3.3915  -3.3909  -3.3886  -3.3823  -3.3752  -3.3716  -3.3684
    -3.3670  -3.3620  -3.3552  -3.3483  -3.3405  -3.3393  -3.3373  -3.3361
    -3.3313  -3.3306  -3.3295  -3.3163  -3.3085  -3.3059  -3.3042  -3.3033
    -3.3030  -3.2982  -3.2968  -3.2949  -3.2937  -3.2918  -3.2911  -3.2882
    -3.2828  -3.2815  -3.2798  -3.2783  -3.2757  -3.2745  -3.2720  -3.2698
    -3.2686  -3.2662  -3.2595  -3.2591  -3.2443  -3.2421  -3.2385  -3.2348
    -3.2275  -3.2245  -3.2237  -3.2203  -3.2089  -3.1951  -3.1943  -3.1777
    -3.1732  -3.1680  -3.1678  -3.1677  -3.1588  -3.1549  -3.1501  -3.1348
    -3.1337  -3.1206  -3.0970  -3.0864  -3.0448  -3.0444  -3.0099  -3.0034
    -3.0000  -2.9670  -2.8898  -2.8851  -2.8544  -2.6345  -2.5466  -2.3483
    -2.2258  -2.2033  -1.8900  -1.8636  -1.7352  -1.7268  -1.7147  -1.0754
    -0.9550  -0.9262  -0.8356  -0.7774  -0.7167  -0.6258  -0.4099  -0.2068
     0.0056   0.0573   0.0770   0.0784   0.1314   0.4757   0.4888   0.5680
     0.5719   0.9186   0.9207   1.0596   1.0679   1.3604   1.3742   1.3870
     1.5222   1.5866   2.0106   2.0234   2.1701   2.2375   2.2387   2.3038
     2.3054   2.5485   2.5536   2.8506   2.8722   2.8936   2.9309   2.9868
     2.9948   3.0307   3.8325   3.8521   4.1482   4.1499   4.2360   4.2850
     4.3117   4.4491   4.4631   4.6846   4.7010   4.8657   4.9432   5.0483
     5.0807   5.0904   5.4652   5.5006   5.5282   5.5294   5.5957   5.6098
     5.6833   5.6953   5.7103   5.7944   5.8031   6.1426   6.1506   6.2466
     6.2514   6.2880   6.5537   6.7035   6.7229   6.9432   6.9516   6.9612
     7.1093   7.1192   7.2088   7.2122   7.2410   7.2951   7.3131   7.4230
     7.4393   7.4479   7.6366   7.7385   7.8393   7.8621   7.8706   7.8764
     7.8986   7.9579   8.0125   8.0178   8.0472   8.0588   8.0663   8.4053
     8.4262   8.4311   8.4428   8.5246   8.6061   8.6434   8.6534   8.6690
     8.7270   8.7767   8.9103   9.0443   9.0573   9.0594   9.1626   9.1670
     9.2095   9.2753   9.3051   9.3352   9.4932   9.5462   9.5532   9.5850
     9.6166   9.6498   9.6911   9.7549   9.8016   9.8322   9.8784   9.9161
    10.0098  10.0333  10.0493  10.1276  10.1672  10.1770  10.2013  10.2467
    10.3175  10.3267  10.3947  10.4393  10.4812  10.5837  10.5930  10.6044
    10.6311  10.7442  10.7782  10.7869  10.9091  10.9888  11.0037  11.0278
    11.0329  11.0508  11.0807  11.0873  11.1436  11.1576  11.2139  11.3001
    11.4082  11.4591  11.5518  11.6217  11.6918

     occupation numbers 
     1.0000   1.0000   1.0000   1.0000   1.0000   1.0000   1.0000   1.0000
     1.0000   1.0000   1.0000   1.0000   1.0000   1.0000   1.0000   1.0000
     1.0000   1.0000   1.0000   1.0000   1.0000   1.0000   1.0000   1.0000
     1.0000   1.0000   1.0000   1.0000   1.0000   1.0000   1.0000   1.0000
     1.0000   1.0000   1.0000   1.0000   1.0000   1.0000   1.0000   1.0000
     1.0000   1.0000   1.0000   1.0000   1.0000   1.0000   1.0000   1.0000
     1.0000   1.0000   1.0000   1.0000   1.0000   1.0000   1.0000   1.0000
     1.0000   1.0000   1.0000   1.0000   1.0000   1.0000   1.0000   1.0000
     1.0000   1.0000   1.0000   1.0000   1.0000   1.0000   1.0000   1.0000
     1.0000   1.0000   1.0000   1.0000   1.0000   1.0000   1.0000   1.0000
     1.0000   1.0000   1.0000   1.0000   1.0000   1.0000   1.0000   1.0000
     1.0000   1.0000   1.0000   1.0000   1.0000   1.0000   1.0000   1.0000
     1.0000   1.0000   1.0000   1.0000   1.0000   1.0000   1.0000   1.0000
     1.0000   1.0000   1.0000   1.0000   1.0000   1.0000   1.0000   1.0000
     1.0000   1.0000   1.0000   1.0000   1.0000   1.0000   1.0000   1.0000
     1.0000   1.0000   1.0000   1.0000   1.0000   1.0000   1.0000   1.0000
     1.0000   1.0000   1.0000   1.0000   1.0000   1.0000   1.0000   1.0000
     1.0000   1.0000   1.0000   1.0000   1.0000   1.0000   1.0000   1.0000
     1.0000   1.0000   1.0000   1.0000   1.0000   1.0000   1.0000   1.0000
     1.0000   1.0000   1.0000   1.0000   1.0000   1.0000   1.0000   1.0000
     1.0000   1.0000   1.0000   1.0000   1.0000   1.0000   1.0000   1.0000
     1.0000   1.0000   1.0000   1.0000   1.0000   1.0000   1.0000   1.0000
     1.0000   1.0000   1.0000   1.0000   1.0000   1.0000   1.0000   1.0000
     1.0000   1.0000   1.0000   1.0000   1.0000   1.0000   1.0000   1.0000
     1.0000   1.0000   1.0000   1.0000   1.0000   1.0000   1.0000   1.0000
     1.0000   1.0000   1.0000   1.0000   1.0000   1.0000   1.0000   1.0000
     1.0000   1.0000   1.0000   1.0000   1.0000   1.0000   1.0000   1.0000
     1.0000   1.0000   1.0000   1.0000   1.0000   1.0000   1.0000   1.0000
     1.0000   1.0000   1.0000   1.0000   1.0000   1.0000   1.0000   1.0000
     1.0000   1.0000   1.0000   1.0000   1.0000   1.0000   1.0000   1.0000
     1.0000   1.0000   1.0000   1.0000   1.0000   1.0000   1.0000   1.0000
     1.0000   1.0000   1.0000   1.0000   1.0000   1.0000   1.0000   1.0000
     1.0000   1.0000   1.0000   1.0000   1.0000   1.0000   1.0000   1.0000
     1.0000   1.0000   1.0000   1.0000   1.0000   1.0000   1.0000   1.0000
     1.0000   1.0000   1.0000   1.0000   1.0000   1.0000   1.0000   1.0000
     1.0000   1.0000   1.0000   1.0000   1.0000   1.0000   1.0000   1.0000
     1.0000   1.0000   1.0000   1.0000   1.0000   1.0000   1.0000   1.0000
     1.0000   1.0000   1.0000   1.0000   1.0000   1.0000   1.0000   1.0000
     1.0000   1.0000   1.0000   1.0000   1.0000   1.0000   1.0000   1.0000
     1.0000   1.0000   1.0000   1.0000   1.0000   1.0000   1.0000   1.0000
     1.0000   1.0000   1.0000   1.0000   1.0000   1.0000   1.0000   1.0000
     1.0000   1.0000   1.0000   1.0000   1.0000   1.0000   1.0000   1.0000
     1.0000   1.0000   1.0000   1.0000   1.0000   1.0000   1.0000   1.0000
     1.0000   1.0000   1.0000   1.0000   1.0000   1.0000   1.0000   1.0000
     1.0000   1.0000   1.0000   1.0000   1.0000   1.0000   1.0000   1.0000
     1.0000   1.0000   1.0000   1.0000   1.0000   1.0000   1.0000   1.0000
     1.0000   1.0000   1.0000   1.0000   1.0000   1.0000   1.0000   1.0000
     1.0000   1.0000   1.0000   1.0000   1.0000   1.0000   1.0000   1.0000
     1.0000   1.0000   1.0000   1.0000   1.0000   1.0000   1.0000   1.0000
     1.0000   1.0000   1.0000   1.0000   1.0000   1.0000   1.0000   1.0000
     1.0000   1.0000   1.0000   1.0000   1.0000   1.0000   1.0000   1.0000
     1.0000   1.0000   1.0000   1.0000   1.0000   1.0000   1.0000   1.0000
     1.0000   1.0000   1.0000   1.0000   1.0000   1.0000   1.0000   1.0000
     1.0000   1.0000   1.0000   1.0000   1.0000   1.0000   1.0000   1.0000
     1.0000   1.0000   1.0000   1.0000   1.0000   1.0000   1.0000   1.0000
     1.0000   1.0000   1.0000   1.0000   1.0000   1.0000   1.0000   1.0000
     1.0000   1.0000   1.0000   1.0000   1.0000   1.0000   1.0000   1.0000
     1.0000   1.0000   1.0000   1.0000   1.0000   1.0000   1.0000   1.0000
     1.0000   1.0000   1.0000   1.0000   1.0000   1.0000   1.0000   1.0000
     1.0000   1.0000   1.0000   1.0000   1.0000   1.0000   1.0000   1.0000
     1.0000   1.0000   1.0000   1.0000   1.0000   1.0000   1.0000   1.0000
     1.0000   1.0000   1.0000   1.0000   1.0000   1.0000   1.0000   1.0000
     1.0000   1.0000   1.0000   1.0000   1.0000   1.0000   1.0000   1.0000
     1.0000   1.0000   1.0000   1.0000   1.0000   1.0000   1.0000   1.0000
     1.0000   1.0000   1.0000   1.0000   1.0000   1.0000   1.0000   1.0000
     1.0000   1.0000   1.0000   1.0000   1.0000   1.0000   1.0000   1.0000
     1.0000   1.0000   1.0000   1.0000   1.0000   1.0000   1.0000   1.0000
     1.0000   1.0000   1.0000   1.0000   1.0000   1.0000   1.0000   1.0000
     1.0000   1.0000   1.0000   1.0000   1.0000   1.0000   1.0000   1.0000
     1.0000   1.0000   1.0000   1.0000   1.0000   1.0000   1.0000   1.0000
     1.0000   1.0000   1.0000   1.0000   1.0000   1.0000   1.0000   1.0000
     1.0000   1.0000   1.0000   1.0000   1.0000   1.0000   1.0000   1.0000
     1.0000   1.0000   1.0000   1.0000   1.0000   1.0000   1.0000   1.0000
     1.0000   1.0000   1.0000   1.0000   1.0000   1.0000   1.0000   1.0000
     1.0000   1.0000   1.0000   1.0000   1.0000   1.0000   1.0000   1.0000
     1.0000   1.0000   1.0000   1.0000   1.0000   1.0000   1.0000   1.0000
     1.0000   1.0000   1.0000   1.0000   1.0000   1.0000   1.0000   1.0000
     1.0000   1.0000   1.0000   1.0000   1.0000   1.0000   1.0000   1.0000
     1.0000   1.0000   1.0000   1.0000   1.0000   1.0000   1.0000   1.0000
     1.0000   1.0000   1.0000   1.0000   1.0000   1.0000   1.0001   1.0002
     1.0002   1.0004   0.6521   0.5977   0.0545   0.0534   0.0176   0.0086
     0.0057   0.0005   0.0004   0.0000   0.0000   0.0000   0.0000   0.0000
     0.0000   0.0000   0.0000   0.0000   0.0000   0.0000   0.0000   0.0000
     0.0000   0.0000   0.0000   0.0000   0.0000   0.0000   0.0000   0.0000
     0.0000   0.0000   0.0000   0.0000   0.0000   0.0000   0.0000   0.0000
     0.0000   0.0000   0.0000   0.0000   0.0000   0.0000   0.0000   0.0000
     0.0000   0.0000   0.0000   0.0000   0.0000   0.0000   0.0000   0.0000
     0.0000   0.0000   0.0000   0.0000   0.0000   0.0000   0.0000   0.0000
     0.0000   0.0000   0.0000   0.0000   0.0000   0.0000   0.0000   0.0000
     0.0000   0.0000   0.0000   0.0000   0.0000   0.0000   0.0000   0.0000
     0.0000   0.0000   0.0000   0.0000   0.0000   0.0000   0.0000   0.0000
     0.0000   0.0000   0.0000   0.0000   0.0000   0.0000   0.0000   0.0000
     0.0000   0.0000   0.0000   0.0000   0.0000   0.0000   0.0000   0.0000
     0.0000   0.0000   0.0000   0.0000   0.0000   0.0000   0.0000   0.0000
     0.0000   0.0000   0.0000   0.0000   0.0000   0.0000   0.0000   0.0000
     0.0000   0.0000   0.0000   0.0000   0.0000   0.0000   0.0000   0.0000
     0.0000   0.0000   0.0000   0.0000   0.0000

          k = 0.3333 0.1925 0.0000 ( 90604 PWs)   bands (ev):

  -122.9456-122.9442-122.9432-122.9428-122.9424-122.9417-122.9414-122.9409
  -122.9407-122.9403-122.9402-122.9396-122.9392-122.9369-122.9357-122.9328
  -122.8988-122.8983-122.8973-122.8961-122.8944-122.8935-122.8906-122.8897
  -122.8895-122.8888-122.8882-122.8879-122.8869-122.8625-122.8583-122.8487
  -122.7467-122.7460-122.7457-122.7451-122.7447-122.7445-122.7442-122.7439
  -122.7436-122.7435-122.7433-122.7431-122.7425-122.7423-122.7415-122.7413
  -122.7217-122.7199-122.7169-122.7118-122.7077-122.7063-122.7049-122.7023
  -122.7021-122.7011-122.7004-122.7000-122.6998-122.6976-122.6962-122.5767
   -77.1072 -77.1070 -77.1060 -77.1038 -77.1028 -77.1020 -77.1016 -77.0989
   -77.0987 -77.0978 -77.0969 -77.0953 -77.0947 -77.0943 -77.0942 -77.0937
   -77.0931 -77.0926 -77.0922 -77.0919 -77.0917 -77.0916 -77.0911 -77.0910
   -77.0909 -77.0901 -77.0900 -77.0873 -77.0871 -77.0867 -77.0861 -77.0859
   -77.0857 -77.0839 -77.0835 -77.0833 -77.0823 -77.0816 -77.0808 -77.0807
   -77.0791 -77.0783 -77.0775 -77.0764 -77.0751 -77.0743 -77.0723 -77.0708
   -77.0587 -77.0575 -77.0566 -77.0544 -77.0529 -77.0518 -77.0506 -77.0498
   -77.0493 -77.0487 -77.0483 -77.0480 -77.0472 -77.0456 -77.0454 -77.0444
   -77.0439 -77.0418 -77.0411 -77.0410 -77.0409 -77.0406 -77.0400 -77.0394
   -77.0394 -77.0390 -77.0383 -77.0378 -77.0375 -77.0353 -77.0337 -77.0322
   -77.0309 -77.0306 -77.0289 -77.0281 -77.0270 -77.0249 -77.0241 -77.0143
   -77.0131 -77.0101 -77.0096 -77.0057 -77.0009 -77.0005 -76.9939 -76.9915
   -76.9073 -76.9066 -76.9058 -76.9054 -76.9047 -76.9043 -76.9042 -76.9038
   -76.9035 -76.9034 -76.9030 -76.9027 -76.9024 -76.9023 -76.9021 -76.9020
   -76.9019 -76.9017 -76.9014 -76.9008 -76.9006 -76.8996 -76.8996 -76.8994
   -76.8993 -76.8990 -76.8954 -76.8952 -76.8924 -76.8921 -76.8870 -76.8867
   -76.8864 -76.8863 -76.8838 -76.8837 -76.8831 -76.8830 -76.8815 -76.8814
   -76.8812 -76.8798 -76.8796 -76.8795 -76.8793 -76.8769 -76.8767 -76.8767
   -76.8763 -76.8749 -76.8749 -76.8732 -76.8718 -76.8713 -76.8703 -76.8681
   -76.8676 -76.8666 -76.8659 -76.8655 -76.8646 -76.8627 -76.8625 -76.8623
   -76.8615 -76.8609 -76.8606 -76.8604 -76.8600 -76.8589 -76.8580 -76.8572
   -76.8560 -76.8557 -76.8545 -76.8539 -76.8525 -76.8514 -76.8503 -76.8466
   -76.8451 -76.8440 -76.8426 -76.8419 -76.8411 -76.8398 -76.8383 -76.8370
   -76.8365 -76.8351 -76.8337 -76.8326 -76.8314 -76.7333 -76.7295 -76.7284
   -18.4579  -6.3537  -6.2078  -5.7468  -5.5682  -5.2080  -5.1975  -5.0388
    -4.9148  -4.8388  -4.7506  -4.7085  -4.7049  -4.7049  -4.6840  -4.6574
    -4.6499  -4.6484  -4.6412  -4.6391  -4.6349  -4.6180  -4.6123  -4.5570
    -4.5470  -4.5299  -4.5289  -4.5067  -4.5038  -4.5014  -4.4998  -4.4806
    -4.4684  -4.4499  -4.4484  -4.4394  -4.4379  -4.4319  -4.4282  -4.4124
    -4.4123  -4.3976  -4.3954  -4.3936  -4.3900  -4.3894  -4.3788  -4.3775
    -4.3753  -4.3620  -4.3600  -4.3433  -4.3359  -4.3338  -4.3305  -4.3266
    -4.3250  -4.3082  -4.3053  -4.3042  -4.2991  -4.2966  -4.2933  -4.2923
    -4.2859  -4.2638  -4.2637  -4.2548  -4.2485  -4.2380  -4.2368  -4.2326
    -4.2319  -4.2264  -4.2249  -4.2167  -4.1794  -4.1768  -4.1722  -4.1710
    -4.1654  -4.1552  -4.1529  -4.1497  -4.1455  -4.1417  -4.1407  -4.1312
    -4.1129  -4.1118  -4.1070  -4.1038  -4.1021  -4.1006  -4.0994  -4.0900
    -4.0882  -4.0787  -4.0764  -4.0722  -4.0682  -4.0656  -4.0617  -4.0610
    -4.0575  -4.0540  -4.0446  -4.0393  -4.0381  -4.0310  -4.0295  -4.0267
    -4.0188  -3.9897  -3.9873  -3.9756  -3.9729  -3.9646  -3.9620  -3.9581
    -3.9568  -3.9549  -3.9515  -3.9513  -3.9480  -3.9474  -3.9394  -3.9388
    -3.9236  -3.9176  -3.9093  -3.9068  -3.8996  -3.8931  -3.8816  -3.8790
    -3.8767  -3.8756  -3.8727  -3.8718  -3.8621  -3.8491  -3.8427  -3.8388
    -3.8350  -3.8312  -3.8258  -3.8225  -3.8148  -3.8088  -3.8076  -3.8025
    -3.7969  -3.7918  -3.7849  -3.7798  -3.7787  -3.7736  -3.7688  -3.7623
    -3.7491  -3.7485  -3.7396  -3.7392  -3.7366  -3.7312  -3.7241  -3.7231
    -3.7199  -3.7060  -3.6903  -3.6896  -3.6811  -3.6737  -3.6734  -3.6722
    -3.6709  -3.6702  -3.6693  -3.6680  -3.6638  -3.6607  -3.6598  -3.6474
    -3.6456  -3.6374  -3.6363  -3.6351  -3.6343  -3.6324  -3.6302  -3.6188
    -3.6180  -3.6150  -3.6148  -3.6132  -3.6075  -3.6015  -3.5926  -3.5906
    -3.5886  -3.5847  -3.5814  -3.5705  -3.5688  -3.5646  -3.5612  -3.5560
    -3.5554  -3.5546  -3.5537  -3.5527  -3.5477  -3.5457  -3.5447  -3.5376
    -3.5345  -3.5272  -3.5268  -3.5251  -3.5238  -3.5217  -3.5213  -3.5197
    -3.5143  -3.5134  -3.5063  -3.4934  -3.4881  -3.4866  -3.4806  -3.4793
    -3.4670  -3.4633  -3.4610  -3.4557  -3.4450  -3.4339  -3.4323  -3.4299
    -3.4269  -3.4263  -3.4256  -3.4247  -3.4243  -3.4232  -3.4203  -3.4195
    -3.4143  -3.4074  -3.4043  -3.4011  -3.4006  -3.3994  -3.3980  -3.3950
    -3.3942  -3.3917  -3.3910  -3.3886  -3.3824  -3.3753  -3.3718  -3.3684
    -3.3670  -3.3620  -3.3550  -3.3484  -3.3405  -3.3394  -3.3373  -3.3361
    -3.3313  -3.3306  -3.3293  -3.3162  -3.3084  -3.3059  -3.3041  -3.3033
    -3.3030  -3.2983  -3.2970  -3.2950  -3.2936  -3.2920  -3.2910  -3.2884
    -3.2827  -3.2814  -3.2799  -3.2783  -3.2757  -3.2746  -3.2718  -3.2699
    -3.2687  -3.2663  -3.2593  -3.2591  -3.2441  -3.2419  -3.2386  -3.2349
    -3.2273  -3.2245  -3.2236  -3.2204  -3.2089  -3.1951  -3.1943  -3.1776
    -3.1732  -3.1681  -3.1678  -3.1677  -3.1588  -3.1548  -3.1501  -3.1348
    -3.1340  -3.1206  -3.0970  -3.0867  -3.0448  -3.0444  -3.0099  -3.0034
    -3.0001  -2.9670  -2.8899  -2.8851  -2.8541  -2.6341  -2.5466  -2.3488
    -2.2261  -2.2031  -1.8899  -1.8627  -1.7353  -1.7266  -1.7150  -1.0758
    -0.9550  -0.9261  -0.8357  -0.7773  -0.7167  -0.6262  -0.4097  -0.2068
     0.0058   0.0571   0.0771   0.0783   0.1312   0.4756   0.4888   0.5681
     0.5719   0.9184   0.9210   1.0596   1.0679   1.3603   1.3744   1.3870
     1.5220   1.5866   2.0106   2.0234   2.1700   2.2374   2.2387   2.3036
     2.3056   2.5484   2.5538   2.8507   2.8722   2.8934   2.9313   2.9869
     2.9948   3.0306   3.8326   3.8520   4.1482   4.1498   4.2359   4.2846
     4.3123   4.4491   4.4632   4.6848   4.7013   4.8655   4.9429   5.0483
     5.0807   5.0904   5.4632   5.5025   5.5283   5.5298   5.5948   5.6096
     5.6829   5.6954   5.7107   5.7944   5.8032   6.1428   6.1503   6.2458
     6.2526   6.2893   6.5533   6.7022   6.7242   6.9418   6.9513   6.9593
     7.1092   7.1193   7.2085   7.2155   7.2409   7.2936   7.3107   7.4222
     7.4387   7.4477   7.6352   7.7516   7.8342   7.8619   7.8703   7.8766
     7.8989   7.9575   8.0128   8.0177   8.0464   8.0604   8.0665   8.4088
     8.4262   8.4311   8.4434   8.5337   8.6075   8.6386   8.6534   8.6692
     8.7212   8.7632   8.9154   9.0449   9.0565   9.0613   9.1593   9.1685
     9.2139   9.2717   9.3061   9.3342   9.4972   9.5453   9.5530   9.5802
     9.6135   9.6494   9.6885   9.7591   9.7951   9.8324   9.8839   9.9151
    10.0141  10.0324  10.0498  10.1309  10.1650  10.1779  10.1989  10.2517
    10.3105  10.3280  10.3957  10.4365  10.4844  10.5830  10.5930  10.6064
    10.6284  10.7452  10.7776  10.7871  10.9124  10.9868  11.0031  11.0273
    11.0362  11.0533  11.0830  11.0881  11.1384  11.1634  11.2157  11.3134
    11.4017  11.4564  11.5532  11.6253  11.6734

     occupation numbers 
     1.0000   1.0000   1.0000   1.0000   1.0000   1.0000   1.0000   1.0000
     1.0000   1.0000   1.0000   1.0000   1.0000   1.0000   1.0000   1.0000
     1.0000   1.0000   1.0000   1.0000   1.0000   1.0000   1.0000   1.0000
     1.0000   1.0000   1.0000   1.0000   1.0000   1.0000   1.0000   1.0000
     1.0000   1.0000   1.0000   1.0000   1.0000   1.0000   1.0000   1.0000
     1.0000   1.0000   1.0000   1.0000   1.0000   1.0000   1.0000   1.0000
     1.0000   1.0000   1.0000   1.0000   1.0000   1.0000   1.0000   1.0000
     1.0000   1.0000   1.0000   1.0000   1.0000   1.0000   1.0000   1.0000
     1.0000   1.0000   1.0000   1.0000   1.0000   1.0000   1.0000   1.0000
     1.0000   1.0000   1.0000   1.0000   1.0000   1.0000   1.0000   1.0000
     1.0000   1.0000   1.0000   1.0000   1.0000   1.0000   1.0000   1.0000
     1.0000   1.0000   1.0000   1.0000   1.0000   1.0000   1.0000   1.0000
     1.0000   1.0000   1.0000   1.0000   1.0000   1.0000   1.0000   1.0000
     1.0000   1.0000   1.0000   1.0000   1.0000   1.0000   1.0000   1.0000
     1.0000   1.0000   1.0000   1.0000   1.0000   1.0000   1.0000   1.0000
     1.0000   1.0000   1.0000   1.0000   1.0000   1.0000   1.0000   1.0000
     1.0000   1.0000   1.0000   1.0000   1.0000   1.0000   1.0000   1.0000
     1.0000   1.0000   1.0000   1.0000   1.0000   1.0000   1.0000   1.0000
     1.0000   1.0000   1.0000   1.0000   1.0000   1.0000   1.0000   1.0000
     1.0000   1.0000   1.0000   1.0000   1.0000   1.0000   1.0000   1.0000
     1.0000   1.0000   1.0000   1.0000   1.0000   1.0000   1.0000   1.0000
     1.0000   1.0000   1.0000   1.0000   1.0000   1.0000   1.0000   1.0000
     1.0000   1.0000   1.0000   1.0000   1.0000   1.0000   1.0000   1.0000
     1.0000   1.0000   1.0000   1.0000   1.0000   1.0000   1.0000   1.0000
     1.0000   1.0000   1.0000   1.0000   1.0000   1.0000   1.0000   1.0000
     1.0000   1.0000   1.0000   1.0000   1.0000   1.0000   1.0000   1.0000
     1.0000   1.0000   1.0000   1.0000   1.0000   1.0000   1.0000   1.0000
     1.0000   1.0000   1.0000   1.0000   1.0000   1.0000   1.0000   1.0000
     1.0000   1.0000   1.0000   1.0000   1.0000   1.0000   1.0000   1.0000
     1.0000   1.0000   1.0000   1.0000   1.0000   1.0000   1.0000   1.0000
     1.0000   1.0000   1.0000   1.0000   1.0000   1.0000   1.0000   1.0000
     1.0000   1.0000   1.0000   1.0000   1.0000   1.0000   1.0000   1.0000
     1.0000   1.0000   1.0000   1.0000   1.0000   1.0000   1.0000   1.0000
     1.0000   1.0000   1.0000   1.0000   1.0000   1.0000   1.0000   1.0000
     1.0000   1.0000   1.0000   1.0000   1.0000   1.0000   1.0000   1.0000
     1.0000   1.0000   1.0000   1.0000   1.0000   1.0000   1.0000   1.0000
     1.0000   1.0000   1.0000   1.0000   1.0000   1.0000   1.0000   1.0000
     1.0000   1.0000   1.0000   1.0000   1.0000   1.0000   1.0000   1.0000
     1.0000   1.0000   1.0000   1.0000   1.0000   1.0000   1.0000   1.0000
     1.0000   1.0000   1.0000   1.0000   1.0000   1.0000   1.0000   1.0000
     1.0000   1.0000   1.0000   1.0000   1.0000   1.0000   1.0000   1.0000
     1.0000   1.0000   1.0000   1.0000   1.0000   1.0000   1.0000   1.0000
     1.0000   1.0000   1.0000   1.0000   1.0000   1.0000   1.0000   1.0000
     1.0000   1.0000   1.0000   1.0000   1.0000   1.0000   1.0000   1.0000
     1.0000   1.0000   1.0000   1.0000   1.0000   1.0000   1.0000   1.0000
     1.0000   1.0000   1.0000   1.0000   1.0000   1.0000   1.0000   1.0000
     1.0000   1.0000   1.0000   1.0000   1.0000   1.0000   1.0000   1.0000
     1.0000   1.0000   1.0000   1.0000   1.0000   1.0000   1.0000   1.0000
     1.0000   1.0000   1.0000   1.0000   1.0000   1.0000   1.0000   1.0000
     1.0000   1.0000   1.0000   1.0000   1.0000   1.0000   1.0000   1.0000
     1.0000   1.0000   1.0000   1.0000   1.0000   1.0000   1.0000   1.0000
     1.0000   1.0000   1.0000   1.0000   1.0000   1.0000   1.0000   1.0000
     1.0000   1.0000   1.0000   1.0000   1.0000   1.0000   1.0000   1.0000
     1.0000   1.0000   1.0000   1.0000   1.0000   1.0000   1.0000   1.0000
     1.0000   1.0000   1.0000   1.0000   1.0000   1.0000   1.0000   1.0000
     1.0000   1.0000   1.0000   1.0000   1.0000   1.0000   1.0000   1.0000
     1.0000   1.0000   1.0000   1.0000   1.0000   1.0000   1.0000   1.0000
     1.0000   1.0000   1.0000   1.0000   1.0000   1.0000   1.0000   1.0000
     1.0000   1.0000   1.0000   1.0000   1.0000   1.0000   1.0000   1.0000
     1.0000   1.0000   1.0000   1.0000   1.0000   1.0000   1.0000   1.0000
     1.0000   1.0000   1.0000   1.0000   1.0000   1.0000   1.0000   1.0000
     1.0000   1.0000   1.0000   1.0000   1.0000   1.0000   1.0000   1.0000
     1.0000   1.0000   1.0000   1.0000   1.0000   1.0000   1.0000   1.0000
     1.0000   1.0000   1.0000   1.0000   1.0000   1.0000   1.0000   1.0000
     1.0000   1.0000   1.0000   1.0000   1.0000   1.0000   1.0000   1.0000
     1.0000   1.0000   1.0000   1.0000   1.0000   1.0000   1.0000   1.0000
     1.0000   1.0000   1.0000   1.0000   1.0000   1.0000   1.0000   1.0000
     1.0000   1.0000   1.0000   1.0000   1.0000   1.0000   1.0000   1.0000
     1.0000   1.0000   1.0000   1.0000   1.0000   1.0000   1.0000   1.0000
     1.0000   1.0000   1.0000   1.0000   1.0000   1.0000   1.0000   1.0000
     1.0000   1.0000   1.0000   1.0000   1.0000   1.0000   1.0000   1.0000
     1.0000   1.0000   1.0000   1.0000   1.0000   1.0000   1.0000   1.0000
     1.0000   1.0000   1.0000   1.0000   1.0000   1.0000   1.0000   1.0000
     1.0000   1.0000   1.0000   1.0000   1.0000   1.0000   1.0000   1.0000
     1.0000   1.0000   1.0000   1.0000   1.0000   1.0000   1.0000   1.0000
     1.0000   1.0000   1.0000   1.0000   1.0000   1.0000   1.0000   1.0000
     1.0000   1.0000   1.0000   1.0000   1.0000   1.0000   1.0000   1.0000
     1.0000   1.0000   1.0000   1.0000   1.0000   1.0000   1.0000   1.0000
     1.0000   1.0000   1.0000   1.0000   1.0000   1.0000   1.0000   1.0000
     1.0000   1.0000   1.0000   1.0000   1.0000   1.0000   1.0001   1.0002
     1.0002   1.0004   0.6516   0.5980   0.0545   0.0534   0.0176   0.0086
     0.0056   0.0005   0.0004   0.0000   0.0000   0.0000   0.0000   0.0000
     0.0000   0.0000   0.0000   0.0000   0.0000   0.0000   0.0000   0.0000
     0.0000   0.0000   0.0000   0.0000   0.0000   0.0000   0.0000   0.0000
     0.0000   0.0000   0.0000   0.0000   0.0000   0.0000   0.0000   0.0000
     0.0000   0.0000   0.0000   0.0000   0.0000   0.0000   0.0000   0.0000
     0.0000   0.0000   0.0000   0.0000   0.0000   0.0000   0.0000   0.0000
     0.0000   0.0000   0.0000   0.0000   0.0000   0.0000   0.0000   0.0000
     0.0000   0.0000   0.0000   0.0000   0.0000   0.0000   0.0000   0.0000
     0.0000   0.0000   0.0000   0.0000   0.0000   0.0000   0.0000   0.0000
     0.0000   0.0000   0.0000   0.0000   0.0000   0.0000   0.0000   0.0000
     0.0000   0.0000   0.0000   0.0000   0.0000   0.0000   0.0000   0.0000
     0.0000   0.0000   0.0000   0.0000   0.0000   0.0000   0.0000   0.0000
     0.0000   0.0000   0.0000   0.0000   0.0000   0.0000   0.0000   0.0000
     0.0000   0.0000   0.0000   0.0000   0.0000   0.0000   0.0000   0.0000
     0.0000   0.0000   0.0000   0.0000   0.0000   0.0000   0.0000   0.0000
     0.0000   0.0000   0.0000   0.0000   0.0000

          k = 0.3333 0.5774 0.0000 ( 90726 PWs)   bands (ev):

  -122.9456-122.9443-122.9433-122.9426-122.9424-122.9417-122.9415-122.9409
  -122.9405-122.9404-122.9401-122.9396-122.9392-122.9369-122.9357-122.9328
  -122.8988-122.8983-122.8973-122.8961-122.8944-122.8935-122.8906-122.8896
  -122.8895-122.8888-122.8882-122.8879-122.8869-122.8625-122.8583-122.8487
  -122.7465-122.7461-122.7459-122.7449-122.7447-122.7445-122.7442-122.7438
  -122.7437-122.7435-122.7434-122.7431-122.7425-122.7424-122.7415-122.7413
  -122.7217-122.7199-122.7169-122.7118-122.7077-122.7063-122.7049-122.7023
  -122.7021-122.7011-122.7004-122.7000-122.6998-122.6976-122.6962-122.5767
   -77.1063 -77.1056 -77.1050 -77.1036 -77.1033 -77.1024 -77.1017 -77.1008
   -77.1007 -77.0969 -77.0968 -77.0967 -77.0953 -77.0943 -77.0936 -77.0932
   -77.0928 -77.0926 -77.0924 -77.0923 -77.0922 -77.0918 -77.0915 -77.0912
   -77.0909 -77.0902 -77.0899 -77.0879 -77.0873 -77.0871 -77.0861 -77.0861
   -77.0835 -77.0827 -77.0826 -77.0820 -77.0814 -77.0809 -77.0806 -77.0798
   -77.0793 -77.0791 -77.0781 -77.0770 -77.0767 -77.0741 -77.0722 -77.0716
   -77.0584 -77.0565 -77.0557 -77.0546 -77.0529 -77.0524 -77.0505 -77.0503
   -77.0498 -77.0495 -77.0492 -77.0483 -77.0472 -77.0456 -77.0454 -77.0444
   -77.0428 -77.0426 -77.0418 -77.0412 -77.0409 -77.0407 -77.0400 -77.0394
   -77.0392 -77.0390 -77.0383 -77.0377 -77.0365 -77.0339 -77.0329 -77.0321
   -77.0312 -77.0305 -77.0293 -77.0282 -77.0269 -77.0259 -77.0239 -77.0143
   -77.0131 -77.0101 -77.0095 -77.0058 -77.0009 -77.0006 -76.9940 -76.9915
   -76.9056 -76.9054 -76.9054 -76.9053 -76.9048 -76.9045 -76.9036 -76.9033
   -76.9032 -76.9031 -76.9030 -76.9028 -76.9027 -76.9026 -76.9023 -76.9023
   -76.9021 -76.9021 -76.9020 -76.9018 -76.9014 -76.9008 -76.9006 -76.8996
   -76.8993 -76.8980 -76.8979 -76.8933 -76.8932 -76.8931 -76.8876 -76.8874
   -76.8872 -76.8823 -76.8822 -76.8820 -76.8820 -76.8816 -76.8815 -76.8814
   -76.8805 -76.8800 -76.8798 -76.8796 -76.8793 -76.8790 -76.8790 -76.8765
   -76.8763 -76.8747 -76.8745 -76.8742 -76.8718 -76.8713 -76.8697 -76.8681
   -76.8671 -76.8667 -76.8659 -76.8655 -76.8641 -76.8634 -76.8627 -76.8624
   -76.8615 -76.8612 -76.8609 -76.8606 -76.8604 -76.8594 -76.8578 -76.8573
   -76.8572 -76.8558 -76.8553 -76.8538 -76.8521 -76.8506 -76.8487 -76.8473
   -76.8453 -76.8435 -76.8426 -76.8418 -76.8397 -76.8390 -76.8384 -76.8371
   -76.8367 -76.8358 -76.8339 -76.8332 -76.8313 -76.7334 -76.7295 -76.7284
   -18.4579  -6.2080  -5.9503  -5.9451  -5.9289  -5.2098  -5.2083  -5.1750
    -4.6921  -4.6912  -4.6892  -4.6505  -4.6503  -4.6499  -4.6486  -4.6479
    -4.6477  -4.6377  -4.6356  -4.6130  -4.5867  -4.5863  -4.5841  -4.5816
    -4.5752  -4.5738  -4.5364  -4.5355  -4.5352  -4.5335  -4.5320  -4.5262
    -4.4798  -4.4759  -4.4755  -4.4706  -4.4701  -4.4699  -4.4672  -4.4667
    -4.4657  -4.4235  -4.4227  -4.4190  -4.3796  -4.3795  -4.3790  -4.3722
    -4.3648  -4.3637  -4.3241  -4.3222  -4.3173  -4.3122  -4.3115  -4.3114
    -4.3090  -4.3078  -4.3001  -4.2902  -4.2894  -4.2881  -4.2834  -4.2830
    -4.2811  -4.2571  -4.2560  -4.2548  -4.2527  -4.2515  -4.2490  -4.2487
    -4.2476  -4.2470  -4.2461  -4.2415  -4.2403  -4.2328  -4.2060  -4.2040
    -4.1943  -4.1904  -4.1821  -4.1752  -4.1620  -4.1547  -4.1436  -4.1429
    -4.1391  -4.1329  -4.1298  -4.1279  -4.1080  -4.1058  -4.1000  -4.0963
    -4.0917  -4.0805  -4.0777  -4.0751  -4.0739  -4.0716  -4.0713  -4.0706
    -4.0674  -4.0670  -4.0661  -4.0550  -4.0522  -4.0321  -4.0236  -4.0223
    -4.0181  -4.0152  -3.9954  -3.9944  -3.9895  -3.9890  -3.9876  -3.9847
    -3.9626  -3.9611  -3.9598  -3.9421  -3.9403  -3.9390  -3.9321  -3.9297
    -3.9277  -3.9169  -3.9143  -3.9123  -3.9065  -3.9048  -3.9001  -3.8895
    -3.8834  -3.8801  -3.8762  -3.8730  -3.8724  -3.8701  -3.8451  -3.8355
    -3.8350  -3.8348  -3.8309  -3.8297  -3.8294  -3.8290  -3.8142  -3.8076
    -3.7872  -3.7765  -3.7746  -3.7704  -3.7697  -3.7644  -3.7614  -3.7611
    -3.7589  -3.7578  -3.7559  -3.7520  -3.7509  -3.7345  -3.7344  -3.7341
    -3.7335  -3.7326  -3.7302  -3.7296  -3.7260  -3.7110  -3.7093  -3.7088
    -3.7082  -3.7065  -3.7040  -3.6930  -3.6909  -3.6648  -3.6616  -3.6605
    -3.6414  -3.6410  -3.6406  -3.6185  -3.5946  -3.5939  -3.5929  -3.5866
    -3.5846  -3.5838  -3.5681  -3.5646  -3.5635  -3.5624  -3.5594  -3.5572
    -3.5561  -3.5559  -3.5509  -3.5506  -3.5481  -3.5462  -3.5456  -3.5419
    -3.5417  -3.5377  -3.5367  -3.5354  -3.5320  -3.5253  -3.5240  -3.5229
    -3.5210  -3.5206  -3.5178  -3.5099  -3.5088  -3.5081  -3.5063  -3.5047
    -3.5020  -3.5002  -3.4984  -3.4980  -3.4941  -3.4874  -3.4863  -3.4313
    -3.4305  -3.4288  -3.4178  -3.4139  -3.4122  -3.4108  -3.4091  -3.4079
    -3.4014  -3.3991  -3.3977  -3.3959  -3.3944  -3.3936  -3.3935  -3.3896
    -3.3866  -3.3854  -3.3836  -3.3825  -3.3813  -3.3811  -3.3798  -3.3796
    -3.3784  -3.3762  -3.3758  -3.3722  -3.3682  -3.3659  -3.3638  -3.3631
    -3.3629  -3.3597  -3.3403  -3.3371  -3.3363  -3.3345  -3.3325  -3.3315
    -3.3268  -3.3260  -3.3243  -3.3223  -3.3212  -3.3202  -3.3178  -3.3168
    -3.3145  -3.3125  -3.3119  -3.3084  -3.3075  -3.3054  -3.3016  -3.2961
    -3.2876  -3.2749  -3.2748  -3.2741  -3.2740  -3.2726  -3.2718  -3.2692
    -3.2637  -3.2587  -3.2561  -3.2531  -3.2526  -3.2514  -3.2498  -3.2485
    -3.2481  -3.2458  -3.2421  -3.2395  -3.2373  -3.2347  -3.2211  -3.2206
    -3.2202  -3.1863  -3.1638  -3.1610  -3.1318  -3.1317  -3.1316  -3.1310
    -3.1309  -3.1306  -3.0991  -3.0939  -3.0910  -3.0891  -3.0775  -3.0774
    -2.9009  -2.8988  -2.8981  -2.7135  -2.5087  -2.5049  -2.4516  -2.3277
    -2.3261  -2.2948  -1.4751  -1.4736  -1.4716  -1.4652  -1.4645  -1.4500
    -1.0989  -0.9430  -0.9397  -0.8330  -0.6518  -0.6512  -0.6482  -0.6347
    -0.6314  -0.6271  -0.6256  -0.5764  -0.3519   0.7986   0.8014   0.8020
     0.8037   0.8081   0.8383   0.8922   0.8948   0.9235   1.8900   1.8943
     1.9443   2.1090   2.1129   2.1147   2.5102   2.5133   2.5144   2.5170
     2.5262   2.5332   2.5345   2.5365   2.5629   2.9508   2.9620   2.9648
     3.1880   3.1905   3.2032   4.0578   4.0622   4.1084   4.2506   4.3229
     4.3965   4.6329   4.6615   4.6817   4.9810   4.9897   4.9979   5.0631
     5.1598   5.2144   5.2205   5.2338   5.3167   5.9381   5.9442   5.9713
     5.9736   5.9790   6.0483   6.2186   6.2287   6.2313   6.3186   6.4280
     6.4301   6.4311   6.4355   6.4446   6.4460   6.5058   6.5306   6.6101
     6.6738   6.9207   6.9333   6.9490   6.9651   6.9807   6.9889   7.0348
     7.2147   7.2169   7.2196   7.2320   7.2495   7.2638   7.5526   7.7386
     7.7815   7.8180   7.8586   7.9078   8.0151   8.1869   8.2552   8.2730
     8.2982   8.3091   8.3228   8.5509   8.6351   8.6385   8.6772   8.6959
     8.7096   8.7255   8.7290   8.7388   8.7481   8.7642   9.0723   9.0920
     9.1307   9.1699   9.2753   9.4682   9.4937   9.5438   9.5626   9.5923
     9.6199   9.6823   9.6970   9.7011   9.7232   9.8833   9.8838   9.8880
    10.0947  10.3300  10.3833  10.4353  10.4545  10.4676  10.5344  10.5519
    10.5569  10.5697  10.6527  10.6704  10.7559  10.7661  10.7874  10.7921
    10.7964  10.8063  11.0063  11.0433  11.0709  11.1048  11.2047  11.2581
    11.3047  11.3183  11.3600  11.3930  11.4217  11.4469  11.4579  11.4766
[...]
     atom   42 type  1   force =     0.00000000    0.00000000    0.00000000
     atom   43 type  1   force =     0.00000000    0.00000000    0.00000000
     atom   44 type  1   force =     0.00000000    0.00000000    0.00000000
     atom   45 type  1   force =     0.00000000    0.00000000    0.00000000
     atom   46 type  1   force =     0.00000000    0.00000000    0.00000000
     atom   47 type  1   force =     0.00000000    0.00000000    0.00000000
     atom   48 type  1   force =     0.00000000    0.00000000    0.00000000
     atom   49 type  1   force =     0.00000000    0.00000000    0.00000000
     atom   50 type  1   force =     0.00000000    0.00000000    0.00000000
     atom   51 type  1   force =     0.00000000    0.00000000    0.00000000
     atom   52 type  1   force =     0.00000000    0.00000000    0.00000000
     atom   53 type  1   force =     0.00000000    0.00000000    0.00000000
     atom   54 type  1   force =     0.00000000    0.00000000    0.00000000
     atom   55 type  1   force =     0.00000000    0.00000000    0.00000000
     atom   56 type  1   force =     0.00000000    0.00000000    0.00000000
     atom   57 type  1   force =     0.00000000    0.00000000    0.00000000
     atom   58 type  1   force =     0.00000000    0.00000000    0.00000000
     atom   59 type  1   force =     0.00000000    0.00000000    0.00000000
     atom   60 type  1   force =     0.00000000    0.00000000    0.00000000
     atom   61 type  1   force =     0.00000000    0.00000000    0.00000000
     atom   62 type  1   force =     0.00000000    0.00000000    0.00000000
     atom   63 type  1   force =     0.00000000    0.00000000    0.00000000
     atom   64 type  1   force =     0.00000000    0.00000000    0.00000000
     atom   65 type  2   force =    -0.01856217    0.01267121   -0.00773029
     atom   66 type  3   force =     0.00000000    0.00000000    0.00000000
     atom   67 type  3   force =     0.00000000    0.00000000    0.00000000
     The Hubbard contrib.    to forces
     atom    1 type  1   force =     0.00000000    0.00000000    0.00000000
     atom    2 type  1   force =     0.00000000    0.00000000    0.00000000
     atom    3 type  1   force =     0.00000000    0.00000000    0.00000000
     atom    4 type  1   force =     0.00000000    0.00000000    0.00000000
     atom    5 type  1   force =     0.00000000    0.00000000    0.00000000
     atom    6 type  1   force =     0.00000000    0.00000000    0.00000000
     atom    7 type  1   force =     0.00000000    0.00000000    0.00000000
     atom    8 type  1   force =     0.00000000    0.00000000    0.00000000
     atom    9 type  1   force =     0.00000000    0.00000000    0.00000000
     atom   10 type  1   force =     0.00000000    0.00000000    0.00000000
     atom   11 type  1   force =     0.00000000    0.00000000    0.00000000
     atom   12 type  1   force =     0.00000000    0.00000000    0.00000000
     atom   13 type  1   force =     0.00000000    0.00000000    0.00000000
     atom   14 type  1   force =     0.00000000    0.00000000    0.00000000
     atom   15 type  1   force =     0.00000000    0.00000000    0.00000000
     atom   16 type  1   force =     0.00000000    0.00000000    0.00000000
     atom   17 type  1   force =     0.00000000    0.00000000    0.00000000
     atom   18 type  1   force =     0.00000000    0.00000000    0.00000000
     atom   19 type  1   force =     0.00000000    0.00000000    0.00000000
     atom   20 type  1   force =     0.00000000    0.00000000    0.00000000
     atom   21 type  1   force =     0.00000000    0.00000000    0.00000000
     atom   22 type  1   force =     0.00000000    0.00000000    0.00000000
     atom   23 type  1   force =     0.00000000    0.00000000    0.00000000
     atom   24 type  1   force =     0.00000000    0.00000000    0.00000000
     atom   25 type  1   force =     0.00000000    0.00000000    0.00000000
     atom   26 type  1   force =     0.00000000    0.00000000    0.00000000
     atom   27 type  1   force =     0.00000000    0.00000000    0.00000000
     atom   28 type  1   force =     0.00000000    0.00000000    0.00000000
     atom   29 type  1   force =     0.00000000    0.00000000    0.00000000
     atom   30 type  1   force =     0.00000000    0.00000000    0.00000000
     atom   31 type  1   force =     0.00000000    0.00000000    0.00000000
     atom   32 type  1   force =     0.00000000    0.00000000    0.00000000
     atom   33 type  1   force =     0.00000000    0.00000000    0.00000000
     atom   34 type  1   force =     0.00000000    0.00000000    0.00000000
     atom   35 type  1   force =     0.00000000    0.00000000    0.00000000
     atom   36 type  1   force =     0.00000000    0.00000000    0.00000000
     atom   37 type  1   force =     0.00000000    0.00000000    0.00000000
     atom   38 type  1   force =     0.00000000    0.00000000    0.00000000
     atom   39 type  1   force =     0.00000000    0.00000000    0.00000000
     atom   40 type  1   force =     0.00000000    0.00000000    0.00000000
     atom   41 type  1   force =     0.00000000    0.00000000    0.00000000
     atom   42 type  1   force =     0.00000000    0.00000000    0.00000000
     atom   43 type  1   force =     0.00000000    0.00000000    0.00000000
     atom   44 type  1   force =     0.00000000    0.00000000    0.00000000
     atom   45 type  1   force =     0.00000000    0.00000000    0.00000000
     atom   46 type  1   force =     0.00000000    0.00000000    0.00000000
     atom   47 type  1   force =     0.00000000    0.00000000    0.00000000
     atom   48 type  1   force =     0.00000000    0.00000000    0.00000000
     atom   49 type  1   force =     0.00000000    0.00000000    0.00000000
     atom   50 type  1   force =     0.00000000    0.00000000    0.00000000
     atom   51 type  1   force =     0.00000000    0.00000000    0.00000000
     atom   52 type  1   force =     0.00000000    0.00000000    0.00000000
     atom   53 type  1   force =     0.00000000    0.00000000    0.00000000
     atom   54 type  1   force =     0.00000000    0.00000000    0.00000000
     atom   55 type  1   force =     0.00000000    0.00000000    0.00000000
     atom   56 type  1   force =     0.00000000    0.00000000    0.00000000
     atom   57 type  1   force =     0.00000000    0.00000000    0.00000000
     atom   58 type  1   force =     0.00000000    0.00000000    0.00000000
     atom   59 type  1   force =     0.00000000    0.00000000    0.00000000
     atom   60 type  1   force =     0.00000000    0.00000000    0.00000000
     atom   61 type  1   force =     0.00000000    0.00000000    0.00000000
     atom   62 type  1   force =     0.00000000    0.00000000    0.00000000
     atom   63 type  1   force =     0.00000000    0.00000000    0.00000000
     atom   64 type  1   force =     0.00000000    0.00000000    0.00000000
     atom   65 type  2   force =     0.00000000    0.00000000    0.00000000
     atom   66 type  3   force =     0.00000000    0.00000000    0.00000000
     atom   67 type  3   force =     0.00000000    0.00000000    0.00000000
     The SCF correction term to forces
     atom    1 type  1   force =     0.00013607   -0.00015889   -0.00077510
     atom    2 type  1   force =    -0.00012290    0.00013726   -0.00082709
     atom    3 type  1   force =    -0.00002115   -0.00012336    0.00012517
     atom    4 type  1   force =     0.00002898   -0.00014833    0.00019508
     atom    5 type  1   force =     0.00002586   -0.00023509   -0.00074783
     atom    6 type  1   force =    -0.00005379    0.00001896   -0.00079707
     atom    7 type  1   force =     0.00003282    0.00005820   -0.00002100
     atom    8 type  1   force =    -0.00000792    0.00001874   -0.00001186
     atom    9 type  1   force =    -0.00034024    0.00009984   -0.00080026
     atom   10 type  1   force =     0.00030438   -0.00005694   -0.00066744
     atom   11 type  1   force =     0.00013379    0.00010589    0.00007381
     atom   12 type  1   force =    -0.00009856    0.00014395   -0.00023764
     atom   13 type  1   force =    -0.00015757    0.00010290   -0.00081334
     atom   14 type  1   force =     0.00020767    0.00009598   -0.00070900
     atom   15 type  1   force =    -0.00000544   -0.00000806    0.00026586
     atom   16 type  1   force =    -0.00001338   -0.00006338   -0.00002143
     atom   17 type  1   force =    -0.00010981    0.00005449   -0.00079945
     atom   18 type  1   force =     0.00009630   -0.00008232   -0.00080442
     atom   19 type  1   force =    -0.00006300   -0.00017411    0.00012681
     atom   20 type  1   force =     0.00005383   -0.00009632    0.00018809
     atom   21 type  1   force =     0.00023409   -0.00023808   -0.00069915
     atom   22 type  1   force =    -0.00020343    0.00001171   -0.00083562
     atom   23 type  1   force =    -0.00012256    0.00008076   -0.00024084
     atom   24 type  1   force =     0.00008484    0.00002914    0.00018962
     atom   25 type  1   force =     0.00013383   -0.00004568   -0.00055290
     atom   26 type  1   force =    -0.00012362    0.00008014   -0.00078767
     atom   27 type  1   force =    -0.00002498    0.00008011   -0.00017836
     atom   28 type  1   force =     0.00006076    0.00017310    0.00011571
     atom   29 type  1   force =    -0.00023336    0.00027267   -0.00079057
     atom   30 type  1   force =     0.00018309   -0.00003792   -0.00075327
     atom   31 type  1   force =     0.00003430   -0.00015553    0.00007787
     atom   32 type  1   force =     0.00002645    0.00002848    0.00011280
     atom   33 type  1   force =    -0.00001979    0.00003194   -0.00010229
     atom   34 type  1   force =     0.00004766   -0.00020677    0.00004828
     atom   35 type  1   force =    -0.00002901   -0.00027301   -0.00046948
     atom   36 type  1   force =     0.00003997    0.00010889   -0.00050825
     atom   37 type  1   force =     0.00010832    0.00004876    0.00004490
     atom   38 type  1   force =    -0.00009186    0.00003757   -0.00012280
     atom   39 type  1   force =    -0.00008714   -0.00015366   -0.00049249
     atom   40 type  1   force =     0.00019820   -0.00013159   -0.00038163
     atom   41 type  1   force =     0.00018740    0.00004475    0.00020436
     atom   42 type  1   force =    -0.00024578    0.00014128   -0.00013846
     atom   43 type  1   force =    -0.00016845    0.00004893   -0.00061680
     atom   44 type  1   force =     0.00012805    0.00012493   -0.00035112
     atom   45 type  1   force =    -0.00002258    0.00003370    0.00009305
     atom   46 type  1   force =    -0.00000914   -0.00010772    0.00007923
     atom   47 type  1   force =    -0.00020107    0.00013663   -0.00059766
     atom   48 type  1   force =     0.00008292    0.00016422   -0.00055454
     atom   49 type  1   force =    -0.00002399   -0.00016623    0.00000262
     atom   50 type  1   force =    -0.00000032   -0.00006349   -0.00001865
     atom   51 type  1   force =    -0.00003436   -0.00012666   -0.00050092
     atom   52 type  1   force =     0.00002751   -0.00005895   -0.00050583
     atom   53 type  1   force =    -0.00018225    0.00014503   -0.00016969
     atom   54 type  1   force =     0.00015556    0.00002442    0.00003920
     atom   55 type  1   force =    -0.00001047   -0.00016655   -0.00032218
     atom   56 type  1   force =    -0.00010595   -0.00012859   -0.00047559
     atom   57 type  1   force =     0.00000357    0.00006370    0.00014852
     atom   58 type  1   force =     0.00007236    0.00013204    0.00000750
     atom   59 type  1   force =     0.00004085    0.00000970   -0.00031972
     atom   60 type  1   force =     0.00005023    0.00011627   -0.00048960
     atom   61 type  1   force =     0.00011198   -0.00013865    0.00021221
     atom   62 type  1   force =    -0.00008590   -0.00000994   -0.00008086
     atom   63 type  1   force =    -0.00009356    0.00015910   -0.00064510
     atom   64 type  1   force =     0.00018400    0.00015561   -0.00050208
     atom   65 type  2   force =     0.00002284   -0.00001083    0.00006748
     atom   66 type  3   force =     0.00001738    0.00000422    0.00001497
     atom   67 type  3   force =     0.00000323   -0.00001748    0.00001414

     Total force =     0.041041     Total SCF correction =     0.003975


     Computing stress (Cartesian axis) and pressure


     negative rho (up, down):  8.055E-03 0.000E+00
          total   stress  (Ry/bohr**3)                   (kbar)     P=       -1.57
  -0.00001461  -0.00000045  -0.00000037           -2.15       -0.07       -0.05
  -0.00000045  -0.00001506   0.00000026           -0.07       -2.22        0.04
  -0.00000037   0.00000026  -0.00000227           -0.05        0.04       -0.33

     kinetic stress (kbar)  16732.61     -6.19     -5.31
                               -6.19  16726.65      1.96
                               -5.31      1.96  16834.98

     local   stress (kbar)**********    -11.56    -28.10
                              -11.56**********     23.44
                              -28.10     23.441549110.71

     nonloc. stress (kbar)  -1714.35     -0.06     -0.35
                               -0.06  -1714.44      0.15
                               -0.35      0.15  -1776.96

     hartree stress (kbar) 801665.03      0.96      8.99
                                0.96 801666.17     -9.05
                                8.99     -9.05-727249.08

     exc-cor stress (kbar)  -8399.53      0.07      0.07
                                0.07  -8399.46     -0.03
                                0.07     -0.03  -8410.74

     corecor stress (kbar)     -4.12      0.01      0.01
                                0.01     -4.11     -0.01
                                0.01     -0.01     -4.15

     ewald   stress (kbar) 721945.35     16.69     24.63
                               16.69 721961.81    -16.43
                               24.63    -16.43-828505.10

     hubbard stress (kbar)      0.00      0.00      0.00
                                0.00      0.00      0.00
                                0.00      0.00      0.00

     DFT-D   stress (kbar)      0.00      0.00      0.00
                                0.00      0.00      0.00
                                0.00      0.00      0.00

     XDM     stress (kbar)      0.00      0.00      0.00
                                0.00      0.00      0.00
                                0.00      0.00      0.00

     dft-nl  stress (kbar)      0.00      0.00      0.00
                                0.00      0.00      0.00
                                0.00      0.00      0.00

     TS-vdW  stress (kbar)      0.00      0.00      0.00
                                0.00      0.00      0.00
                                0.00      0.00      0.00

     MDB     stress (kbar)      0.00      0.00      0.00
                                0.00      0.00      0.00
                                0.00      0.00      0.00

     3D-RISM stress (kbar)      0.00      0.00      0.00
                                0.00      0.00      0.00
                                0.00      0.00      0.00


     Writing all to output data dir ./tmp/Zn002_optimized_topsite_H2O_scf.save/ :
     XML data file, charge density, pseudopotentials, collected wavefunctions

     init_run     :    142.84s CPU    144.37s WALL (       1 calls)
     electrons    :   7648.28s CPU   7723.27s WALL (       1 calls)
     forces       :    118.07s CPU    118.58s WALL (       1 calls)
     stress       :    316.63s CPU    317.72s WALL (       1 calls)

     Called by init_run:
     wfcinit      :    141.88s CPU    143.38s WALL (       1 calls)
     wfcinit:atom :      0.08s CPU      0.12s WALL (       5 calls)
     wfcinit:wfcr :    140.84s CPU    142.22s WALL (       5 calls)
     potinit      :      0.07s CPU      0.08s WALL (       1 calls)
     hinit0       :      0.05s CPU      0.05s WALL (       1 calls)

     Called by electrons:
     c_bands      :   7219.39s CPU   7287.64s WALL (      13 calls)
     sum_band     :    419.09s CPU    425.56s WALL (      13 calls)
     v_of_rho     :      0.55s CPU      0.58s WALL (      14 calls)
     v_h          :      0.03s CPU      0.04s WALL (      14 calls)
     v_xc         :      0.59s CPU      0.63s WALL (      16 calls)
     newd         :      9.35s CPU      9.55s WALL (      14 calls)
     PAW_pot      :      0.47s CPU      0.47s WALL (      14 calls)
     mix_rho      :      0.12s CPU      0.12s WALL (      13 calls)

     Called by c_bands:
     init_us_2    :      4.84s CPU      4.87s WALL (     145 calls)
     cegterg      :   7209.96s CPU   7278.12s WALL (      65 calls)

     Called by sum_band:
     sum_band:wei :      0.05s CPU      0.05s WALL (      13 calls)
     sum_band:loo :    410.63s CPU    416.86s WALL (      13 calls)
     sum_band:buf :      1.02s CPU      1.03s WALL (      65 calls)
     sum_band:ini :      2.21s CPU      2.22s WALL (      65 calls)
     sum_band:cal :    368.50s CPU    369.89s WALL (      65 calls)
     sum_band:bec :      2.38s CPU      2.38s WALL (      65 calls)
     addusdens    :      8.10s CPU      8.30s WALL (      13 calls)
                                        0.00s GPU  (      13 calls)
     addusd:skk   :      0.09s CPU      0.10s WALL (      39 calls)
                                        0.00s GPU  (      39 calls)

     Called by *egterg:
     cdiaghg      :    435.54s CPU    453.29s WALL (     398 calls)
     cegterg:over :   1167.45s CPU   1171.20s WALL (     333 calls)
     cegterg:upda :    622.70s CPU    625.44s WALL (     333 calls)
     cegterg:last :   1888.43s CPU   1896.70s WALL (     145 calls)
     cdiaghg:chol :     31.19s CPU     31.27s WALL (     398 calls)
     cdiaghg:inve :      4.71s CPU      4.73s WALL (     398 calls)
     cdiaghg:para :    139.42s CPU    141.44s WALL (     796 calls)
     h_psi        :   2016.86s CPU   2048.93s WALL (     403 calls)
     s_psi        :    878.16s CPU    880.26s WALL (     403 calls)
     g_psi        :      0.73s CPU      0.74s WALL (     333 calls)

     Called by h_psi:
     h_psi:calbec :    946.54s CPU    950.32s WALL (     403 calls)
     vloc_psi     :    186.42s CPU    211.56s WALL (     403 calls)
     add_vuspsi   :    881.90s CPU    884.06s WALL (     403 calls)

     General routines
     calbec       :   1459.65s CPU   1465.38s WALL (     493 calls)
     fft          :      0.48s CPU      0.54s WALL (     179 calls)
     ffts         :      0.02s CPU      0.02s WALL (      13 calls)
     fftw         :    206.73s CPU    234.87s WALL (  309241 calls)

     Parallel routines

     PAW routines
     PAW_pot      :      0.47s CPU      0.47s WALL (      14 calls)

     PWSCF        :      2h17m CPU      2h18m WALL


   This run was terminated on:  13:53:33  22Mar2025            

=------------------------------------------------------------------------------=
   JOB DONE.
=------------------------------------------------------------------------------=
Note: The following floating-point exceptions are signalling: IEEE_DENORMAL
Note: The following floating-point exceptions are signalling: IEEE_DENORMAL
Note: The following floating-point exceptions are signalling: IEEE_DENORMAL
Note: The following floating-point exceptions are signalling: IEEE_DENORMAL
Note: The following floating-point exceptions are signalling: IEEE_DENORMAL
Note: The following floating-point exceptions are signalling: IEEE_DENORMAL
Note: The following floating-point exceptions are signalling: IEEE_DENORMAL
Note: The following floating-point exceptions are signalling: IEEE_DENORMAL
Note: The following floating-point exceptions are signalling: IEEE_DENORMAL
Note: The following floating-point exceptions are signalling: IEEE_DENORMAL
Note: The following floating-point exceptions are signalling: IEEE_DENORMAL
Note: The following floating-point exceptions are signalling: IEEE_DENORMAL
