
     Program PWSCF v.7.3.1 starts on  2Apr2025 at  2:11:33 

     This program is part of the open-source Quantum ESPRESSO suite
     for quantum simulation of materials; please cite
         "P. Giannozzi et al., J. Phys.:Condens. Matter 21 395502 (2009);
         "P. Giannozzi et al., J. Phys.:Condens. Matter 29 465901 (2017);
         "P. Giannozzi et al., J. Chem. Phys. 152 154105 (2020);
          URL http://www.quantum-espresso.org", 
     in publications or presentations arising from this work. More details at
     http://www.quantum-espresso.org/quote

     Parallel version (MPI), running on    33 processors

     MPI processes distributed on     1 nodes
     40864 MiB available memory on the printing compute node when the environment starts

     Waiting for input...
     Reading input from standard input
Warning: card &CELL ignored
Warning: card   CELL_DOFREE = 'ALL' ignored
Warning: card / ignored

     Current dimensions of program PWSCF are:
     Max number of different atomic species (ntypx) = 10
     Max number of k-points (npk) =  40000
     Max angular momentum in pseudopotentials (lmaxx) =  4
     Message from routine input:
     WARNING: "startingwfc" set to atomic+random may spoil restart
     Message from routine input:
     WARNING: "startingpot" set to atomic may spoil restart
     file C.pbe-n-kjpaw_psl.1.0.0.UPF: wavefunction(s)  2S 2P renormalized

     R & G space division:  proc/nbgrp/npool/nimage =      33
     Subspace diagonalization in iterative solution of the eigenvalue problem:
     one sub-group per band group will be used
     custom distributed-memory algorithm (size of sub-group:  5*  5 procs)


     Parallelization info
     --------------------
     sticks:   dense  smooth     PW     G-vecs:    dense   smooth      PW
     Min         228     130     35                36393    15714    2165
     Max         230     131     36                36401    15723    2173
     Sum        7555    4303   1159              1201061   518755   71619

     Using Slab Decomposition



     bravais-lattice index     =            0
     lattice parameter (alat)  =      19.7617  a.u.
     unit-cell volume          =   15176.5939 (a.u.)^3
     number of atoms/cell      =           63
     number of atomic types    =            4
     number of electrons       =      1004.00
     number of Kohn-Sham states=          602
     kinetic-energy cutoff     =      40.0000  Ry
     charge density cutoff     =     280.0000  Ry
     scf convergence threshold =      1.0E-06
     mixing beta               =       0.4000
     number of iterations used =            8  plain     mixing
     energy convergence thresh.=      1.0E-05
     force convergence thresh. =      5.0E-04
     Exchange-correlation= PBE
                           (   1   4   3   4   0   0   0)
     nstep                     =          100


     celldm(1)=  19.761696  celldm(2)=   0.000000  celldm(3)=   0.000000
     celldm(4)=   0.000000  celldm(5)=   0.000000  celldm(6)=   0.000000

     crystal axes: (cart. coord. in units of alat)
               a(1) = (   1.000000   0.000000   0.000000 )  
               a(2) = (  -0.500000   0.866025   0.000000 )  
               a(3) = (   0.000000   0.000000   2.270759 )  

     reciprocal axes: (cart. coord. in units 2 pi/alat)
               b(1) = (  1.000000  0.577350 -0.000000 )  
               b(2) = (  0.000000  1.154701  0.000000 )  
               b(3) = (  0.000000 -0.000000  0.440381 )  


     PseudoPot. # 1 for Zn read from file:
     /home/ys/qepseudo/SSSP_1.3.0_PBE_efficiency/Zn_pbe_v1.uspp.F.UPF
     MD5 check sum: df62231357ef9e81f77b2b3087fa5675
     Pseudo is Ultrasoft, Zval = 20.0
     Generated by new atomic code, or converted to UPF format
     Using radial grid of  943 points,  6 beta functions with: 
                l(1) =   0
                l(2) =   0
                l(3) =   1
                l(4) =   1
                l(5) =   2
                l(6) =   2
     Q(r) pseudized with  8 coefficients,  rinner =    1.100   1.100   1.100
                                                       1.100   1.100

     PseudoPot. # 2 for N  read from file:
     /home/ys/qepseudo/SSSP_1.3.0_PBE_efficiency/N.pbe-n-radius_5.UPF
     MD5 check sum: 16739722b17309cd8fe442a2ace49922
     Pseudo is Ultrasoft + core correction, Zval =  5.0
     Generated using "atomic" code by A. Dal Corso  v.5.1
     Using radial grid of 1085 points,  4 beta functions with: 
                l(1) =   0
                l(2) =   0
                l(3) =   1
                l(4) =   1
     Q(r) pseudized with 0 coefficients 


     PseudoPot. # 3 for C  read from file:
     /home/ys/qepseudo/SSSP_1.3.0_PBE_efficiency/C.pbe-n-kjpaw_psl.1.0.0.UPF
     MD5 check sum: 5d2aebdfa2cae82b50a7e79e9516da0f
     Pseudo is Projector augmented-wave + core cor, Zval =  4.0
     Generated using "atomic" code by A. Dal Corso  v.5.1
     Shape of augmentation charge: PSQ
     Using radial grid of 1073 points,  4 beta functions with: 
                l(1) =   0
                l(2) =   0
                l(3) =   1
                l(4) =   1
     Q(r) pseudized with 0 coefficients 


     PseudoPot. # 4 for H  read from file:
     /home/ys/qepseudo/SSSP_1.3.0_PBE_efficiency/H.pbe-rrkjus_psl.1.0.0.UPF
     MD5 check sum: f52b6d4d1c606e5624b1dc7b2218f220
     Pseudo is Ultrasoft, Zval =  1.0
     Generated using "atomic" code by A. Dal Corso  v.5.1
     Using radial grid of  929 points,  2 beta functions with: 
                l(1) =   0
                l(2) =   0
     Q(r) pseudized with 0 coefficients 


     atomic species   valence    mass     pseudopotential
     Zn               20.00    65.38000     Zn( 1.00)
     N                 5.00    14.00674     N ( 1.00)
     C                 4.00    12.01070     C ( 1.00)
     H                 1.00     1.00794     H ( 1.00)

     No symmetry found


                                    s                        frac. trans.

      isym =  1     identity                                     

 cryst.   s( 1) = (     1          0          0      )
                  (     0          1          0      )
                  (     0          0          1      )

 cart.    s( 1) = (  1.0000000  0.0000000  0.0000000 )
                  (  0.0000000  1.0000000  0.0000000 )
                  (  0.0000000  0.0000000  1.0000000 )


   Cartesian axes

     site n.     atom                  positions (alat units)
         1        Zn     tau(   1) = (   0.0000000   0.1443375   0.1164998  )
         2        Zn     tau(   2) = (   0.5000000   0.1443375   0.1164998  )
         3        Zn     tau(   3) = (  -0.0011619   0.1449651   0.5898013  )
         4        Zn     tau(   4) = (   0.4986767   0.1448954   0.5954190  )
         5        Zn     tau(   5) = (  -0.1250000   0.3608439   0.1164998  )
         6        Zn     tau(   6) = (   0.3750000   0.3608439   0.1164998  )
         7        Zn     tau(   7) = (  -0.1264974   0.3610836   0.5885533  )
         8        Zn     tau(   8) = (   0.3732961   0.3615088   0.5834061  )
         9        Zn     tau(   9) = (  -0.2500000   0.5773502   0.1164998  )
        10        Zn     tau(  10) = (   0.2500000   0.5773502   0.1164998  )
        11        Zn     tau(  11) = (  -0.2516495   0.5775049   0.5900772  )
        12        Zn     tau(  12) = (   0.2484441   0.5777746   0.5906808  )
        13        Zn     tau(  13) = (  -0.3750000   0.7938567   0.1164998  )
        14        Zn     tau(  14) = (   0.1250000   0.7938567   0.1164998  )
        15        Zn     tau(  15) = (  -0.3762960   0.7944242   0.5923131  )
        16        Zn     tau(  16) = (   0.1237188   0.7944224   0.5899125  )
        17        Zn     tau(  17) = (   0.2500000   0.1443375   0.1164998  )
        18        Zn     tau(  18) = (   0.7500000   0.1443375   0.1164998  )
        19        Zn     tau(  19) = (   0.2489343   0.1449545   0.5873625  )
        20        Zn     tau(  20) = (   0.7486757   0.1448207   0.5928627  )
        21        Zn     tau(  21) = (   0.1250000   0.3608439   0.1164998  )
        22        Zn     tau(  22) = (   0.6250000   0.3608439   0.1164998  )
        23        Zn     tau(  23) = (   0.1234671   0.3613289   0.5893984  )
        24        Zn     tau(  24) = (   0.6236067   0.3612927   0.5937905  )
        25        Zn     tau(  25) = (   0.0000000   0.5773502   0.1164998  )
        26        Zn     tau(  26) = (   0.5000000   0.5773502   0.1164998  )
        27        Zn     tau(  27) = (  -0.0014072   0.5778760   0.5827902  )
        28        Zn     tau(  28) = (   0.4985365   0.5775653   0.5880976  )
        29        Zn     tau(  29) = (  -0.1250000   0.7938567   0.1164998  )
        30        Zn     tau(  30) = (   0.3750000   0.7938567   0.1164998  )
        31        Zn     tau(  31) = (  -0.1261495   0.7948340   0.5905374  )
        32        Zn     tau(  32) = (   0.3735323   0.7940022   0.5905448  )
        33        Zn     tau(  33) = (   0.1241909   0.0721525   0.3531456  )
        34        Zn     tau(  34) = (   0.6242713   0.0724595   0.3547632  )
        35        Zn     tau(  35) = (  -0.0009775   0.2886883   0.3524768  )
        36        Zn     tau(  36) = (   0.4997288   0.2885982   0.3527734  )
        37        Zn     tau(  37) = (  -0.1262499   0.5052414   0.3523483  )
        38        Zn     tau(  38) = (   0.3744423   0.5057395   0.3519206  )
        39        Zn     tau(  39) = (  -0.2508756   0.7221336   0.3541587  )
        40        Zn     tau(  40) = (   0.2493106   0.7222404   0.3529873  )
        41        Zn     tau(  41) = (   0.3744553   0.0723520   0.3533935  )
        42        Zn     tau(  42) = (   0.8740807   0.0724221   0.3547664  )
        43        Zn     tau(  43) = (   0.2492019   0.2885822   0.3515977  )
        44        Zn     tau(  44) = (   0.7491575   0.2887916   0.3543267  )
        45        Zn     tau(  45) = (   0.1244003   0.5054784   0.3501958  )
        46        Zn     tau(  46) = (   0.6243213   0.5053388   0.3533074  )
        47        Zn     tau(  47) = (  -0.0007468   0.7225886   0.3525468  )
        48        Zn     tau(  48) = (   0.4993655   0.7221493   0.3537083  )
        49        C      tau(  49) = (   0.4510279   0.3034435   0.9102101  )
        50        C      tau(  50) = (   0.3337199   0.3721094   0.9110810  )
        51        C      tau(  51) = (   0.2160479   0.3062428   0.9079415  )
        52        C      tau(  52) = (   0.3327197   0.5069897   0.9090885  )
        53        C      tau(  53) = (   0.1014647   0.3726214   0.9021300  )
        54        C      tau(  54) = (   0.2182072   0.5735741   0.9033922  )
        55        C      tau(  55) = (   0.1001181   0.5077966   0.8996681  )
        56        N      tau(  56) = (   0.5472539   0.2465965   0.9058063  )
        57        N      tau(  57) = (  -0.0130982   0.5734051   0.8936261  )
        58        H      tau(  58) = (  -0.0108734   0.6662779   0.8653639  )
        59        H      tau(  59) = (  -0.0922738   0.5253610   0.8643897  )
        60        H      tau(  60) = (   0.4229908   0.5591316   0.9094079  )
        61        H      tau(  61) = (   0.2154831   0.2020052   0.9076887  )
        62        H      tau(  62) = (   0.2189051   0.6778509   0.9002533  )
        63        H      tau(  63) = (   0.0112738   0.3202901   0.8979983  )

     --------------------------------------------
     DFT-D3 Dispersion Correction (3-body terms):
     --------------------------------------------
       Reference C6 values for interpolation: 

         atom   Coordination number   C6
         H          0.912             6.05
         H          0.000            15.18
         C          0.000            98.23
         C          0.987            86.49
         C          1.998            58.72
         C          2.999            51.56
         C          3.984            36.41
         N          0.000            50.54
         N          0.994            44.25
         N          2.014            39.35
         N          2.990            31.16
         Zn         0.000           681.04
         Zn         1.942           306.91

       Values used:

         atom   Coordination number  R0_AB[au]  C6      C8
         Zn         6.762            3.053    306.91  23930.67
         Zn         6.759            3.053    306.91  23930.67
         Zn         6.786            3.053    306.91  23930.67
         Zn         6.597            3.053    306.91  23930.67
         Zn         6.778            3.053    306.91  23930.67
         Zn         6.805            3.053    306.91  23930.67
         Zn         6.826            3.053    306.91  23930.67
         Zn         6.996            3.053    306.91  23930.67
         Zn         6.770            3.053    306.91  23930.67
         Zn         6.826            3.053    306.91  23930.67
         Zn         6.764            3.053    306.91  23930.67
         Zn         6.724            3.053    306.91  23930.67
         Zn         6.758            3.053    306.91  23930.67
         Zn         6.766            3.053    306.91  23930.67
         Zn         6.694            3.053    306.91  23930.67
         Zn         6.789            3.053    306.91  23930.67
         Zn         6.789            3.053    306.91  23930.67
         Zn         6.722            3.053    306.91  23930.67
         Zn         6.861            3.053    306.91  23930.67
         Zn         6.716            3.053    306.91  23930.67
         Zn         6.834            3.053    306.91  23930.67
         Zn         6.764            3.053    306.91  23930.67
         Zn         6.762            3.053    306.91  23930.67
         Zn         6.648            3.053    306.91  23930.67
         Zn         6.818            3.053    306.91  23930.67
         Zn         6.780            3.053    306.91  23930.67
         Zn         6.997            3.053    306.91  23930.67
         Zn         6.840            3.053    306.91  23930.67
         Zn         6.768            3.053    306.91  23930.67
         Zn         6.750            3.053    306.91  23930.67
         Zn         6.754            3.053    306.91  23930.67
         Zn         6.770            3.053    306.91  23930.67
         Zn         8.369            3.053    306.91  23930.67
         Zn         8.274            3.053    306.91  23930.67
         Zn         8.387            3.053    306.91  23930.67
         Zn         8.327            3.053    306.91  23930.67
         Zn         8.451            3.053    306.91  23930.67
         Zn         8.446            3.053    306.91  23930.67
         Zn         8.324            3.053    306.91  23930.67
         Zn         8.351            3.053    306.91  23930.67
         Zn         8.333            3.053    306.91  23930.67
         Zn         8.323            3.053    306.91  23930.67
         Zn         8.468            3.053    306.91  23930.67
         Zn         8.308            3.053    306.91  23930.67
         Zn         8.433            3.053    306.91  23930.67
         Zn         8.343            3.053    306.91  23930.67
         Zn         8.435            3.053    306.91  23930.67
         Zn         8.350            3.053    306.91  23930.67
         C          2.118            2.750     58.54   1692.94
         C          3.164            2.750     50.41   1458.02
         C          3.188            2.750     50.18   1451.37
         C          3.186            2.750     50.20   1451.93
         C          3.189            2.750     50.17   1451.00
         C          3.189            2.750     50.18   1451.17
         C          3.163            2.750     50.42   1458.23
         N          1.041            2.478     44.21    975.37
         N          3.104            2.478     31.23    689.02
         H          1.011            2.062      6.17     74.61
         H          1.011            2.062      6.17     74.61
         H          1.005            2.062      6.18     74.66
         H          1.006            2.062      6.18     74.66
         H          1.006            2.062      6.18     74.66
         H          1.006            2.062      6.18     74.66

         Molecular C6 ( Ry / a.u.^6 ) =    840820.57


   Crystallographic axes

     site n.     atom                  positions (cryst. coord.)
         1        Zn     tau(   1) = (  0.0833333  0.1666666  0.0513044  )
         2        Zn     tau(   2) = (  0.5833333  0.1666666  0.0513044  )
         3        Zn     tau(   3) = (  0.0825338  0.1673913  0.2597375  )
         4        Zn     tau(   4) = (  0.5823321  0.1673108  0.2622115  )
         5        Zn     tau(   5) = (  0.0833333  0.4166666  0.0513044  )
         6        Zn     tau(   6) = (  0.5833333  0.4166666  0.0513044  )
         7        Zn     tau(   7) = (  0.0819743  0.4169434  0.2591880  )
         8        Zn     tau(   8) = (  0.5820133  0.4174345  0.2569212  )
         9        Zn     tau(   9) = (  0.0833333  0.6666666  0.0513044  )
        10        Zn     tau(  10) = (  0.5833333  0.6666666  0.0513044  )
        11        Zn     tau(  11) = (  0.0817731  0.6668452  0.2598590  )
        12        Zn     tau(  12) = (  0.5820224  0.6671566  0.2601249  )
        13        Zn     tau(  13) = (  0.0833333  0.9166667  0.0513044  )
        14        Zn     tau(  14) = (  0.5833334  0.9166667  0.0513044  )
        15        Zn     tau(  15) = (  0.0823650  0.9173220  0.2608437  )
        16        Zn     tau(  16) = (  0.5823788  0.9173199  0.2597865  )
        17        Zn     tau(  17) = (  0.3333333  0.1666666  0.0513044  )
        18        Zn     tau(  18) = (  0.8333334  0.1666666  0.0513044  )
        19        Zn     tau(  19) = (  0.3326238  0.1673791  0.2586635  )
        20        Zn     tau(  20) = (  0.8322880  0.1672246  0.2610857  )
        21        Zn     tau(  21) = (  0.3333333  0.4166666  0.0513044  )
        22        Zn     tau(  22) = (  0.8333333  0.4166666  0.0513044  )
        23        Zn     tau(  23) = (  0.3320804  0.4172267  0.2595601  )
        24        Zn     tau(  24) = (  0.8321991  0.4171849  0.2614943  )
        25        Zn     tau(  25) = (  0.3333333  0.6666666  0.0513044  )
        26        Zn     tau(  26) = (  0.8333333  0.6666666  0.0513044  )
        27        Zn     tau(  27) = (  0.3322297  0.6672737  0.2566500  )
        28        Zn     tau(  28) = (  0.8319940  0.6669149  0.2589873  )
        29        Zn     tau(  29) = (  0.3333334  0.9166667  0.0513044  )
        30        Zn     tau(  30) = (  0.8333334  0.9166667  0.0513044  )
        31        Zn     tau(  31) = (  0.3327482  0.9177953  0.2600617  )
        32        Zn     tau(  32) = (  0.8319496  0.9168347  0.2600650  )
        33        Zn     tau(  33) = (  0.1658482  0.0833145  0.1555188  )
        34        Zn     tau(  34) = (  0.6661058  0.0836690  0.1562311  )
        35        Zn     tau(  35) = (  0.1656968  0.3333485  0.1552242  )
        36        Zn     tau(  36) = (  0.6663510  0.3332445  0.1553549  )
        37        Zn     tau(  37) = (  0.1654514  0.5834025  0.1551676  )
        38        Zn     tau(  38) = (  0.6664311  0.5839776  0.1549793  )
        39        Zn     tau(  39) = (  0.1660485  0.8338481  0.1559649  )
        40        Zn     tau(  40) = (  0.6662963  0.8339714  0.1554490  )
        41        Zn     tau(  41) = (  0.4162278  0.0835449  0.1556279  )
        42        Zn     tau(  42) = (  0.9158937  0.0836259  0.1562325  )
        43        Zn     tau(  43) = (  0.4158149  0.3332260  0.1548371  )
        44        Zn     tau(  44) = (  0.9158914  0.3334678  0.1560389  )
        45        Zn     tau(  45) = (  0.4162384  0.5836761  0.1542197  )
        46        Zn     tau(  46) = (  0.9160787  0.5835149  0.1555900  )
        47        Zn     tau(  47) = (  0.4164399  0.8343734  0.1552551  )
        48        Zn     tau(  48) = (  0.9162986  0.8338662  0.1557666  )
        49        C      tau(  49) = (  0.6262211  0.3503864  0.4008396  )
        50        C      tau(  50) = (  0.5485574  0.4296750  0.4012231  )
        51        C      tau(  51) = (  0.3928573  0.3536187  0.3998406  )
        52        C      tau(  52) = (  0.6254303  0.5854213  0.4003457  )
        53        C      tau(  53) = (  0.3165978  0.4302662  0.3972813  )
        54        C      tau(  54) = (  0.5493604  0.6623063  0.3978371  )
        55        C      tau(  55) = (  0.3932946  0.5863530  0.3961971  )
        56        N      tau(  56) = (  0.6896265  0.2847451  0.3989003  )
        57        N      tau(  57) = (  0.3179574  0.6621112  0.3935363  )
        58        H      tau(  58) = (  0.3738023  0.7693515  0.3810902  )
        59        H      tau(  59) = (  0.2110435  0.6066346  0.3806612  )
        60        H      tau(  60) = (  0.7458056  0.6456296  0.4004864  )
        61        H      tau(  61) = (  0.3321108  0.2332555  0.3997292  )
        62        H      tau(  62) = (  0.6102624  0.7827147  0.3964548  )
        63        H      tau(  63) = (  0.1961934  0.3698392  0.3954618  )

     number of k points=     5  Marzari-Vanderbilt smearing, width (Ry)=  0.0200
                       cart. coord. in units 2pi/alat
        k(    1) = (   0.0000000   0.0000000   0.0000000), wk =   0.2222222
        k(    2) = (   0.0000000   0.3849002   0.0000000), wk =   0.4444444
        k(    3) = (   0.3333333   0.1924501   0.0000000), wk =   0.4444444
        k(    4) = (   0.3333333   0.5773503   0.0000000), wk =   0.4444444
        k(    5) = (   0.3333333  -0.1924501   0.0000000), wk =   0.4444444

                       cryst. coord.
        k(    1) = (   0.0000000   0.0000000   0.0000000), wk =   0.2222222
        k(    2) = (   0.0000000   0.3333333   0.0000000), wk =   0.4444444
        k(    3) = (   0.3333333   0.0000000   0.0000000), wk =   0.4444444
        k(    4) = (   0.3333333   0.3333333   0.0000000), wk =   0.4444444
        k(    5) = (   0.3333333  -0.3333333   0.0000000), wk =   0.4444444

     Dense  grid:  1201061 G-vectors     FFT dimensions: ( 108, 108, 240)

     Smooth grid:   518755 G-vectors     FFT dimensions: (  80,  80, 192)

     Dynamical RAM for                 wfc:      18.04 MB

     Dynamical RAM for     wfc (w. buffer):     108.25 MB

     Dynamical RAM for           str. fact:       2.22 MB

     Dynamical RAM for           local pot:       0.00 MB

     Dynamical RAM for          nlocal pot:      28.41 MB

     Dynamical RAM for                qrad:       5.37 MB

     Dynamical RAM for          rho,v,vnew:       3.80 MB

     Dynamical RAM for               rhoin:       1.27 MB

     Dynamical RAM for            rho*nmix:       8.89 MB

     Dynamical RAM for           G-vectors:       2.20 MB

     Dynamical RAM for          h,s,v(r/c):       2.64 MB

     Dynamical RAM for          <psi|beta>:       8.71 MB

     Dynamical RAM for                 psi:      36.08 MB

     Dynamical RAM for                hpsi:      36.08 MB

     Dynamical RAM for                spsi:      36.08 MB

     Dynamical RAM for      wfcinit/wfcrot:      50.07 MB

     Dynamical RAM for           addusdens:     129.95 MB

     Dynamical RAM for          addusforce:     182.62 MB

     Dynamical RAM for         addusstress:     111.63 MB

     Estimated static dynamical RAM per process >     157.86 MB

     Estimated max dynamical RAM per process >     349.37 MB

     Estimated total dynamical RAM >      11.26 GB

     Atomic positions and unit cell read from directory:
     ./tmp/Zn002_3layer_ABN_relax.save/

     Cannot read rho : file not found

     Initial potential from superposition of free atoms

     starting charge    1003.9929, renormalised to    1004.0000

     negative rho (up, down):  3.146E-03 0.000E+00
     Starting wfcs are  666 randomized atomic wfcs
     Checking if some PAW data can be deallocated... 
       PAW data deallocated on   29 nodes for type:  3

     total cpu time spent up to now is      184.6 secs

     Self-consistent Calculation

     iteration #  1     ecut=    40.00 Ry     beta= 0.40
     Davidson diagonalization with overlap

---- Real-time Memory Report at c_bands before calling an iterative solver
           233 MiB given to the printing process from OS
             0 MiB allocation reported by mallinfo(arena+hblkhd)
         29096 MiB available memory on the node where the printing process lives
------------------
     c_bands:  2 eigenvalues not converged
     c_bands:  3 eigenvalues not converged
     c_bands:  3 eigenvalues not converged
     c_bands:  1 eigenvalues not converged
     c_bands:  2 eigenvalues not converged
     ethr =  1.00E-05,  avg # of iterations = 20.0

     negative rho (up, down):  3.898E-03 0.000E+00

     total cpu time spent up to now is     1954.0 secs

     total energy              =  -22327.15358825 Ry
     estimated scf accuracy    <      10.15090757 Ry

     iteration #  2     ecut=    40.00 Ry     beta= 0.40
     Davidson diagonalization with overlap

---- Real-time Memory Report at c_bands before calling an iterative solver
           328 MiB given to the printing process from OS
             0 MiB allocation reported by mallinfo(arena+hblkhd)
         27790 MiB available memory on the node where the printing process lives
------------------
     ethr =  1.01E-03,  avg # of iterations = 10.2

     negative rho (up, down):  5.256E-03 0.000E+00

     total cpu time spent up to now is     2675.7 secs

     total energy              =  -22312.91122573 Ry
     estimated scf accuracy    <     279.86752400 Ry

     iteration #  3     ecut=    40.00 Ry     beta= 0.40
     Davidson diagonalization with overlap

---- Real-time Memory Report at c_bands before calling an iterative solver
           342 MiB given to the printing process from OS
             0 MiB allocation reported by mallinfo(arena+hblkhd)
         27747 MiB available memory on the node where the printing process lives
------------------
     ethr =  1.01E-03,  avg # of iterations =  7.0

     negative rho (up, down):  5.289E-03 0.000E+00

     total cpu time spent up to now is     3452.2 secs

     total energy              =  -22330.01512539 Ry
     estimated scf accuracy    <      20.87308339 Ry

     iteration #  4     ecut=    40.00 Ry     beta= 0.40
     Davidson diagonalization with overlap

---- Real-time Memory Report at c_bands before calling an iterative solver
           343 MiB given to the printing process from OS
             0 MiB allocation reported by mallinfo(arena+hblkhd)
         27717 MiB available memory on the node where the printing process lives
------------------
     ethr =  1.01E-03,  avg # of iterations =  4.6

     negative rho (up, down):  5.154E-03 0.000E+00

     total cpu time spent up to now is     4069.7 secs

     total energy              =  -22331.43648624 Ry
     estimated scf accuracy    <       2.08978831 Ry

     iteration #  5     ecut=    40.00 Ry     beta= 0.40
     Davidson diagonalization with overlap

---- Real-time Memory Report at c_bands before calling an iterative solver
           344 MiB given to the printing process from OS
             0 MiB allocation reported by mallinfo(arena+hblkhd)
         27682 MiB available memory on the node where the printing process lives
------------------
     ethr =  2.08E-04,  avg # of iterations =  4.6

     negative rho (up, down):  4.954E-03 0.000E+00

     total cpu time spent up to now is     4675.8 secs

     total energy              =  -22331.58250598 Ry
     estimated scf accuracy    <       0.26316549 Ry

     iteration #  6     ecut=    40.00 Ry     beta= 0.40
     Davidson diagonalization with overlap

---- Real-time Memory Report at c_bands before calling an iterative solver
           344 MiB given to the printing process from OS
             0 MiB allocation reported by mallinfo(arena+hblkhd)
         27647 MiB available memory on the node where the printing process lives
------------------
     ethr =  2.62E-05,  avg # of iterations = 13.8

     negative rho (up, down):  4.916E-03 0.000E+00

     total cpu time spent up to now is     5353.8 secs

     total energy              =  -22331.57922561 Ry
     estimated scf accuracy    <       0.14132048 Ry

     iteration #  7     ecut=    40.00 Ry     beta= 0.40
     Davidson diagonalization with overlap

---- Real-time Memory Report at c_bands before calling an iterative solver
           350 MiB given to the printing process from OS
             0 MiB allocation reported by mallinfo(arena+hblkhd)
         27614 MiB available memory on the node where the printing process lives
------------------
     ethr =  1.41E-05,  avg # of iterations =  7.2

     negative rho (up, down):  4.947E-03 0.000E+00

     total cpu time spent up to now is     3952.2 secs

     total energy              =  -22331.58115071 Ry
     estimated scf accuracy    <       0.04193667 Ry

     iteration #  8     ecut=    40.00 Ry     beta= 0.40
     Davidson diagonalization with overlap

---- Real-time Memory Report at c_bands before calling an iterative solver
           349 MiB given to the printing process from OS
             0 MiB allocation reported by mallinfo(arena+hblkhd)
         33694 MiB available memory on the node where the printing process lives
------------------
     c_bands:  1 eigenvalues not converged
     ethr =  4.18E-06,  avg # of iterations = 16.4

     negative rho (up, down):  4.966E-03 0.000E+00

     total cpu time spent up to now is     6609.9 secs

     total energy              =  -22331.58049029 Ry
     estimated scf accuracy    <       0.02372430 Ry

     iteration #  9     ecut=    40.00 Ry     beta= 0.40
     Davidson diagonalization with overlap

---- Real-time Memory Report at c_bands before calling an iterative solver
           351 MiB given to the printing process from OS
             0 MiB allocation reported by mallinfo(arena+hblkhd)
         27554 MiB available memory on the node where the printing process lives
------------------
     c_bands:  1 eigenvalues not converged
     ethr =  2.36E-06,  avg # of iterations =  8.6

     negative rho (up, down):  4.982E-03 0.000E+00

     total cpu time spent up to now is     7214.8 secs

     total energy              =  -22331.57950260 Ry
     estimated scf accuracy    <       0.01463163 Ry

     iteration # 10     ecut=    40.00 Ry     beta= 0.40
     Davidson diagonalization with overlap

---- Real-time Memory Report at c_bands before calling an iterative solver
           352 MiB given to the printing process from OS
             0 MiB allocation reported by mallinfo(arena+hblkhd)
         27532 MiB available memory on the node where the printing process lives
------------------
     ethr =  1.46E-06,  avg # of iterations = 11.4

     negative rho (up, down):  4.993E-03 0.000E+00

     total cpu time spent up to now is     7836.3 secs

     total energy              =  -22331.57810308 Ry
     estimated scf accuracy    <       0.00899534 Ry

     iteration # 11     ecut=    40.00 Ry     beta= 0.40
     Davidson diagonalization with overlap

---- Real-time Memory Report at c_bands before calling an iterative solver
           353 MiB given to the printing process from OS
             0 MiB allocation reported by mallinfo(arena+hblkhd)
         27532 MiB available memory on the node where the printing process lives
------------------
     ethr =  8.96E-07,  avg # of iterations =  5.2

     negative rho (up, down):  5.010E-03 0.000E+00

     total cpu time spent up to now is     8435.6 secs

     total energy              =  -22331.57600742 Ry
     estimated scf accuracy    <       0.00449606 Ry

     iteration # 12     ecut=    40.00 Ry     beta= 0.40
     Davidson diagonalization with overlap

---- Real-time Memory Report at c_bands before calling an iterative solver
           353 MiB given to the printing process from OS
             0 MiB allocation reported by mallinfo(arena+hblkhd)
         27532 MiB available memory on the node where the printing process lives
------------------
     c_bands:  2 eigenvalues not converged
     c_bands:  2 eigenvalues not converged
     ethr =  4.48E-07,  avg # of iterations = 14.2

     negative rho (up, down):  5.007E-03 0.000E+00

     total cpu time spent up to now is     9125.8 secs

     total energy              =  -22331.57682025 Ry
     estimated scf accuracy    <       0.00008736 Ry

     iteration # 13     ecut=    40.00 Ry     beta= 0.40
     Davidson diagonalization with overlap

---- Real-time Memory Report at c_bands before calling an iterative solver
           353 MiB given to the printing process from OS
             0 MiB allocation reported by mallinfo(arena+hblkhd)
         27531 MiB available memory on the node where the printing process lives
------------------
     c_bands:  2 eigenvalues not converged
     ethr =  8.70E-09,  avg # of iterations =  5.6

     negative rho (up, down):  5.006E-03 0.000E+00

     total cpu time spent up to now is     9725.7 secs

     total energy              =  -22331.57682825 Ry
     estimated scf accuracy    <       0.00002338 Ry

     iteration # 14     ecut=    40.00 Ry     beta= 0.40
     Davidson diagonalization with overlap

---- Real-time Memory Report at c_bands before calling an iterative solver
           353 MiB given to the printing process from OS
             0 MiB allocation reported by mallinfo(arena+hblkhd)
         27531 MiB available memory on the node where the printing process lives
------------------
     ethr =  2.33E-09,  avg # of iterations =  4.6

     negative rho (up, down):  5.006E-03 0.000E+00

     total cpu time spent up to now is    10318.3 secs

     total energy              =  -22331.57683032 Ry
     estimated scf accuracy    <       0.00001498 Ry

     iteration # 15     ecut=    40.00 Ry     beta= 0.40
     Davidson diagonalization with overlap

---- Real-time Memory Report at c_bands before calling an iterative solver
           353 MiB given to the printing process from OS
             0 MiB allocation reported by mallinfo(arena+hblkhd)
         27530 MiB available memory on the node where the printing process lives
------------------
     ethr =  1.49E-09,  avg # of iterations =  2.0

     negative rho (up, down):  5.006E-03 0.000E+00

     total cpu time spent up to now is    10896.9 secs

     total energy              =  -22331.57683143 Ry
     estimated scf accuracy    <       0.00001289 Ry

     iteration # 16     ecut=    40.00 Ry     beta= 0.40
     Davidson diagonalization with overlap

---- Real-time Memory Report at c_bands before calling an iterative solver
           353 MiB given to the printing process from OS
             0 MiB allocation reported by mallinfo(arena+hblkhd)
         27529 MiB available memory on the node where the printing process lives
------------------
     ethr =  1.28E-09,  avg # of iterations =  1.2

     negative rho (up, down):  5.006E-03 0.000E+00

     total cpu time spent up to now is    11392.1 secs

     total energy              =  -22331.57683256 Ry
     estimated scf accuracy    <       0.00000320 Ry

     iteration # 17     ecut=    40.00 Ry     beta= 0.40
     Davidson diagonalization with overlap

---- Real-time Memory Report at c_bands before calling an iterative solver
           353 MiB given to the printing process from OS
             0 MiB allocation reported by mallinfo(arena+hblkhd)
         27528 MiB available memory on the node where the printing process lives
------------------
     ethr =  3.19E-10,  avg # of iterations =  2.0

     negative rho (up, down):  5.006E-03 0.000E+00

     total cpu time spent up to now is    11970.9 secs

     End of self-consistent calculation

          k = 0.0000 0.0000 0.0000 ( 64855 PWs)   bands (ev):

  -124.6031-124.6022-124.6015-124.6005-124.5996-124.5958-124.5947-124.5933
  -124.5927-124.5921-124.5913-124.5911-124.5899-124.5891-124.5879-124.5857
  -124.4359-124.4128-124.4120-124.4118-124.4099-124.4074-124.4072-124.4058
  -124.4001-124.3987-124.3966-124.3934-124.3929-124.3920-124.3918-124.3909
  -124.3903-124.3899-124.3897-124.3894-124.3891-124.3887-124.3884-124.3881
  -124.3878-124.3871-124.3863-124.3859-124.3855-124.3811-124.3719-124.3641
   -78.7677 -78.7665 -78.7662 -78.7620 -78.7595 -78.7584 -78.7575 -78.7574
   -78.7569 -78.7504 -78.7501 -78.7494 -78.7492 -78.7474 -78.7473 -78.7471
   -78.7470 -78.7466 -78.7455 -78.7452 -78.7450 -78.7448 -78.7446 -78.7434
   -78.7431 -78.7413 -78.7411 -78.7397 -78.7389 -78.7383 -78.7378 -78.7373
   -78.7370 -78.7368 -78.7367 -78.7357 -78.7346 -78.7344 -78.7339 -78.7337
   -78.7328 -78.7326 -78.7321 -78.7306 -78.7304 -78.7299 -78.7262 -78.7260
   -78.5919 -78.5870 -78.5865 -78.5695 -78.5691 -78.5688 -78.5682 -78.5677
   -78.5664 -78.5642 -78.5638 -78.5635 -78.5635 -78.5633 -78.5619 -78.5614
   -78.5593 -78.5589 -78.5569 -78.5563 -78.5559 -78.5558 -78.5552 -78.5552
   -78.5547 -78.5540 -78.5529 -78.5517 -78.5502 -78.5501 -78.5498 -78.5496
   -78.5494 -78.5490 -78.5489 -78.5489 -78.5484 -78.5483 -78.5482 -78.5480
   -78.5471 -78.5470 -78.5464 -78.5462 -78.5457 -78.5454 -78.5449 -78.5445
   -78.5443 -78.5437 -78.5436 -78.5431 -78.5426 -78.5418 -78.5414 -78.5412
   -78.5410 -78.5408 -78.5400 -78.5383 -78.5382 -78.5377 -78.5373 -78.5371
   -78.5370 -78.5369 -78.5365 -78.5362 -78.5357 -78.5356 -78.5356 -78.5351
   -78.5349 -78.5348 -78.5343 -78.5332 -78.5302 -78.5291 -78.5286 -78.5286
   -78.5284 -78.5284 -78.5258 -78.5244 -78.5243 -78.5241 -78.5240 -78.5235
   -78.5227 -78.5209 -78.5196 -78.5190 -78.5189 -78.5151 -78.5088 -78.5069
   -17.7564 -16.5967 -15.5972 -13.1784 -13.0955 -10.1622  -9.8821  -8.0856
    -8.0082  -7.3634  -7.3557  -6.9186  -6.6185  -6.5588  -6.5475  -6.5465
    -6.5401  -6.5364  -6.5278  -6.4351  -6.4340  -6.4330  -6.2413  -6.2399
    -6.2383  -6.2027  -6.2008  -6.1984  -6.1137  -6.1077  -6.1072  -6.1054
    -6.1023  -6.1014  -6.0633  -6.0602  -6.0596  -6.0574  -6.0568  -6.0567
    -6.0554  -6.0544  -6.0503  -5.9894  -5.9851  -5.9839  -5.9834  -5.9803
    -5.9781  -5.9542  -5.9524  -5.9520  -5.9515  -5.9503  -5.9494  -5.8563
    -5.8553  -5.8514  -5.8490  -5.8390  -5.8384  -5.8365  -5.8314  -5.8308
    -5.8047  -5.7938  -5.7923  -5.7919  -5.7892  -5.7878  -5.7830  -5.7420
    -5.7383  -5.7372  -5.7363  -5.7343  -5.7330  -5.6967  -5.6924  -5.6918
    -5.6909  -5.6900  -5.6868  -5.6772  -5.6755  -5.6747  -5.6733  -5.6729
    -5.6713  -5.6512  -5.6509  -5.6429  -5.6398  -5.6394  -5.6388  -5.6370
    -5.6360  -5.6303  -5.6294  -5.6274  -5.6170  -5.6150  -5.6138  -5.6112
    -5.6107  -5.6076  -5.5317  -5.5306  -5.5286  -5.5281  -5.5269  -5.5253
    -5.4480  -5.4478  -5.4298  -5.4297  -5.4116  -5.4055  -5.4032  -5.3996
    -5.3992  -5.3985  -5.3968  -5.3952  -5.3931  -5.3895  -5.3874  -5.3844
    -5.3483  -5.3471  -5.3459  -5.3354  -5.3235  -5.3229  -5.3217  -5.3211
    -5.3206  -5.3193  -5.3189  -5.3164  -5.3157  -5.3152  -5.3144  -5.3110
    -5.3074  -5.3066  -5.3059  -5.3057  -5.3049  -5.3034  -5.2980  -5.2934
    -5.2914  -5.2883  -5.2868  -5.2833  -5.2658  -5.2625  -5.2616  -5.2614
    -5.2602  -5.2590  -5.2582  -5.2578  -5.2576  -5.2569  -5.2544  -5.2540
    -5.2531  -5.2514  -5.2448  -5.2418  -5.2405  -5.2390  -5.2383  -5.2326
    -5.2254  -5.2226  -5.2184  -5.1355  -5.1354  -5.1221  -5.1207  -5.1199
    -5.1194  -5.1192  -5.1185  -5.1103  -5.1077  -5.1066  -5.1064  -5.1058
    -5.1025  -5.0926  -5.0841  -5.0786  -5.0730  -5.0725  -5.0654  -5.0625
    -5.0602  -5.0585  -5.0460  -5.0407  -5.0380  -5.0372  -5.0349  -5.0308
    -5.0275  -5.0261  -5.0256  -5.0252  -5.0247  -5.0236  -4.9846  -4.9826
    -4.9815  -4.9810  -4.9806  -4.9761  -4.9747  -4.9738  -4.9738  -4.9733
    -4.9725  -4.9696  -4.9394  -4.9387  -4.9377  -4.9331  -4.9321  -4.9319
    -4.9314  -4.9310  -4.9298  -4.9172  -4.9168  -4.8972  -4.8968  -4.8660
    -4.8633  -4.8624  -4.8617  -4.8609  -4.8587  -4.8399  -4.8308  -4.8306
    -4.8300  -4.8298  -4.8292  -4.8283  -4.8127  -4.8121  -4.8115  -4.6146
    -4.6110  -4.6073  -4.6003  -4.6002  -4.6001  -4.5100  -4.1244  -3.9840
    -3.9359  -3.9347  -3.9326  -3.9245  -3.8473  -3.2803  -3.0013  -2.9904
    -2.6115  -2.1894  -2.0105  -1.7397  -1.6498  -1.6309  -1.6166  -1.5948
    -1.5936  -1.5857  -1.5838  -1.5780  -1.5763  -1.5466  -1.4829  -0.9917
    -0.3208  -0.3187  -0.3139  -0.2408  -0.1990  -0.1730  -0.1653  -0.1577
    -0.1365  -0.1339   0.2827   0.4273   0.4310   0.4498   0.7302   0.7382
     0.7474   1.9054   1.9109   1.9175   1.9267   1.9273   1.9496   1.9758
     2.0140   2.0183   2.0599   2.0923   2.1159   2.7600   2.7749   2.7771
     3.4348   3.6024   3.6471   3.6821   3.9878   4.1503   4.5298   4.5360
     4.5507   5.0707   5.1012   5.1554   5.2058   5.2872   5.3808   5.4716
     5.5675   5.6780   5.7957   5.8004   5.8449   5.8623   5.8846   5.9423
     5.9492   5.9520   5.9591   5.9642   5.9743   5.9813   6.1169   6.1229
     6.1265   6.1288   6.1328   6.1414   6.4181   6.5403   6.6569   6.8103
     6.8372   6.8384   6.9502   7.0044   7.0212   7.0305   7.2572   7.4324
     7.4486   7.4522   7.4625   7.4740   7.4804   7.4871   7.4884   7.5019
     7.5041   7.5056   7.5368   7.5696   7.6292   7.6351   7.6559   7.6626
     7.6666   7.6753   8.0208   8.1047   8.1115   8.1619   8.2133   8.2669
     8.2895   8.3281   8.3515   8.4512   8.4562   8.4878   8.5132   8.5194
     8.5592   8.6041   8.7267   8.7358   8.7765   8.7777   8.7920   8.8525
     9.0945   9.1887

     occupation numbers 
     1.0000   1.0000   1.0000   1.0000   1.0000   1.0000   1.0000   1.0000
     1.0000   1.0000   1.0000   1.0000   1.0000   1.0000   1.0000   1.0000
     1.0000   1.0000   1.0000   1.0000   1.0000   1.0000   1.0000   1.0000
     1.0000   1.0000   1.0000   1.0000   1.0000   1.0000   1.0000   1.0000
     1.0000   1.0000   1.0000   1.0000   1.0000   1.0000   1.0000   1.0000
     1.0000   1.0000   1.0000   1.0000   1.0000   1.0000   1.0000   1.0000
     1.0000   1.0000   1.0000   1.0000   1.0000   1.0000   1.0000   1.0000
     1.0000   1.0000   1.0000   1.0000   1.0000   1.0000   1.0000   1.0000
     1.0000   1.0000   1.0000   1.0000   1.0000   1.0000   1.0000   1.0000
     1.0000   1.0000   1.0000   1.0000   1.0000   1.0000   1.0000   1.0000
     1.0000   1.0000   1.0000   1.0000   1.0000   1.0000   1.0000   1.0000
     1.0000   1.0000   1.0000   1.0000   1.0000   1.0000   1.0000   1.0000
     1.0000   1.0000   1.0000   1.0000   1.0000   1.0000   1.0000   1.0000
     1.0000   1.0000   1.0000   1.0000   1.0000   1.0000   1.0000   1.0000
     1.0000   1.0000   1.0000   1.0000   1.0000   1.0000   1.0000   1.0000
     1.0000   1.0000   1.0000   1.0000   1.0000   1.0000   1.0000   1.0000
     1.0000   1.0000   1.0000   1.0000   1.0000   1.0000   1.0000   1.0000
     1.0000   1.0000   1.0000   1.0000   1.0000   1.0000   1.0000   1.0000
     1.0000   1.0000   1.0000   1.0000   1.0000   1.0000   1.0000   1.0000
     1.0000   1.0000   1.0000   1.0000   1.0000   1.0000   1.0000   1.0000
     1.0000   1.0000   1.0000   1.0000   1.0000   1.0000   1.0000   1.0000
     1.0000   1.0000   1.0000   1.0000   1.0000   1.0000   1.0000   1.0000
     1.0000   1.0000   1.0000   1.0000   1.0000   1.0000   1.0000   1.0000
     1.0000   1.0000   1.0000   1.0000   1.0000   1.0000   1.0000   1.0000
     1.0000   1.0000   1.0000   1.0000   1.0000   1.0000   1.0000   1.0000
     1.0000   1.0000   1.0000   1.0000   1.0000   1.0000   1.0000   1.0000
     1.0000   1.0000   1.0000   1.0000   1.0000   1.0000   1.0000   1.0000
     1.0000   1.0000   1.0000   1.0000   1.0000   1.0000   1.0000   1.0000
     1.0000   1.0000   1.0000   1.0000   1.0000   1.0000   1.0000   1.0000
     1.0000   1.0000   1.0000   1.0000   1.0000   1.0000   1.0000   1.0000
     1.0000   1.0000   1.0000   1.0000   1.0000   1.0000   1.0000   1.0000
     1.0000   1.0000   1.0000   1.0000   1.0000   1.0000   1.0000   1.0000
     1.0000   1.0000   1.0000   1.0000   1.0000   1.0000   1.0000   1.0000
     1.0000   1.0000   1.0000   1.0000   1.0000   1.0000   1.0000   1.0000
     1.0000   1.0000   1.0000   1.0000   1.0000   1.0000   1.0000   1.0000
     1.0000   1.0000   1.0000   1.0000   1.0000   1.0000   1.0000   1.0000
     1.0000   1.0000   1.0000   1.0000   1.0000   1.0000   1.0000   1.0000
     1.0000   1.0000   1.0000   1.0000   1.0000   1.0000   1.0000   1.0000
     1.0000   1.0000   1.0000   1.0000   1.0000   1.0000   1.0000   1.0000
     1.0000   1.0000   1.0000   1.0000   1.0000   1.0000   1.0000   1.0000
     1.0000   1.0000   1.0000   1.0000   1.0000   1.0000   1.0000   1.0000
     1.0000   1.0000   1.0000   1.0000   1.0000   1.0000   1.0000   1.0000
     1.0000   1.0000   1.0000   1.0000   1.0000   1.0000   1.0000   1.0000
     1.0000   1.0000   1.0000   1.0000   1.0000   1.0000   1.0000   1.0000
     1.0000   1.0000   1.0000   1.0000   1.0000   1.0000   1.0000   1.0000
     1.0000   1.0000   1.0000   1.0000   1.0000   1.0000   1.0000   1.0000
     1.0000   1.0000   1.0000   1.0000   1.0000   1.0000   1.0000   1.0000
     1.0000   1.0000   1.0000   1.0000   1.0000   1.0000   1.0000   1.0000
     1.0000   1.0000   1.0000   1.0000   1.0000   1.0000   1.0000   1.0000
     1.0000   1.0000   1.0000   1.0000   1.0000   1.0000   1.0000   1.0000
     1.0000   1.0000   1.0000   1.0000   1.0000   1.0000   1.0000   1.0000
     1.0000   1.0000   1.0000   1.0000   1.0000   1.0000   1.0000   1.0000
     1.0000   1.0000   1.0000   1.0000   1.0000   1.0000   1.0000   1.0000
     1.0000   1.0000   1.0000   1.0000   1.0000   1.0000   1.0000   1.0000
     1.0000   1.0000   1.0000   1.0000   1.0000   1.0000   1.0000   1.0000
     1.0000   1.0000   1.0000   1.0000   1.0000   1.0000   1.0000   1.0000
     1.0000   1.0000   1.0000   1.0000   1.0000   1.0000   1.0000   1.0000
     1.0000   1.0000   1.0000   1.0000   1.0000   1.0000   1.0000   1.0000
     1.0000   1.0000   1.0000   1.0000   1.0000   1.0000   1.0000   1.0000
     1.0000   1.0000   1.0000   1.0000   1.0000   1.0000   1.0000   1.0000
     1.0000   1.0000   1.0000   1.0000   1.0000   1.0000   1.0000   1.0000
     1.0000   1.0000   1.0000   1.0000   1.0000   1.0000   1.0000   1.0000
     1.0000   0.5538   0.5387   0.5206   0.4956   0.4940   0.4349   0.3689
     0.2822   0.2732   0.1952   0.1459   0.1161   0.0000   0.0000   0.0000
     0.0000   0.0000   0.0000   0.0000   0.0000   0.0000   0.0000   0.0000
     0.0000   0.0000   0.0000   0.0000   0.0000   0.0000   0.0000   0.0000
     0.0000   0.0000   0.0000   0.0000   0.0000   0.0000   0.0000   0.0000
     0.0000   0.0000   0.0000   0.0000   0.0000   0.0000   0.0000   0.0000
     0.0000   0.0000   0.0000   0.0000   0.0000   0.0000   0.0000   0.0000
     0.0000   0.0000   0.0000   0.0000   0.0000   0.0000   0.0000   0.0000
     0.0000   0.0000   0.0000   0.0000   0.0000   0.0000   0.0000   0.0000
     0.0000   0.0000   0.0000   0.0000   0.0000   0.0000   0.0000   0.0000
     0.0000   0.0000   0.0000   0.0000   0.0000   0.0000   0.0000   0.0000
     0.0000   0.0000   0.0000   0.0000   0.0000   0.0000   0.0000   0.0000
     0.0000   0.0000   0.0000   0.0000   0.0000   0.0000   0.0000   0.0000
     0.0000   0.0000

          k = 0.0000 0.3849 0.0000 ( 64840 PWs)   bands (ev):

  -124.6031-124.6022-124.6015-124.6005-124.5996-124.5958-124.5947-124.5933
  -124.5927-124.5921-124.5913-124.5911-124.5898-124.5891-124.5879-124.5857
  -124.4359-124.4128-124.4120-124.4118-124.4099-124.4074-124.4072-124.4057
  -124.4001-124.3987-124.3966-124.3933-124.3930-124.3920-124.3918-124.3909
  -124.3903-124.3899-124.3896-124.3894-124.3891-124.3887-124.3885-124.3881
  -124.3877-124.3871-124.3863-124.3859-124.3855-124.3811-124.3719-124.3641
   -78.7669 -78.7652 -78.7648 -78.7623 -78.7612 -78.7588 -78.7586 -78.7565
   -78.7556 -78.7550 -78.7525 -78.7514 -78.7492 -78.7489 -78.7479 -78.7474
   -78.7470 -78.7461 -78.7452 -78.7450 -78.7448 -78.7439 -78.7422 -78.7412
   -78.7410 -78.7400 -78.7397 -78.7392 -78.7383 -78.7383 -78.7377 -78.7374
   -78.7370 -78.7368 -78.7366 -78.7357 -78.7348 -78.7346 -78.7344 -78.7338
   -78.7334 -78.7326 -78.7319 -78.7311 -78.7305 -78.7299 -78.7276 -78.7263
   -78.5919 -78.5869 -78.5864 -78.5693 -78.5684 -78.5684 -78.5679 -78.5676
   -78.5664 -78.5653 -78.5638 -78.5636 -78.5634 -78.5632 -78.5621 -78.5617
   -78.5606 -78.5593 -78.5575 -78.5563 -78.5551 -78.5547 -78.5547 -78.5543
   -78.5543 -78.5533 -78.5530 -78.5522 -78.5511 -78.5510 -78.5505 -78.5497
   -78.5489 -78.5489 -78.5488 -78.5484 -78.5484 -78.5480 -78.5472 -78.5470
   -78.5467 -78.5464 -78.5462 -78.5458 -78.5457 -78.5457 -78.5452 -78.5448
   -78.5445 -78.5443 -78.5438 -78.5436 -78.5433 -78.5430 -78.5426 -78.5423
   -78.5421 -78.5418 -78.5418 -78.5410 -78.5408 -78.5393 -78.5389 -78.5388
   -78.5370 -78.5365 -78.5355 -78.5348 -78.5345 -78.5337 -78.5333 -78.5331
   -78.5330 -78.5311 -78.5309 -78.5298 -78.5297 -78.5295 -78.5286 -78.5285
   -78.5282 -78.5279 -78.5265 -78.5261 -78.5261 -78.5255 -78.5238 -78.5231
   -78.5214 -78.5210 -78.5209 -78.5195 -78.5195 -78.5153 -78.5089 -78.5070
   -17.7563 -16.5967 -15.5971 -13.1784 -13.0955 -10.1620  -9.8820  -8.0136
    -7.8700  -7.3660  -7.3565  -7.2699  -6.7520  -6.7443  -6.7405  -6.5078
    -6.4056  -6.3593  -6.3591  -6.3537  -6.3142  -6.2749  -6.2725  -6.2527
    -6.2069  -6.1789  -6.1787  -6.1729  -6.1516  -6.1513  -6.1304  -6.1294
    -6.1214  -6.1139  -6.0863  -6.0824  -6.0606  -6.0597  -6.0513  -6.0504
    -6.0410  -6.0360  -6.0344  -6.0285  -6.0226  -6.0127  -6.0112  -6.0105
    -6.0095  -5.9912  -5.9895  -5.9611  -5.9573  -5.9506  -5.9495  -5.9444
    -5.9418  -5.9262  -5.9079  -5.9073  -5.8565  -5.8557  -5.8431  -5.8409
    -5.8331  -5.8252  -5.8234  -5.8186  -5.8133  -5.7915  -5.7897  -5.7850
    -5.7820  -5.7701  -5.7697  -5.7555  -5.7512  -5.7483  -5.7469  -5.7448
    -5.7344  -5.7325  -5.7265  -5.7252  -5.7106  -5.7084  -5.7063  -5.6976
    -5.6922  -5.6768  -5.6426  -5.6412  -5.6366  -5.6345  -5.6259  -5.6180
    -5.6169  -5.6106  -5.6096  -5.5988  -5.5957  -5.5884  -5.5862  -5.5713
    -5.5691  -5.5607  -5.5570  -5.5373  -5.5345  -5.5183  -5.5169  -5.5000
    -5.4918  -5.4865  -5.4842  -5.4790  -5.4766  -5.4640  -5.4615  -5.4560
    -5.4558  -5.4344  -5.4305  -5.4048  -5.4027  -5.3985  -5.3902  -5.3897
    -5.3825  -5.3784  -5.3726  -5.3714  -5.3629  -5.3624  -5.3581  -5.3384
    -5.3338  -5.3309  -5.3280  -5.3247  -5.3196  -5.3176  -5.3122  -5.3100
    -5.3061  -5.3055  -5.3028  -5.2996  -5.2904  -5.2881  -5.2833  -5.2827
    -5.2794  -5.2723  -5.2650  -5.2608  -5.2536  -5.2520  -5.2442  -5.2367
    -5.2249  -5.2226  -5.2165  -5.2155  -5.2077  -5.2069  -5.1978  -5.1955
    -5.1919  -5.1895  -5.1745  -5.1706  -5.1687  -5.1612  -5.1599  -5.1570
    -5.1527  -5.1485  -5.1461  -5.1453  -5.1091  -5.1077  -5.1024  -5.1009
    -5.0995  -5.0914  -5.0898  -5.0878  -5.0854  -5.0815  -5.0730  -5.0702
    -5.0698  -5.0658  -5.0653  -5.0645  -5.0641  -5.0620  -5.0613  -5.0587
    -5.0533  -5.0427  -5.0414  -5.0378  -5.0359  -5.0221  -5.0192  -5.0166
    -5.0156  -5.0146  -5.0065  -5.0063  -4.9896  -4.9812  -4.9783  -4.9765
    -4.9742  -4.9728  -4.9706  -4.9695  -4.9657  -4.9653  -4.9564  -4.9519
    -4.9510  -4.9497  -4.9441  -4.9430  -4.9300  -4.9289  -4.9263  -4.9146
    -4.9138  -4.9132  -4.9063  -4.9015  -4.9011  -4.8953  -4.8796  -4.8794
    -4.8696  -4.8550  -4.8499  -4.8432  -4.8421  -4.8409  -4.8403  -4.8363
    -4.8279  -4.8170  -4.8126  -4.8122  -4.7067  -4.7059  -4.6931  -4.6929
    -4.6697  -4.6598  -4.6596  -4.4646  -4.4515  -4.4045  -4.2395  -4.1619
    -4.0867  -4.0575  -3.3967  -3.2605  -3.2554  -3.1679  -3.1381  -3.0027
    -2.8582  -2.6394  -2.5992  -2.4161  -2.2295  -2.1739  -2.0725  -1.9386
    -1.9059  -1.8915  -1.7416  -1.4369  -1.4296  -1.1691  -0.9466  -0.9456
    -0.8773  -0.8392  -0.7721  -0.3475  -0.0567  -0.0140   0.0505   0.1919
     0.3032   0.3410   0.3899   0.4639   0.5085   0.5188   0.8431   1.1582
     1.3613   1.3660   1.5588   1.5831   1.9137   1.9204   1.9588   1.9717
     2.8878   2.8947   2.9155   2.9449   3.2425   3.2531   3.4593   3.4976
     3.5408   3.5677   3.6770   3.8835   3.9534   3.9912   4.0483   4.1992
     4.2421   4.2873   4.3137   4.3885   4.6265   4.6725   4.6924   4.8372
     4.8991   5.2173   5.2269   5.4101   5.5106   5.5591   5.5615   5.5894
     5.5979   5.6133   5.8559   5.9441   5.9616   6.0955   6.1690   6.1854
     6.2337   6.4010   6.4996   6.5313   6.5534   6.5918   6.6247   6.6854
     6.7195   6.7532   6.7648   6.8045   6.8223   6.9163   6.9922   7.0572
     7.0665   7.0806   7.1242   7.1666   7.2398   7.2898   7.3137   7.3846
     7.4908   7.5721   7.7336   7.7377   7.8465   7.8796   7.9047   7.9862
     8.0695   8.1516   8.1652   8.1709   8.2637   8.2882   8.3183   8.3582
     8.3901   8.5158   8.5819   8.5933   8.6599   8.7193   8.7997   8.8502
     8.9170   8.9671   8.9970   9.0474   9.0922   9.1336   9.1603   9.1806
     9.2832   9.3046

     occupation numbers 
     1.0000   1.0000   1.0000   1.0000   1.0000   1.0000   1.0000   1.0000
     1.0000   1.0000   1.0000   1.0000   1.0000   1.0000   1.0000   1.0000
     1.0000   1.0000   1.0000   1.0000   1.0000   1.0000   1.0000   1.0000
     1.0000   1.0000   1.0000   1.0000   1.0000   1.0000   1.0000   1.0000
     1.0000   1.0000   1.0000   1.0000   1.0000   1.0000   1.0000   1.0000
     1.0000   1.0000   1.0000   1.0000   1.0000   1.0000   1.0000   1.0000
     1.0000   1.0000   1.0000   1.0000   1.0000   1.0000   1.0000   1.0000
     1.0000   1.0000   1.0000   1.0000   1.0000   1.0000   1.0000   1.0000
     1.0000   1.0000   1.0000   1.0000   1.0000   1.0000   1.0000   1.0000
     1.0000   1.0000   1.0000   1.0000   1.0000   1.0000   1.0000   1.0000
     1.0000   1.0000   1.0000   1.0000   1.0000   1.0000   1.0000   1.0000
     1.0000   1.0000   1.0000   1.0000   1.0000   1.0000   1.0000   1.0000
     1.0000   1.0000   1.0000   1.0000   1.0000   1.0000   1.0000   1.0000
     1.0000   1.0000   1.0000   1.0000   1.0000   1.0000   1.0000   1.0000
     1.0000   1.0000   1.0000   1.0000   1.0000   1.0000   1.0000   1.0000
     1.0000   1.0000   1.0000   1.0000   1.0000   1.0000   1.0000   1.0000
     1.0000   1.0000   1.0000   1.0000   1.0000   1.0000   1.0000   1.0000
     1.0000   1.0000   1.0000   1.0000   1.0000   1.0000   1.0000   1.0000
     1.0000   1.0000   1.0000   1.0000   1.0000   1.0000   1.0000   1.0000
     1.0000   1.0000   1.0000   1.0000   1.0000   1.0000   1.0000   1.0000
     1.0000   1.0000   1.0000   1.0000   1.0000   1.0000   1.0000   1.0000
     1.0000   1.0000   1.0000   1.0000   1.0000   1.0000   1.0000   1.0000
     1.0000   1.0000   1.0000   1.0000   1.0000   1.0000   1.0000   1.0000
     1.0000   1.0000   1.0000   1.0000   1.0000   1.0000   1.0000   1.0000
     1.0000   1.0000   1.0000   1.0000   1.0000   1.0000   1.0000   1.0000
     1.0000   1.0000   1.0000   1.0000   1.0000   1.0000   1.0000   1.0000
     1.0000   1.0000   1.0000   1.0000   1.0000   1.0000   1.0000   1.0000
     1.0000   1.0000   1.0000   1.0000   1.0000   1.0000   1.0000   1.0000
     1.0000   1.0000   1.0000   1.0000   1.0000   1.0000   1.0000   1.0000
     1.0000   1.0000   1.0000   1.0000   1.0000   1.0000   1.0000   1.0000
     1.0000   1.0000   1.0000   1.0000   1.0000   1.0000   1.0000   1.0000
     1.0000   1.0000   1.0000   1.0000   1.0000   1.0000   1.0000   1.0000
     1.0000   1.0000   1.0000   1.0000   1.0000   1.0000   1.0000   1.0000
     1.0000   1.0000   1.0000   1.0000   1.0000   1.0000   1.0000   1.0000
     1.0000   1.0000   1.0000   1.0000   1.0000   1.0000   1.0000   1.0000
     1.0000   1.0000   1.0000   1.0000   1.0000   1.0000   1.0000   1.0000
     1.0000   1.0000   1.0000   1.0000   1.0000   1.0000   1.0000   1.0000
     1.0000   1.0000   1.0000   1.0000   1.0000   1.0000   1.0000   1.0000
     1.0000   1.0000   1.0000   1.0000   1.0000   1.0000   1.0000   1.0000
     1.0000   1.0000   1.0000   1.0000   1.0000   1.0000   1.0000   1.0000
     1.0000   1.0000   1.0000   1.0000   1.0000   1.0000   1.0000   1.0000
     1.0000   1.0000   1.0000   1.0000   1.0000   1.0000   1.0000   1.0000
     1.0000   1.0000   1.0000   1.0000   1.0000   1.0000   1.0000   1.0000
     1.0000   1.0000   1.0000   1.0000   1.0000   1.0000   1.0000   1.0000
     1.0000   1.0000   1.0000   1.0000   1.0000   1.0000   1.0000   1.0000
     1.0000   1.0000   1.0000   1.0000   1.0000   1.0000   1.0000   1.0000
     1.0000   1.0000   1.0000   1.0000   1.0000   1.0000   1.0000   1.0000
     1.0000   1.0000   1.0000   1.0000   1.0000   1.0000   1.0000   1.0000
     1.0000   1.0000   1.0000   1.0000   1.0000   1.0000   1.0000   1.0000
     1.0000   1.0000   1.0000   1.0000   1.0000   1.0000   1.0000   1.0000
     1.0000   1.0000   1.0000   1.0000   1.0000   1.0000   1.0000   1.0000
     1.0000   1.0000   1.0000   1.0000   1.0000   1.0000   1.0000   1.0000
     1.0000   1.0000   1.0000   1.0000   1.0000   1.0000   1.0000   1.0000
     1.0000   1.0000   1.0000   1.0000   1.0000   1.0000   1.0000   1.0000
     1.0000   1.0000   1.0000   1.0000   1.0000   1.0000   1.0000   1.0000
     1.0000   1.0000   1.0000   1.0000   1.0000   1.0000   1.0000   1.0000
     1.0000   1.0000   1.0000   1.0000   1.0000   1.0000   1.0000   1.0000
     1.0000   1.0000   1.0000   1.0000   1.0000   1.0000   1.0000   1.0000
     1.0000   1.0000   1.0000   1.0000   1.0000   1.0000   1.0000   1.0000
     1.0000   1.0000   1.0000   1.0000   1.0000   1.0000   1.0000   1.0000
     1.0000   1.0000   1.0000   1.0000   1.0000   1.0000   1.0000   1.0000
     1.0000   1.0000   1.0000   1.0000   1.0000   1.0000   1.0000   1.0018
     1.0248   1.0260   1.0822   1.0832   0.5310   0.5127   0.4113   0.3791
     0.0000   0.0000   0.0000   0.0000   0.0000   0.0000   0.0000   0.0000
     0.0000   0.0000   0.0000   0.0000   0.0000   0.0000   0.0000   0.0000
     0.0000   0.0000   0.0000   0.0000   0.0000   0.0000   0.0000   0.0000
     0.0000   0.0000   0.0000   0.0000   0.0000   0.0000   0.0000   0.0000
     0.0000   0.0000   0.0000   0.0000   0.0000   0.0000   0.0000   0.0000
     0.0000   0.0000   0.0000   0.0000   0.0000   0.0000   0.0000   0.0000
     0.0000   0.0000   0.0000   0.0000   0.0000   0.0000   0.0000   0.0000
     0.0000   0.0000   0.0000   0.0000   0.0000   0.0000   0.0000   0.0000
     0.0000   0.0000   0.0000   0.0000   0.0000   0.0000   0.0000   0.0000
     0.0000   0.0000   0.0000   0.0000   0.0000   0.0000   0.0000   0.0000
     0.0000   0.0000   0.0000   0.0000   0.0000   0.0000   0.0000   0.0000
     0.0000   0.0000   0.0000   0.0000   0.0000   0.0000   0.0000   0.0000
     0.0000   0.0000

          k = 0.3333 0.1925 0.0000 ( 64840 PWs)   bands (ev):

  -124.6031-124.6022-124.6015-124.6005-124.5996-124.5958-124.5947-124.5933
  -124.5927-124.5921-124.5913-124.5911-124.5898-124.5891-124.5879-124.5857
  -124.4359-124.4128-124.4120-124.4118-124.4099-124.4074-124.4072-124.4057
  -124.4001-124.3987-124.3966-124.3933-124.3930-124.3920-124.3918-124.3909
  -124.3903-124.3899-124.3896-124.3894-124.3892-124.3887-124.3884-124.3882
  -124.3877-124.3871-124.3863-124.3859-124.3855-124.3811-124.3719-124.3641
   -78.7668 -78.7655 -78.7647 -78.7621 -78.7609 -78.7590 -78.7585 -78.7565
   -78.7558 -78.7550 -78.7525 -78.7514 -78.7492 -78.7489 -78.7481 -78.7474
   -78.7471 -78.7460 -78.7452 -78.7450 -78.7447 -78.7438 -78.7421 -78.7412
   -78.7408 -78.7402 -78.7397 -78.7393 -78.7384 -78.7381 -78.7377 -78.7375
   -78.7370 -78.7368 -78.7366 -78.7357 -78.7350 -78.7346 -78.7341 -78.7340
   -78.7335 -78.7326 -78.7320 -78.7311 -78.7305 -78.7297 -78.7274 -78.7265
   -78.5919 -78.5869 -78.5864 -78.5694 -78.5687 -78.5682 -78.5680 -78.5676
   -78.5664 -78.5652 -78.5637 -78.5635 -78.5633 -78.5632 -78.5619 -78.5615
   -78.5605 -78.5589 -78.5580 -78.5563 -78.5553 -78.5547 -78.5547 -78.5545
   -78.5543 -78.5533 -78.5531 -78.5529 -78.5511 -78.5509 -78.5506 -78.5497
   -78.5490 -78.5489 -78.5488 -78.5484 -78.5482 -78.5476 -78.5472 -78.5470
   -78.5468 -78.5465 -78.5463 -78.5458 -78.5458 -78.5456 -78.5453 -78.5448
   -78.5447 -78.5443 -78.5437 -78.5436 -78.5431 -78.5430 -78.5426 -78.5423
   -78.5422 -78.5418 -78.5413 -78.5410 -78.5408 -78.5392 -78.5389 -78.5388
   -78.5370 -78.5367 -78.5353 -78.5346 -78.5344 -78.5338 -78.5333 -78.5333
   -78.5332 -78.5310 -78.5308 -78.5300 -78.5299 -78.5294 -78.5287 -78.5285
   -78.5283 -78.5280 -78.5265 -78.5261 -78.5260 -78.5255 -78.5238 -78.5231
   -78.5215 -78.5210 -78.5209 -78.5195 -78.5195 -78.5151 -78.5089 -78.5071
   -17.7563 -16.5967 -15.5971 -13.1784 -13.0955 -10.1621  -9.8820  -8.0136
    -7.8700  -7.3658  -7.3565  -7.2699  -6.7524  -6.7443  -6.7403  -6.5078
    -6.4056  -6.3593  -6.3591  -6.3537  -6.3142  -6.2749  -6.2724  -6.2527
    -6.2069  -6.1791  -6.1786  -6.1730  -6.1516  -6.1513  -6.1305  -6.1293
    -6.1212  -6.1139  -6.0865  -6.0822  -6.0606  -6.0598  -6.0511  -6.0504
    -6.0409  -6.0358  -6.0350  -6.0283  -6.0227  -6.0128  -6.0112  -6.0106
    -6.0095  -5.9913  -5.9894  -5.9611  -5.9570  -5.9507  -5.9493  -5.9445
    -5.9417  -5.9262  -5.9078  -5.9073  -5.8565  -5.8556  -5.8432  -5.8408
    -5.8330  -5.8254  -5.8233  -5.8190  -5.8131  -5.7917  -5.7895  -5.7849
    -5.7819  -5.7701  -5.7698  -5.7554  -5.7510  -5.7482  -5.7473  -5.7449
    -5.7344  -5.7326  -5.7265  -5.7253  -5.7106  -5.7085  -5.7061  -5.6980
    -5.6918  -5.6768  -5.6426  -5.6413  -5.6366  -5.6342  -5.6259  -5.6189
    -5.6165  -5.6106  -5.6092  -5.5988  -5.5955  -5.5886  -5.5862  -5.5714
    -5.5697  -5.5606  -5.5565  -5.5376  -5.5341  -5.5185  -5.5167  -5.5000
    -5.4918  -5.4862  -5.4849  -5.4788  -5.4765  -5.4643  -5.4615  -5.4561
    -5.4558  -5.4344  -5.4300  -5.4054  -5.4026  -5.3985  -5.3902  -5.3894
    -5.3825  -5.3784  -5.3726  -5.3714  -5.3635  -5.3621  -5.3585  -5.3386
    -5.3337  -5.3307  -5.3279  -5.3250  -5.3196  -5.3176  -5.3117  -5.3101
    -5.3061  -5.3052  -5.3026  -5.3001  -5.2901  -5.2880  -5.2833  -5.2827
    -5.2794  -5.2727  -5.2649  -5.2604  -5.2537  -5.2520  -5.2440  -5.2366
    -5.2248  -5.2227  -5.2165  -5.2156  -5.2075  -5.2069  -5.1980  -5.1954
    -5.1920  -5.1894  -5.1746  -5.1708  -5.1686  -5.1615  -5.1599  -5.1570
    -5.1528  -5.1484  -5.1458  -5.1454  -5.1091  -5.1077  -5.1028  -5.1008
    -5.0994  -5.0913  -5.0896  -5.0874  -5.0855  -5.0812  -5.0729  -5.0703
    -5.0698  -5.0657  -5.0657  -5.0644  -5.0640  -5.0621  -5.0614  -5.0586
    -5.0532  -5.0428  -5.0415  -5.0376  -5.0359  -5.0220  -5.0192  -5.0165
    -5.0156  -5.0146  -5.0066  -5.0062  -4.9897  -4.9812  -4.9780  -4.9766
    -4.9743  -4.9729  -4.9706  -4.9691  -4.9657  -4.9652  -4.9565  -4.9520
    -4.9509  -4.9497  -4.9442  -4.9429  -4.9300  -4.9290  -4.9264  -4.9145
    -4.9138  -4.9132  -4.9062  -4.9015  -4.9011  -4.8956  -4.8796  -4.8794
    -4.8696  -4.8550  -4.8499  -4.8430  -4.8421  -4.8409  -4.8404  -4.8364
    -4.8280  -4.8171  -4.8126  -4.8123  -4.7066  -4.7061  -4.6931  -4.6929
    -4.6697  -4.6599  -4.6596  -4.4643  -4.4517  -4.4040  -4.2393  -4.1627
    -4.0865  -4.0577  -3.3980  -3.2608  -3.2549  -3.1682  -3.1361  -3.0027
    -2.8578  -2.6392  -2.6000  -2.4169  -2.2298  -2.1732  -2.0733  -1.9383
    -1.9041  -1.8922  -1.7411  -1.4371  -1.4296  -1.1690  -0.9465  -0.9457
    -0.8770  -0.8400  -0.7727  -0.3468  -0.0578  -0.0137   0.0510   0.1932
     0.3022   0.3403   0.3905   0.4635   0.5084   0.5191   0.8435   1.1578
     1.3617   1.3659   1.5590   1.5826   1.9135   1.9207   1.9586   1.9726
     2.8878   2.8950   2.9155   2.9437   3.2386   3.2526   3.4653   3.4987
     3.5363   3.5672   3.6761   3.8814   3.9524   3.9928   4.0548   4.1980
     4.2409   4.2880   4.3161   4.3901   4.6234   4.6730   4.6890   4.8397
     4.8990   5.2167   5.2276   5.4083   5.5163   5.5541   5.5624   5.5886
     5.5972   5.6157   5.8563   5.9447   5.9644   6.0934   6.1724   6.1851
     6.2313   6.3973   6.4969   6.5338   6.5542   6.5927   6.6251   6.6788
     6.7170   6.7530   6.7658   6.8119   6.8220   6.9196   6.9899   7.0575
     7.0669   7.0797   7.1253   7.1644   7.2429   7.2899   7.3132   7.3834
     7.4879   7.5718   7.7337   7.7389   7.8449   7.8794   7.9025   7.9842
     8.0693   8.1513   8.1651   8.1726   8.2669   8.2878   8.3175   8.3590
     8.3891   8.5205   8.5806   8.5937   8.6600   8.7183   8.7961   8.8507
     8.9178   8.9658   8.9985   9.0441   9.0945   9.1340   9.1617   9.1841
     9.2802   9.2887

     occupation numbers 
     1.0000   1.0000   1.0000   1.0000   1.0000   1.0000   1.0000   1.0000
     1.0000   1.0000   1.0000   1.0000   1.0000   1.0000   1.0000   1.0000
     1.0000   1.0000   1.0000   1.0000   1.0000   1.0000   1.0000   1.0000
     1.0000   1.0000   1.0000   1.0000   1.0000   1.0000   1.0000   1.0000
     1.0000   1.0000   1.0000   1.0000   1.0000   1.0000   1.0000   1.0000
     1.0000   1.0000   1.0000   1.0000   1.0000   1.0000   1.0000   1.0000
     1.0000   1.0000   1.0000   1.0000   1.0000   1.0000   1.0000   1.0000
     1.0000   1.0000   1.0000   1.0000   1.0000   1.0000   1.0000   1.0000
     1.0000   1.0000   1.0000   1.0000   1.0000   1.0000   1.0000   1.0000
     1.0000   1.0000   1.0000   1.0000   1.0000   1.0000   1.0000   1.0000
     1.0000   1.0000   1.0000   1.0000   1.0000   1.0000   1.0000   1.0000
     1.0000   1.0000   1.0000   1.0000   1.0000   1.0000   1.0000   1.0000
     1.0000   1.0000   1.0000   1.0000   1.0000   1.0000   1.0000   1.0000
     1.0000   1.0000   1.0000   1.0000   1.0000   1.0000   1.0000   1.0000
     1.0000   1.0000   1.0000   1.0000   1.0000   1.0000   1.0000   1.0000
     1.0000   1.0000   1.0000   1.0000   1.0000   1.0000   1.0000   1.0000
     1.0000   1.0000   1.0000   1.0000   1.0000   1.0000   1.0000   1.0000
     1.0000   1.0000   1.0000   1.0000   1.0000   1.0000   1.0000   1.0000
     1.0000   1.0000   1.0000   1.0000   1.0000   1.0000   1.0000   1.0000
     1.0000   1.0000   1.0000   1.0000   1.0000   1.0000   1.0000   1.0000
     1.0000   1.0000   1.0000   1.0000   1.0000   1.0000   1.0000   1.0000
     1.0000   1.0000   1.0000   1.0000   1.0000   1.0000   1.0000   1.0000
     1.0000   1.0000   1.0000   1.0000   1.0000   1.0000   1.0000   1.0000
     1.0000   1.0000   1.0000   1.0000   1.0000   1.0000   1.0000   1.0000
     1.0000   1.0000   1.0000   1.0000   1.0000   1.0000   1.0000   1.0000
     1.0000   1.0000   1.0000   1.0000   1.0000   1.0000   1.0000   1.0000
     1.0000   1.0000   1.0000   1.0000   1.0000   1.0000   1.0000   1.0000
     1.0000   1.0000   1.0000   1.0000   1.0000   1.0000   1.0000   1.0000
     1.0000   1.0000   1.0000   1.0000   1.0000   1.0000   1.0000   1.0000
     1.0000   1.0000   1.0000   1.0000   1.0000   1.0000   1.0000   1.0000
     1.0000   1.0000   1.0000   1.0000   1.0000   1.0000   1.0000   1.0000
     1.0000   1.0000   1.0000   1.0000   1.0000   1.0000   1.0000   1.0000
     1.0000   1.0000   1.0000   1.0000   1.0000   1.0000   1.0000   1.0000
     1.0000   1.0000   1.0000   1.0000   1.0000   1.0000   1.0000   1.0000
     1.0000   1.0000   1.0000   1.0000   1.0000   1.0000   1.0000   1.0000
     1.0000   1.0000   1.0000   1.0000   1.0000   1.0000   1.0000   1.0000
     1.0000   1.0000   1.0000   1.0000   1.0000   1.0000   1.0000   1.0000
     1.0000   1.0000   1.0000   1.0000   1.0000   1.0000   1.0000   1.0000
     1.0000   1.0000   1.0000   1.0000   1.0000   1.0000   1.0000   1.0000
     1.0000   1.0000   1.0000   1.0000   1.0000   1.0000   1.0000   1.0000
     1.0000   1.0000   1.0000   1.0000   1.0000   1.0000   1.0000   1.0000
     1.0000   1.0000   1.0000   1.0000   1.0000   1.0000   1.0000   1.0000
     1.0000   1.0000   1.0000   1.0000   1.0000   1.0000   1.0000   1.0000
     1.0000   1.0000   1.0000   1.0000   1.0000   1.0000   1.0000   1.0000
     1.0000   1.0000   1.0000   1.0000   1.0000   1.0000   1.0000   1.0000
     1.0000   1.0000   1.0000   1.0000   1.0000   1.0000   1.0000   1.0000
     1.0000   1.0000   1.0000   1.0000   1.0000   1.0000   1.0000   1.0000
     1.0000   1.0000   1.0000   1.0000   1.0000   1.0000   1.0000   1.0000
     1.0000   1.0000   1.0000   1.0000   1.0000   1.0000   1.0000   1.0000
     1.0000   1.0000   1.0000   1.0000   1.0000   1.0000   1.0000   1.0000
     1.0000   1.0000   1.0000   1.0000   1.0000   1.0000   1.0000   1.0000
     1.0000   1.0000   1.0000   1.0000   1.0000   1.0000   1.0000   1.0000
     1.0000   1.0000   1.0000   1.0000   1.0000   1.0000   1.0000   1.0000
     1.0000   1.0000   1.0000   1.0000   1.0000   1.0000   1.0000   1.0000
     1.0000   1.0000   1.0000   1.0000   1.0000   1.0000   1.0000   1.0000
     1.0000   1.0000   1.0000   1.0000   1.0000   1.0000   1.0000   1.0000
     1.0000   1.0000   1.0000   1.0000   1.0000   1.0000   1.0000   1.0000
     1.0000   1.0000   1.0000   1.0000   1.0000   1.0000   1.0000   1.0000
     1.0000   1.0000   1.0000   1.0000   1.0000   1.0000   1.0000   1.0000
     1.0000   1.0000   1.0000   1.0000   1.0000   1.0000   1.0000   1.0000
     1.0000   1.0000   1.0000   1.0000   1.0000   1.0000   1.0000   1.0000
     1.0000   1.0000   1.0000   1.0000   1.0000   1.0000   1.0000   1.0018
     1.0249   1.0260   1.0822   1.0832   0.5317   0.5119   0.4119   0.3769
     0.0000   0.0000   0.0000   0.0000   0.0000   0.0000   0.0000   0.0000
     0.0000   0.0000   0.0000   0.0000   0.0000   0.0000   0.0000   0.0000
     0.0000   0.0000   0.0000   0.0000   0.0000   0.0000   0.0000   0.0000
     0.0000   0.0000   0.0000   0.0000   0.0000   0.0000   0.0000   0.0000
     0.0000   0.0000   0.0000   0.0000   0.0000   0.0000   0.0000   0.0000
     0.0000   0.0000   0.0000   0.0000   0.0000   0.0000   0.0000   0.0000
     0.0000   0.0000   0.0000   0.0000   0.0000   0.0000   0.0000   0.0000
     0.0000   0.0000   0.0000   0.0000   0.0000   0.0000   0.0000   0.0000
     0.0000   0.0000   0.0000   0.0000   0.0000   0.0000   0.0000   0.0000
     0.0000   0.0000   0.0000   0.0000   0.0000   0.0000   0.0000   0.0000
     0.0000   0.0000   0.0000   0.0000   0.0000   0.0000   0.0000   0.0000
     0.0000   0.0000   0.0000   0.0000   0.0000   0.0000   0.0000   0.0000
     0.0000   0.0000

          k = 0.3333 0.5774 0.0000 ( 64848 PWs)   bands (ev):

  -124.6031-124.6022-124.6015-124.6005-124.5996-124.5958-124.5947-124.5933
  -124.5927-124.5921-124.5913-124.5911-124.5898-124.5891-124.5879-124.5857
  -124.4359-124.4128-124.4120-124.4118-124.4099-124.4074-124.4072-124.4057
  -124.4001-124.3987-124.3966-124.3933-124.3930-124.3920-124.3918-124.3909
  -124.3903-124.3899-124.3896-124.3894-124.3892-124.3887-124.3884-124.3882
  -124.3877-124.3871-124.3863-124.3859-124.3855-124.3811-124.3719-124.3641
   -78.7660 -78.7646 -78.7639 -78.7627 -78.7609 -78.7604 -78.7581 -78.7576
   -78.7572 -78.7542 -78.7532 -78.7507 -78.7497 -78.7492 -78.7491 -78.7474
   -78.7470 -78.7461 -78.7456 -78.7451 -78.7450 -78.7430 -78.7412 -78.7410
   -78.7401 -78.7397 -78.7391 -78.7386 -78.7383 -78.7379 -78.7378 -78.7372
   -78.7370 -78.7368 -78.7359 -78.7356 -78.7348 -78.7345 -78.7343 -78.7338
   -78.7334 -78.7329 -78.7326 -78.7320 -78.7305 -78.7297 -78.7277 -78.7269
   -78.5919 -78.5869 -78.5864 -78.5693 -78.5686 -78.5682 -78.5677 -78.5674
   -78.5664 -78.5651 -78.5643 -78.5636 -78.5634 -78.5631 -78.5619 -78.5615
   -78.5610 -78.5594 -78.5576 -78.5565 -78.5562 -78.5548 -78.5547 -78.5537
   -78.5530 -78.5527 -78.5527 -78.5525 -78.5510 -78.5509 -78.5503 -78.5498
   -78.5492 -78.5491 -78.5489 -78.5488 -78.5487 -78.5484 -78.5479 -78.5472
   -78.5472 -78.5470 -78.5463 -78.5457 -78.5453 -78.5450 -78.5449 -78.5448
   -78.5446 -78.5445 -78.5442 -78.5437 -78.5436 -78.5432 -78.5431 -78.5426
   -78.5418 -78.5416 -78.5410 -78.5409 -78.5405 -78.5402 -78.5400 -78.5388
   -78.5371 -78.5370 -78.5353 -78.5349 -78.5349 -78.5343 -78.5340 -78.5332
   -78.5301 -78.5299 -78.5294 -78.5291 -78.5286 -78.5285 -78.5285 -78.5282
   -78.5277 -78.5272 -78.5266 -78.5265 -78.5262 -78.5261 -78.5253 -78.5250
   -78.5214 -78.5209 -78.5206 -78.5204 -78.5196 -78.5153 -78.5090 -78.5071
   -17.7563 -16.5967 -15.5971 -13.1785 -13.0955 -10.1619  -9.8818  -8.0130
    -7.4813  -7.4637  -7.4511  -7.3578  -7.3563  -6.4433  -6.4306  -6.4242
    -6.3224  -6.3184  -6.3151  -6.3049  -6.3034  -6.3030  -6.3010  -6.2999
    -6.2989  -6.1881  -6.1869  -6.1836  -6.1338  -6.1281  -6.1232  -6.1210
    -6.1194  -6.1166  -6.1133  -6.1113  -6.1088  -6.0851  -6.0832  -6.0806
    -6.0772  -6.0744  -6.0731  -6.0726  -6.0681  -6.0673  -5.9786  -5.9725
    -5.9697  -5.9523  -5.9507  -5.9499  -5.9473  -5.9466  -5.9446  -5.9319
    -5.9304  -5.9288  -5.9119  -5.9093  -5.9061  -5.8867  -5.8864  -5.8853
    -5.8707  -5.8690  -5.8665  -5.8659  -5.8016  -5.7973  -5.7956  -5.7939
    -5.7911  -5.7874  -5.7856  -5.7665  -5.7661  -5.7645  -5.7602  -5.7589
    -5.7542  -5.7523  -5.7292  -5.7271  -5.7147  -5.7128  -5.7075  -5.6658
    -5.6643  -5.6624  -5.6405  -5.6380  -5.6348  -5.6292  -5.6285  -5.6283
    -5.6279  -5.6272  -5.6238  -5.5833  -5.5825  -5.5822  -5.5670  -5.5666
    -5.5622  -5.5617  -5.5604  -5.5571  -5.5552  -5.5517  -5.5504  -5.5109
    -5.5078  -5.5058  -5.4903  -5.4885  -5.4878  -5.4855  -5.4821  -5.4811
    -5.4705  -5.4482  -5.4472  -5.4412  -5.4351  -5.4317  -5.4294  -5.4004
    -5.3946  -5.3856  -5.3819  -5.3512  -5.3484  -5.3426  -5.3418  -5.3415
    -5.3401  -5.3392  -5.3385  -5.3369  -5.3355  -5.3335  -5.3330  -5.3318
    -5.3264  -5.3250  -5.3215  -5.3178  -5.3085  -5.3052  -5.3035  -5.2725
    -5.2712  -5.2697  -5.2588  -5.2521  -5.2483  -5.2458  -5.2063  -5.1985
    -5.1947  -5.1920  -5.1835  -5.1811  -5.1795  -5.1782  -5.1776  -5.1724
    -5.1394  -5.1353  -5.1343  -5.1333  -5.1305  -5.1275  -5.1080  -5.1042
    -5.1025  -5.1009  -5.0986  -5.0969  -5.0939  -5.0914  -5.0904  -5.0851
    -5.0824  -5.0793  -5.0780  -5.0767  -5.0762  -5.0739  -5.0715  -5.0709
    -5.0692  -5.0679  -5.0664  -5.0660  -5.0646  -5.0638  -5.0566  -5.0484
    -5.0449  -5.0190  -5.0164  -4.9990  -4.9970  -4.9962  -4.9953  -4.9945
    -4.9936  -4.9920  -4.9910  -4.9907  -4.9790  -4.9777  -4.9762  -4.9757
    -4.9748  -4.9741  -4.9727  -4.9708  -4.9695  -4.9582  -4.9523  -4.9514
    -4.9461  -4.9454  -4.9430  -4.9418  -4.9393  -4.9388  -4.9369  -4.9251
    -4.9234  -4.9221  -4.9209  -4.9196  -4.9195  -4.9040  -4.9020  -4.9003
    -4.8544  -4.8537  -4.8530  -4.8484  -4.8073  -4.7985  -4.7944  -4.7922
    -4.7903  -4.7883  -4.7859  -4.7782  -4.7775  -4.7763  -4.7761  -4.7742
    -4.7733  -4.7066  -4.6867  -4.4835  -4.4778  -4.4734  -4.3321  -4.0922
    -3.4818  -3.3304  -3.3066  -3.2247  -3.0139  -2.9917  -2.9851  -2.9817
    -2.9784  -2.9742  -2.9708  -2.6806  -2.6136  -2.5171  -2.4852  -2.1693
    -1.9651  -1.6111  -1.5659  -1.5571  -1.5536  -1.5429  -1.5089  -1.2008
    -1.0519  -1.0432  -0.8607   0.1797   0.5256   0.5460   0.5629   0.5729
     0.5778   0.5804   0.5839   0.5921   0.6230   0.6382   0.6717   0.7098
     1.0907   1.0934   1.1003   1.6645   1.6760   1.6801   2.6451   2.6814
     2.7067   2.7511   2.8992   2.9549   3.1980   3.2074   3.2116   3.7388
     3.8297   3.9608   3.9836   4.0567   4.2306   4.3349   4.3520   4.3581
     4.3853   4.5637   4.5743   4.5881   4.6250   4.6479   4.7436   4.8976
     4.9043   4.9073   4.9140   4.9229   4.9258   4.9732   5.0224   5.0494
     5.0681   5.4703   5.6144   5.6967   5.8351   5.9248   5.9694   6.0321
     6.1330   6.2278   6.2686   6.3167   6.3892   6.3986   6.3999   6.4100
     6.4262   6.4320   6.5989   6.6988   6.8196   6.8628   7.0321   7.0555
     7.1665   7.2194   7.2411   7.2661   7.2779   7.4109   7.4491   7.4768
     7.5815   7.6202   7.6355   7.6760   7.7378   7.7896   7.9563   8.0763
     8.1014   8.1188   8.3154   8.3774   8.3877   8.3895   8.4458   8.5050
     8.6673   8.7076   8.7649   8.7745   8.8169   8.8653   8.8809   8.9087
     8.9157   8.9619   9.0034   9.0266   9.0381   9.1068   9.1540   9.1750
     9.1842   9.2284

     occupation numbers 
     1.0000   1.0000   1.0000   1.0000   1.0000   1.0000   1.0000   1.0000
     1.0000   1.0000   1.0000   1.0000   1.0000   1.0000   1.0000   1.0000
     1.0000   1.0000   1.0000   1.0000   1.0000   1.0000   1.0000   1.0000
     1.0000   1.0000   1.0000   1.0000   1.0000   1.0000   1.0000   1.0000
     1.0000   1.0000   1.0000   1.0000   1.0000   1.0000   1.0000   1.0000
     1.0000   1.0000   1.0000   1.0000   1.0000   1.0000   1.0000   1.0000
     1.0000   1.0000   1.0000   1.0000   1.0000   1.0000   1.0000   1.0000
     1.0000   1.0000   1.0000   1.0000   1.0000   1.0000   1.0000   1.0000
     1.0000   1.0000   1.0000   1.0000   1.0000   1.0000   1.0000   1.0000
     1.0000   1.0000   1.0000   1.0000   1.0000   1.0000   1.0000   1.0000
     1.0000   1.0000   1.0000   1.0000   1.0000   1.0000   1.0000   1.0000
     1.0000   1.0000   1.0000   1.0000   1.0000   1.0000   1.0000   1.0000
     1.0000   1.0000   1.0000   1.0000   1.0000   1.0000   1.0000   1.0000
     1.0000   1.0000   1.0000   1.0000   1.0000   1.0000   1.0000   1.0000
     1.0000   1.0000   1.0000   1.0000   1.0000   1.0000   1.0000   1.0000
     1.0000   1.0000   1.0000   1.0000   1.0000   1.0000   1.0000   1.0000
     1.0000   1.0000   1.0000   1.0000   1.0000   1.0000   1.0000   1.0000
     1.0000   1.0000   1.0000   1.0000   1.0000   1.0000   1.0000   1.0000
     1.0000   1.0000   1.0000   1.0000   1.0000   1.0000   1.0000   1.0000
     1.0000   1.0000   1.0000   1.0000   1.0000   1.0000   1.0000   1.0000
     1.0000   1.0000   1.0000   1.0000   1.0000   1.0000   1.0000   1.0000
     1.0000   1.0000   1.0000   1.0000   1.0000   1.0000   1.0000   1.0000
     1.0000   1.0000   1.0000   1.0000   1.0000   1.0000   1.0000   1.0000
     1.0000   1.0000   1.0000   1.0000   1.0000   1.0000   1.0000   1.0000
     1.0000   1.0000   1.0000   1.0000   1.0000   1.0000   1.0000   1.0000
     1.0000   1.0000   1.0000   1.0000   1.0000   1.0000   1.0000   1.0000
     1.0000   1.0000   1.0000   1.0000   1.0000   1.0000   1.0000   1.0000
     1.0000   1.0000   1.0000   1.0000   1.0000   1.0000   1.0000   1.0000
     1.0000   1.0000   1.0000   1.0000   1.0000   1.0000   1.0000   1.0000
     1.0000   1.0000   1.0000   1.0000   1.0000   1.0000   1.0000   1.0000
     1.0000   1.0000   1.0000   1.0000   1.0000   1.0000   1.0000   1.0000
     1.0000   1.0000   1.0000   1.0000   1.0000   1.0000   1.0000   1.0000
     1.0000   1.0000   1.0000   1.0000   1.0000   1.0000   1.0000   1.0000
     1.0000   1.0000   1.0000   1.0000   1.0000   1.0000   1.0000   1.0000
     1.0000   1.0000   1.0000   1.0000   1.0000   1.0000   1.0000   1.0000
     1.0000   1.0000   1.0000   1.0000   1.0000   1.0000   1.0000   1.0000
     1.0000   1.0000   1.0000   1.0000   1.0000   1.0000   1.0000   1.0000
     1.0000   1.0000   1.0000   1.0000   1.0000   1.0000   1.0000   1.0000
     1.0000   1.0000   1.0000   1.0000   1.0000   1.0000   1.0000   1.0000
     1.0000   1.0000   1.0000   1.0000   1.0000   1.0000   1.0000   1.0000
     1.0000   1.0000   1.0000   1.0000   1.0000   1.0000   1.0000   1.0000
     1.0000   1.0000   1.0000   1.0000   1.0000   1.0000   1.0000   1.0000
     1.0000   1.0000   1.0000   1.0000   1.0000   1.0000   1.0000   1.0000
     1.0000   1.0000   1.0000   1.0000   1.0000   1.0000   1.0000   1.0000
     1.0000   1.0000   1.0000   1.0000   1.0000   1.0000   1.0000   1.0000
     1.0000   1.0000   1.0000   1.0000   1.0000   1.0000   1.0000   1.0000
     1.0000   1.0000   1.0000   1.0000   1.0000   1.0000   1.0000   1.0000
     1.0000   1.0000   1.0000   1.0000   1.0000   1.0000   1.0000   1.0000
     1.0000   1.0000   1.0000   1.0000   1.0000   1.0000   1.0000   1.0000
     1.0000   1.0000   1.0000   1.0000   1.0000   1.0000   1.0000   1.0000
     1.0000   1.0000   1.0000   1.0000   1.0000   1.0000   1.0000   1.0000
     1.0000   1.0000   1.0000   1.0000   1.0000   1.0000   1.0000   1.0000
     1.0000   1.0000   1.0000   1.0000   1.0000   1.0000   1.0000   1.0000
     1.0000   1.0000   1.0000   1.0000   1.0000   1.0000   1.0000   1.0000
     1.0000   1.0000   1.0000   1.0000   1.0000   1.0000   1.0000   1.0000
     1.0000   1.0000   1.0000   1.0000   1.0000   1.0000   1.0000   1.0000
     1.0000   1.0000   1.0000   1.0000   1.0000   1.0000   1.0000   1.0000
     1.0000   1.0000   1.0000   1.0000   1.0000   1.0000   1.0000   1.0000
[...]
     atom   27 type  1   force =     0.00002442   -0.00002266    0.00000948
     atom   28 type  1   force =    -0.00005078   -0.00002762    0.00000914
     atom   29 type  1   force =    -0.00000000    0.00000000    0.00000000
     atom   30 type  1   force =     0.00000000    0.00000000    0.00000000
     atom   31 type  1   force =    -0.00000069    0.00000519   -0.00000826
     atom   32 type  1   force =    -0.00000244   -0.00002832   -0.00000016
     atom   33 type  1   force =    -0.00000762   -0.00000807   -0.00000397
     atom   34 type  1   force =    -0.00000644    0.00002132   -0.00005563
     atom   35 type  1   force =    -0.00001764   -0.00000781    0.00008504
     atom   36 type  1   force =     0.00000837    0.00000500   -0.00001297
     atom   37 type  1   force =    -0.00002724    0.00000906    0.00004788
     atom   38 type  1   force =     0.00003135   -0.00000930    0.00008361
     atom   39 type  1   force =    -0.00000941   -0.00000001   -0.00003646
     atom   40 type  1   force =     0.00000348    0.00002731    0.00003689
     atom   41 type  1   force =     0.00001343    0.00001344   -0.00001373
     atom   42 type  1   force =    -0.00002355    0.00000542   -0.00004064
     atom   43 type  1   force =     0.00002860   -0.00000202    0.00011146
     atom   44 type  1   force =    -0.00003309   -0.00000376   -0.00003365
     atom   45 type  1   force =     0.00000381    0.00000900    0.00014234
     atom   46 type  1   force =    -0.00001421   -0.00000674   -0.00002948
     atom   47 type  1   force =    -0.00000647    0.00002591    0.00002874
     atom   48 type  1   force =     0.00000022    0.00000183   -0.00004004
     atom   49 type  3   force =    -0.00004380    0.00002865   -0.00001669
     atom   50 type  3   force =     0.00000729    0.00000225   -0.00001869
     atom   51 type  3   force =     0.00002861   -0.00000206    0.00000684
     atom   52 type  3   force =     0.00001687   -0.00001242   -0.00001128
     atom   53 type  3   force =     0.00002526   -0.00000960    0.00001399
     atom   54 type  3   force =     0.00002828   -0.00001303    0.00000638
     atom   55 type  3   force =     0.00000960    0.00000430   -0.00000381
     atom   56 type  2   force =    -0.00003998    0.00002168   -0.00002121
     atom   57 type  2   force =     0.00001828    0.00001261   -0.00000671
     atom   58 type  4   force =     0.00000102    0.00000020   -0.00000056
     atom   59 type  4   force =    -0.00000121    0.00000003   -0.00000270
     atom   60 type  4   force =    -0.00000468   -0.00000509   -0.00000175
     atom   61 type  4   force =     0.00000353    0.00000405    0.00000149
     atom   62 type  4   force =     0.00000258    0.00000005    0.00000161
     atom   63 type  4   force =    -0.00000048   -0.00000322    0.00000186

     DFT-D3 dispersion contribution to forces:
     atom    1 type  1   force =     0.00001146    0.00001710    0.00266390
     atom    2 type  1   force =    -0.00000323    0.00001731    0.00264866
     atom    3 type  1   force =     0.00033417    0.00056923   -0.00159710
     atom    4 type  1   force =    -0.00027386    0.00032605   -0.00121982
     atom    5 type  1   force =     0.00001958   -0.00000064    0.00268242
     atom    6 type  1   force =    -0.00000048   -0.00000252    0.00271657
     atom    7 type  1   force =     0.00053560    0.00038903   -0.00110160
     atom    8 type  1   force =    -0.00038212    0.00019349   -0.00131043
     atom    9 type  1   force =     0.00002145   -0.00001798    0.00269134
     atom   10 type  1   force =    -0.00000362   -0.00002196    0.00275452
     atom   11 type  1   force =     0.00045484   -0.00020950   -0.00145311
     atom   12 type  1   force =    -0.00027500   -0.00037199   -0.00104880
     atom   13 type  1   force =     0.00000263    0.00000595    0.00267391
     atom   14 type  1   force =     0.00000877   -0.00001321    0.00265978
     atom   15 type  1   force =     0.00002828    0.00004465   -0.00200069
     atom   16 type  1   force =    -0.00012049   -0.00063721   -0.00112950
     atom   17 type  1   force =     0.00000595    0.00002027    0.00270534
     atom   18 type  1   force =     0.00001370   -0.00000112    0.00259440
     atom   19 type  1   force =     0.00010373    0.00070182   -0.00126160
     atom   20 type  1   force =    -0.00017746    0.00013315   -0.00186303
     atom   21 type  1   force =     0.00001560    0.00001318    0.00276611
     atom   22 type  1   force =    -0.00001070   -0.00000525    0.00266215
     atom   23 type  1   force =     0.00016045    0.00036404   -0.00108913
     atom   24 type  1   force =    -0.00041133    0.00002482   -0.00124431
     atom   25 type  1   force =     0.00002168   -0.00001469    0.00275320
     atom   26 type  1   force =    -0.00000756   -0.00001612    0.00269776
     atom   27 type  1   force =     0.00036311   -0.00023886   -0.00096448
     atom   28 type  1   force =    -0.00055573   -0.00046239   -0.00132315
     atom   29 type  1   force =     0.00002627   -0.00000645    0.00268247
     atom   30 type  1   force =    -0.00000763   -0.00001019    0.00264634
     atom   31 type  1   force =     0.00036860   -0.00023554   -0.00142792
     atom   32 type  1   force =    -0.00030038   -0.00051825   -0.00169214
     atom   33 type  1   force =     0.00000430   -0.00000344    0.00005725
     atom   34 type  1   force =    -0.00000251    0.00000711    0.00003679
     atom   35 type  1   force =    -0.00001097   -0.00002826    0.00008666
     atom   36 type  1   force =     0.00000891    0.00000384    0.00007205
     atom   37 type  1   force =    -0.00000255    0.00000115    0.00021243
     atom   38 type  1   force =     0.00001154   -0.00002370    0.00025719
     atom   39 type  1   force =    -0.00004180    0.00001649   -0.00002860
     atom   40 type  1   force =     0.00002589    0.00002863    0.00004770
     atom   41 type  1   force =    -0.00003995   -0.00006159    0.00000332
     atom   42 type  1   force =     0.00002554   -0.00002166    0.00005884
     atom   43 type  1   force =     0.00003050    0.00000482    0.00029314
     atom   44 type  1   force =    -0.00001628   -0.00000077    0.00005776
     atom   45 type  1   force =    -0.00003909    0.00002331    0.00014263
     atom   46 type  1   force =     0.00002793    0.00006239    0.00000308
     atom   47 type  1   force =     0.00000147    0.00000525    0.00020091
     atom   48 type  1   force =    -0.00000156   -0.00000948    0.00005597
     atom   49 type  3   force =     0.00030180   -0.00015860   -0.00175242
     atom   50 type  3   force =     0.00011097   -0.00007102   -0.00135941
     atom   51 type  3   force =    -0.00000970   -0.00047731   -0.00157741
     atom   52 type  3   force =     0.00040923    0.00024592   -0.00157411
     atom   53 type  3   force =    -0.00025059   -0.00041215   -0.00111435
     atom   54 type  3   force =     0.00021147    0.00038772   -0.00111438
     atom   55 type  3   force =    -0.00026220    0.00017185   -0.00151495
     atom   56 type  2   force =    -0.00008023    0.00004257   -0.00222812
     atom   57 type  2   force =    -0.00018968    0.00012145   -0.00166457
     atom   58 type  4   force =    -0.00012374    0.00004587   -0.00177441
     atom   59 type  4   force =    -0.00009876    0.00009641   -0.00174871
     atom   60 type  4   force =     0.00007478    0.00004461   -0.00130220
     atom   61 type  4   force =    -0.00001279   -0.00009529   -0.00130903
     atom   62 type  4   force =     0.00004325    0.00011877   -0.00138890
     atom   63 type  4   force =    -0.00007148   -0.00010111   -0.00140621

     Total force =     0.001440     Total SCF correction =     0.000378

     DFT-D3 dispersion Force =     0.013718
     SCF correction compared to forces is large: reduce conv_thr to get better values


     Computing stress (Cartesian axis) and pressure


     negative rho (up, down):  5.005E-03 0.000E+00
          total   stress  (Ry/bohr**3)                   (kbar)     P=       -9.31
  -0.00009317   0.00000018   0.00000194          -13.71        0.03        0.29
   0.00000018  -0.00009320  -0.00000058            0.03      -13.71       -0.08
   0.00000194  -0.00000058  -0.00000348            0.29       -0.08       -0.51

     kinetic stress (kbar)  12944.99      8.80     -4.79
                                8.80  12954.53      2.50
                               -4.79      2.50  13102.46

     local   stress (kbar)**********    660.84    -85.99
                              660.84**********     42.88
                              -85.99     42.881229705.42

     nonloc. stress (kbar)  -1174.28     -1.93      0.09
                               -1.93  -1176.43     -0.02
                                0.09     -0.02  -1227.21

     hartree stress (kbar) 635329.95   -272.32     31.01
                             -272.32 635034.09    -15.76
                               31.01    -15.76-578762.37

     exc-cor stress (kbar)  -6324.86     -0.60      0.16
                               -0.60  -6325.52     -0.08
                                0.16     -0.08  -6337.85

     corecor stress (kbar)    -83.94      0.19     -0.02
                                0.19    -83.73      0.01
                               -0.02      0.01    -82.60

     ewald   stress (kbar) 576581.50   -394.95     59.83
                             -394.95 576150.18    -29.61
                               59.83    -29.61-656393.00

     hubbard stress (kbar)      0.00      0.00      0.00
                                0.00      0.00      0.00
                                0.00      0.00      0.00

     DFT-D   stress (kbar)    -10.69      0.00     -0.00
                                0.00    -10.68     -0.00
                               -0.00     -0.00     -5.37

     XDM     stress (kbar)      0.00      0.00      0.00
                                0.00      0.00      0.00
                                0.00      0.00      0.00

     dft-nl  stress (kbar)      0.00      0.00      0.00
                                0.00      0.00      0.00
                                0.00      0.00      0.00

     TS-vdW  stress (kbar)      0.00      0.00      0.00
                                0.00      0.00      0.00
                                0.00      0.00      0.00

     MDB     stress (kbar)      0.00      0.00      0.00
                                0.00      0.00      0.00
                                0.00      0.00      0.00

     3D-RISM stress (kbar)      0.00      0.00      0.00
                                0.00      0.00      0.00
                                0.00      0.00      0.00

     Energy error            =      6.3E-06 Ry
     Gradient error          =      4.4E-04 Ry/Bohr

     bfgs converged in 112 scf cycles and 109 bfgs steps
     (criteria: energy <  1.0E-05 Ry, force <  5.0E-04 Ry/Bohr)

     End of BFGS Geometry Optimization

     Final energy             =  -22331.5768453024 Ry

     File ./tmp/Zn002_3layer_ABN_relax.bfgs deleted, as requested
Begin final coordinates

ATOMIC_POSITIONS (angstrom)
Zn               0.0000000000        1.5094010000        1.2182900000    0   0   0
Zn               5.2287200000        1.5094010000        1.2182900000    0   0   0
Zn              -0.0121542501        1.5147788327        6.1685876683
Zn               5.2158526689        1.5147611686        6.2262659048
Zn              -1.3071800000        3.7735030000        1.2182900000    0   0   0
Zn               3.9215400000        3.7735030000        1.2182900000    0   0   0
Zn              -1.3226622840        3.7757337186        6.1546433550
Zn               3.9052406379        3.7794598047        6.0996765595
Zn              -2.6143600000        6.0376050000        1.2182900000    0   0   0
Zn               2.6143600000        6.0376050000        1.2182900000    0   0   0
Zn              -2.6312124487        6.0393308650        6.1706173825
Zn               2.5983714616        6.0417063804        6.1745828421
Zn              -3.9215400000        8.3017080000        1.2182900000    0   0   0
Zn               1.3071800000        8.3017080000        1.2182900000    0   0   0
Zn              -3.9350017543        8.3068079468        6.1946480557
Zn               1.2939527630        8.3073435786        6.1688346443
Zn               2.6143600000        1.5094010000        1.2182900000    0   0   0
Zn               7.8430800000        1.5094010000        1.2182900000    0   0   0
Zn               2.6033985630        1.5147950036        6.1428368658
Zn               7.8287546461        1.5141401635        6.2004541063
Zn               1.3071800000        3.7735030000        1.2182900000    0   0   0
Zn               6.5359000000        3.7735030000        1.2182900000    0   0   0
Zn               1.2913724294        3.7779696273        6.1606497723
Zn               6.5216484247        3.7775706164        6.2088065029
Zn               0.0000000000        6.0376050000        1.2182900000    0   0   0
Zn               5.2287200000        6.0376050000        1.2182900000    0   0   0
Zn              -0.0143175150        6.0426728722        6.0957756540
Zn               5.2143135226        6.0395975267        6.1501714243
Zn              -1.3071800000        8.3017080000        1.2182900000    0   0   0
Zn               3.9215400000        8.3017080000        1.2182900000    0   0   0
Zn              -1.3190526931        8.3107875813        6.1754930012
Zn               3.9067046263        8.3031986008        6.1763463471
Zn               1.2988285370        0.7533846696        3.6928793886
Zn               6.5286234613        0.7577740340        3.7079080195
Zn              -0.0101664379        3.0187793579        3.6868452842
Zn               5.2266887765        3.0176904142        3.6875862714
Zn              -1.3201278546        5.2837106804        3.6857122599
Zn               3.9163916523        5.2885146555        3.6801410008
Zn              -2.6233518833        7.5508236861        3.7032908493
Zn               2.6071954537        7.5527377193        3.6912762465
Zn               3.9161022584        0.7556314466        3.6948384154
Zn               9.1412616818        0.7568537441        3.7091628102
Zn               2.6060304072        3.0174058649        3.6773302157
Zn               7.8342257725        3.0196378034        3.7037318594
Zn               1.3001705012        5.2858497050        3.6639540346
Zn               6.5294213049        5.2846045950        3.6939964898
Zn              -0.0081907734        7.5556169675        3.6875372986
Zn               5.2231945613        7.5516008756        3.6981692666
C                4.7191936112        3.1719943169        9.5174894507
C                3.4923779769        3.8905840607        9.5284358982
C                2.2616801580        3.2019449355        9.4976501080
C                3.4816418856        5.3009573962        9.5064652194
C                1.0636577780        3.8964256431        9.4371024599
C                2.2848384494        5.9984865227        9.4485356352
C                1.0499982563        5.3102650090        9.4096205947
N                5.7251499569        2.5771464169        9.4678968380
N               -0.1337356472        5.9966000376        9.3471065321
H               -0.1106194028        6.9673519782        9.0492600436
H               -0.9619667569        5.4945724794        9.0411940121
H                4.4257215626        5.8452092806        9.5113413804
H                2.2563201340        2.1121211386        9.4957251622
H                2.2918476289        7.0892417065        9.4164768477
H                0.1199782801        3.3498764811        9.3958873668
End final coordinates



     Writing all to output data dir ./tmp/Zn002_3layer_ABN_relax.save/ :
     XML data file, charge density, pseudopotentials, collected wavefunctions

     init_run     :     66.04s CPU     66.61s WALL (       1 calls)
     electrons    :  17567.06s CPU  17708.40s WALL (       4 calls)
     update_pot   :      0.56s CPU      0.58s WALL (       3 calls)
     forces       :    602.19s CPU    605.74s WALL (       4 calls)
     force_dftd3  :      0.89s CPU      0.99s WALL (       4 calls)
     stress       :    821.58s CPU    827.52s WALL (       4 calls)
     stres_dftd3  :      0.92s CPU      0.97s WALL (       4 calls)

     Called by init_run:
     wfcinit      :     64.36s CPU     64.87s WALL (       1 calls)
     wfcinit:atom :      0.04s CPU      0.07s WALL (       5 calls)
     wfcinit:wfcr :     63.78s CPU     64.17s WALL (       5 calls)
     potinit      :      0.15s CPU      0.16s WALL (       1 calls)
     hinit0       :      0.26s CPU      0.27s WALL (       1 calls)

     Called by electrons:
     c_bands      :  16728.19s CPU  16853.20s WALL (      42 calls)
     sum_band     :    728.01s CPU    739.12s WALL (      42 calls)
     v_of_rho     :      3.78s CPU      3.94s WALL (      43 calls)
     v_h          :      0.28s CPU      0.29s WALL (      43 calls)
     v_xc         :      4.15s CPU      4.36s WALL (      51 calls)
     newd         :    112.09s CPU    117.04s WALL (      43 calls)
     PAW_pot      :      3.04s CPU      3.05s WALL (      46 calls)
     mix_rho      :      0.52s CPU      0.68s WALL (      42 calls)
     energy_dftd3 :      0.52s CPU      0.52s WALL (       4 calls)

     Called by c_bands:
     init_us_2    :      9.41s CPU      9.51s WALL (     480 calls)
     cegterg      :  16710.42s CPU  16832.69s WALL (     210 calls)

     Called by sum_band:
     sum_band:wei :      0.10s CPU      0.11s WALL (      42 calls)
     sum_band:loo :    622.32s CPU    625.53s WALL (      42 calls)
     sum_band:buf :      1.72s CPU      1.80s WALL (     210 calls)
     sum_band:ini :      4.20s CPU      4.22s WALL (     210 calls)
     sum_band:cal :    574.83s CPU    577.56s WALL (     225 calls)
     sum_band:bec :      5.31s CPU      5.33s WALL (     225 calls)
     addusdens    :    104.91s CPU    112.54s WALL (      42 calls)
                                        0.00s GPU  (      42 calls)
     addusd:skk   :      0.62s CPU      1.13s WALL (     168 calls)
                                        0.00s GPU  (     168 calls)

     Called by *egterg:
     cdiaghg      :    624.90s CPU    650.44s WALL (    1185 calls)
     cegterg:over :   3833.64s CPU   3847.16s WALL (    1005 calls)
     cegterg:upda :   1148.81s CPU   1157.37s WALL (    1005 calls)
     cegterg:last :   6687.99s CPU   6721.08s WALL (     431 calls)
     cdiaghg:chol :     40.17s CPU     40.29s WALL (    1185 calls)
     cdiaghg:inve :      6.42s CPU      6.44s WALL (    1185 calls)
     cdiaghg:para :    168.58s CPU    172.41s WALL (    2370 calls)
     h_psi        :   2717.08s CPU   2736.87s WALL (    1220 calls)
     s_psi        :   1147.25s CPU   1150.16s WALL (    1220 calls)
     g_psi        :      1.35s CPU      1.39s WALL (    1005 calls)

     Called by h_psi:
     h_psi:calbec :   1231.28s CPU   1237.68s WALL (    1220 calls)
     vloc_psi     :    326.42s CPU    329.08s WALL (    1220 calls)
     add_vuspsi   :   1156.15s CPU   1159.93s WALL (    1220 calls)

     General routines
     calbec       :   2417.55s CPU   2428.85s WALL (    1545 calls)
     fft          :      2.35s CPU      2.65s WALL (     657 calls)
     ffts         :      0.08s CPU      0.10s WALL (      85 calls)
     fftw         :    350.82s CPU    353.51s WALL (  706388 calls)
     interpolate  :      0.20s CPU      0.22s WALL (      43 calls)

     Parallel routines

     PAW routines
     PAW_pot      :      3.04s CPU      3.05s WALL (      46 calls)

     PWSCF        :      5h18m CPU      5h21m WALL


   This run was terminated on:   7:32:36   2Apr2025            

=------------------------------------------------------------------------------=
   JOB DONE.
=------------------------------------------------------------------------------=
