
     Program PWSCF v.7.3.1 starts on  6Apr2025 at 15: 1:37 

     This program is part of the open-source Quantum ESPRESSO suite
     for quantum simulation of materials; please cite
         "P. Giannozzi et al., J. Phys.:Condens. Matter 21 395502 (2009);
         "P. Giannozzi et al., J. Phys.:Condens. Matter 29 465901 (2017);
         "P. Giannozzi et al., J. Chem. Phys. 152 154105 (2020);
          URL http://www.quantum-espresso.org", 
     in publications or presentations arising from this work. More details at
     http://www.quantum-espresso.org/quote

     Parallel version (MPI), running on    26 processors

     MPI processes distributed on     1 nodes
     212083 MiB available memory on the printing compute node when the environment starts

     Waiting for input...
     Reading input from standard input
Warning: card &CELL ignored
Warning: card   CELL_DOFREE = 'ALL' ignored
Warning: card / ignored

     Current dimensions of program PWSCF are:
     Max number of different atomic species (ntypx) = 10
     Max number of k-points (npk) =  40000
     Max angular momentum in pseudopotentials (lmaxx) =  4
     file C.pbe-n-kjpaw_psl.1.0.0.UPF: wavefunction(s)  2S 2P renormalized

     R & G space division:  proc/nbgrp/npool/nimage =      26
     Subspace diagonalization in iterative solution of the eigenvalue problem:
     one sub-group per band group will be used
     custom distributed-memory algorithm (size of sub-group:  5*  5 procs)


     Parallelization info
     --------------------
     sticks:   dense  smooth     PW     G-vecs:    dense   smooth      PW
     Min         343     196     54                51262    22144    3213
     Max         344     197     55                51270    22152    3221
     Sum        8941    5109   1411              1332973   575857   83601

     Using Slab Decomposition



     bravais-lattice index     =            0
     lattice parameter (alat)  =      20.9009  a.u.
     unit-cell volume          =   16846.7507 (a.u.)^3
     number of atoms/cell      =           63
     number of atomic types    =            4
     number of electrons       =      1004.00
     number of Kohn-Sham states=          602
     kinetic-energy cutoff     =      40.0000  Ry
     charge density cutoff     =     280.0000  Ry
     scf convergence threshold =      1.0E-06
     mixing beta               =       0.4000
     number of iterations used =            8  plain     mixing
     energy convergence thresh.=      1.0E-05
     force convergence thresh. =      5.0E-04
     Exchange-correlation= PBE
                           (   1   4   3   4   0   0   0)
     nstep                     =          500


     celldm(1)=  20.900943  celldm(2)=   0.000000  celldm(3)=   0.000000
     celldm(4)=   0.000000  celldm(5)=   0.000000  celldm(6)=   0.000000

     crystal axes: (cart. coord. in units of alat)
               a(1) = (   1.000000   0.000000   0.000000 )  
               a(2) = (  -0.223489   0.918700   0.000000 )  
               a(3) = (  -4.200249  -1.021781   2.008375 )  

     reciprocal axes: (cart. coord. in units 2 pi/alat)
               b(1) = (  1.000000  0.243267  2.215131 )  
               b(2) = ( -0.000000  1.088495  0.553783 )  
               b(3) = (  0.000000 -0.000000  0.497915 )  


     PseudoPot. # 1 for Zn read from file:
     /home/yongsang/Research/PSID_server_room/qe/[00]QE/qepseudo/SSSP_1.3.0_PBE_efficiency/Zn_pbe_v1.uspp.F.UPF
     MD5 check sum: df62231357ef9e81f77b2b3087fa5675
     Pseudo is Ultrasoft, Zval = 20.0
     Generated by new atomic code, or converted to UPF format
     Using radial grid of  943 points,  6 beta functions with: 
                l(1) =   0
                l(2) =   0
                l(3) =   1
                l(4) =   1
                l(5) =   2
                l(6) =   2
     Q(r) pseudized with  8 coefficients,  rinner =    1.100   1.100   1.100
                                                       1.100   1.100

     PseudoPot. # 2 for N  read from file:
     /home/yongsang/Research/PSID_server_room/qe/[00]QE/qepseudo/SSSP_1.3.0_PBE_efficiency/N.pbe-n-radius_5.UPF
     MD5 check sum: 16739722b17309cd8fe442a2ace49922
     Pseudo is Ultrasoft + core correction, Zval =  5.0
     Generated using "atomic" code by A. Dal Corso  v.5.1
     Using radial grid of 1085 points,  4 beta functions with: 
                l(1) =   0
                l(2) =   0
                l(3) =   1
                l(4) =   1
     Q(r) pseudized with 0 coefficients 


     PseudoPot. # 3 for C  read from file:
     /home/yongsang/Research/PSID_server_room/qe/[00]QE/qepseudo/SSSP_1.3.0_PBE_efficiency/C.pbe-n-kjpaw_psl.1.0.0.UPF
     MD5 check sum: 5d2aebdfa2cae82b50a7e79e9516da0f
     Pseudo is Projector augmented-wave + core cor, Zval =  4.0
     Generated using "atomic" code by A. Dal Corso  v.5.1
     Shape of augmentation charge: PSQ
     Using radial grid of 1073 points,  4 beta functions with: 
                l(1) =   0
                l(2) =   0
                l(3) =   1
                l(4) =   1
     Q(r) pseudized with 0 coefficients 


     PseudoPot. # 4 for H  read from file:
     /home/yongsang/Research/PSID_server_room/qe/[00]QE/qepseudo/SSSP_1.3.0_PBE_efficiency/H.pbe-rrkjus_psl.1.0.0.UPF
     MD5 check sum: f52b6d4d1c606e5624b1dc7b2218f220
     Pseudo is Ultrasoft, Zval =  1.0
     Generated using "atomic" code by A. Dal Corso  v.5.1
     Using radial grid of  929 points,  2 beta functions with: 
                l(1) =   0
                l(2) =   0
     Q(r) pseudized with 0 coefficients 


     atomic species   valence    mass     pseudopotential
     Zn               20.00    65.38000     Zn( 1.00)
     N                 5.00    14.00674     N ( 1.00)
     C                 4.00    12.01070     C ( 1.00)
     H                 1.00     1.00794     H ( 1.00)

     No symmetry found


                                    s                        frac. trans.

      isym =  1     identity                                     

 cryst.   s( 1) = (     1          0          0      )
                  (     0          1          0      )
                  (     0          0          1      )

 cart.    s( 1) = (  1.0000000  0.0000000  0.0000000 )
                  (  0.0000000  1.0000000  0.0000000 )
                  (  0.0000000  0.0000000  1.0000000 )


   Cartesian axes

     site n.     atom                  positions (alat units)
         1        Zn     tau(   1) = (  -0.0970639   0.0980210   0.1082940  )
         2        Zn     tau(   2) = (  -0.2088085   0.5573710   0.1082940  )
         3        Zn     tau(   3) = (  -0.3814597   0.0287832   0.3942657  )
         4        Zn     tau(   4) = (  -0.4939233   0.4879709   0.3946602  )
         5        Zn     tau(   5) = (  -0.7381357  -0.0591607   0.5255639  )
         6        Zn     tau(   6) = (  -0.8456914   0.4013207   0.5403268  )
         7        Zn     tau(   7) = (  -0.1529361   0.3276960   0.1082940  )
         8        Zn     tau(   8) = (  -0.2646808   0.7870460   0.1082940  )
         9        Zn     tau(   9) = (  -0.4381411   0.2586336   0.3941486  )
        10        Zn     tau(  10) = (  -0.5493167   0.7174584   0.3945707  )
        11        Zn     tau(  11) = (  -0.7942468   0.1698849   0.5245854  )
        12        Zn     tau(  12) = (  -0.9059777   0.6303054   0.5251535  )
        13        Zn     tau(  13) = (   0.4029362   0.0980210   0.1082940  )
        14        Zn     tau(  14) = (   0.2911915   0.5573710   0.1082940  )
        15        Zn     tau(  15) = (   0.0386526   0.0094385   0.3129316  )
        16        Zn     tau(  16) = (  -0.0729398   0.4695107   0.3107638  )
        17        Zn     tau(  17) = (  -0.1866374  -0.0444139   0.5133509  )
        18        Zn     tau(  18) = (  -0.2985441   0.4143773   0.5130839  )
        19        Zn     tau(  19) = (   0.3470638   0.3276960   0.1082940  )
        20        Zn     tau(  20) = (   0.2353192   0.7870460   0.1082940  )
        21        Zn     tau(  21) = (  -0.0167944   0.2386167   0.3109160  )
        22        Zn     tau(  22) = (  -0.1289183   0.6984615   0.3129552  )
        23        Zn     tau(  23) = (  -0.2426120   0.1847779   0.5127960  )
        24        Zn     tau(  24) = (  -0.3542568   0.6438686   0.5136847  )
        25        Zn     tau(  25) = (   0.1529361   0.0372043   0.0773528  )
        26        Zn     tau(  26) = (   0.0411915   0.4965543   0.0773528  )
        27        Zn     tau(  27) = (  -0.2017821  -0.0489628   0.2603049  )
        28        Zn     tau(  28) = (  -0.3143188   0.4103086   0.2597132  )
        29        Zn     tau(  29) = (  -0.5463849  -0.1330712   0.3989200  )
        30        Zn     tau(  30) = (  -0.6600871   0.3261786   0.4040234  )
        31        Zn     tau(  31) = (   0.0970639   0.2668793   0.0773528  )
        32        Zn     tau(  32) = (  -0.0146808   0.7262293   0.0773528  )
        33        Zn     tau(  33) = (  -0.2582891   0.1807135   0.2598436  )
        34        Zn     tau(  34) = (  -0.3695552   0.6401293   0.2603107  )
        35        Zn     tau(  35) = (  -0.6025165   0.0963517   0.3992501  )
        36        Zn     tau(  36) = (  -0.7152602   0.5548609   0.4036028  )
        37        Zn     tau(  37) = (   0.6529362   0.0372043   0.0773528  )
        38        Zn     tau(  38) = (   0.5411915   0.4965543   0.0773528  )
        39        Zn     tau(  39) = (   0.2722587  -0.0554917   0.2640528  )
        40        Zn     tau(  40) = (   0.1615159   0.4040437   0.2655143  )
        41        Zn     tau(  41) = (   0.0377751  -0.1114026   0.5252239  )
        42        Zn     tau(  42) = (  -0.0728568   0.3482534   0.5175541  )
        43        Zn     tau(  43) = (   0.5970639   0.2668793   0.0773528  )
        44        Zn     tau(  44) = (   0.4853193   0.7262293   0.0773528  )
        45        Zn     tau(  45) = (   0.2175325   0.1747913   0.2637616  )
        46        Zn     tau(  46) = (   0.1060438   0.6335698   0.2643179  )
        47        Zn     tau(  47) = (  -0.0174641   0.1193486   0.5261764  )
        48        Zn     tau(  48) = (  -0.1290565   0.5768290   0.5258181  )
        49        C      tau(  49) = (  -0.5433518   0.4961563   1.1422808  )
        50        C      tau(  50) = (  -0.6275370   0.4692998   1.0484261  )
        51        C      tau(  51) = (  -0.7040625   0.5600861   1.0024009  )
        52        C      tau(  52) = (  -0.6352479   0.3516185   1.0003882  )
        53        C      tau(  53) = (  -0.7866634   0.5335853   0.9117590  )
        54        C      tau(  54) = (  -0.7178843   0.3252364   0.9097389  )
        55        C      tau(  55) = (  -0.7956162   0.4155445   0.8652479  )
        56        N      tau(  56) = (  -0.4743430   0.5181883   1.2190848  )
        57        N      tau(  57) = (  -0.8773443   0.3895159   0.7725660  )
        58        H      tau(  58) = (  -0.9031577   0.3014592   0.7650174  )
        59        H      tau(  59) = (  -0.9498474   0.4458839   0.7659617  )
        60        H      tau(  60) = (  -0.5761744   0.2810024   1.0355036  )
        61        H      tau(  61) = (  -0.6985301   0.6513506   1.0391383  )
        62        H      tau(  62) = (  -0.7233559   0.2337508   0.8730910  )
        63        H      tau(  63) = (  -0.8458174   0.6044066   0.8767389  )

     --------------------------------------------
     DFT-D3 Dispersion Correction (3-body terms):
     --------------------------------------------
       Reference C6 values for interpolation: 

         atom   Coordination number   C6
         H          0.912             6.05
         H          0.000            15.18
         C          0.000            98.23
         C          0.987            86.49
         C          1.998            58.72
         C          2.999            51.56
         C          3.984            36.41
         N          0.000            50.54
         N          0.994            44.25
         N          2.014            39.35
         N          2.990            31.16
         Zn         0.000           681.04
         Zn         1.942           306.91

       Values used:

         atom   Coordination number  R0_AB[au]  C6      C8
         Zn         6.272            3.053    306.91  23930.67
         Zn         6.274            3.053    306.91  23930.67
         Zn         6.995            3.053    306.91  23930.67
         Zn         6.977            3.053    306.91  23930.67
         Zn         5.021            3.053    306.91  23930.67
         Zn         4.921            3.053    306.91  23930.67
         Zn         6.284            3.053    306.91  23930.67
         Zn         6.247            3.053    306.91  23930.67
         Zn         6.979            3.053    306.91  23930.67
         Zn         6.974            3.053    306.91  23930.67
         Zn         5.078            3.053    306.91  23930.67
         Zn         5.058            3.053    306.91  23930.67
         Zn         4.929            3.053    306.91  23930.67
         Zn         4.896            3.053    306.91  23930.67
         Zn         7.234            3.053    306.91  23930.67
         Zn         7.317            3.053    306.91  23930.67
         Zn         5.906            3.053    306.91  23930.67
         Zn         5.902            3.053    306.91  23930.67
         Zn         4.899            3.053    306.91  23930.67
         Zn         4.927            3.053    306.91  23930.67
         Zn         7.315            3.053    306.91  23930.67
         Zn         7.234            3.053    306.91  23930.67
         Zn         5.911            3.053    306.91  23930.67
         Zn         5.896            3.053    306.91  23930.67
         Zn         5.611            3.053    306.91  23930.67
         Zn         5.623            3.053    306.91  23930.67
         Zn         7.993            3.053    306.91  23930.67
         Zn         7.997            3.053    306.91  23930.67
         Zn         7.049            3.053    306.91  23930.67
         Zn         7.014            3.053    306.91  23930.67
         Zn         5.627            3.053    306.91  23930.67
         Zn         5.606            3.053    306.91  23930.67
         Zn         8.004            3.053    306.91  23930.67
         Zn         7.984            3.053    306.91  23930.67
         Zn         7.054            3.053    306.91  23930.67
         Zn         7.008            3.053    306.91  23930.67
         Zn         4.940            3.053    306.91  23930.67
         Zn         4.943            3.053    306.91  23930.67
         Zn         8.358            3.053    306.91  23930.67
         Zn         8.141            3.053    306.91  23930.67
         Zn         6.032            3.053    306.91  23930.67
         Zn         6.144            3.053    306.91  23930.67
         Zn         4.952            3.053    306.91  23930.67
         Zn         4.932            3.053    306.91  23930.67
         Zn         8.365            3.053    306.91  23930.67
         Zn         8.354            3.053    306.91  23930.67
         Zn         6.002            3.053    306.91  23930.67
         Zn         6.008            3.053    306.91  23930.67
         C          2.098            2.750     58.61   1695.05
         C          3.148            2.750     50.55   1462.00
         C          3.170            2.750     50.36   1456.41
         C          3.171            2.750     50.35   1456.34
         C          3.164            2.750     50.41   1458.09
         C          3.164            2.750     50.42   1458.18
         C          3.153            2.750     50.51   1460.79
         N          1.021            2.478     44.24    976.02
         N          3.318            2.478     31.18    687.78
         H          1.014            2.062      6.17     74.57
         H          1.014            2.062      6.17     74.57
         H          1.004            2.062      6.18     74.68
         H          1.004            2.062      6.18     74.68
         H          1.004            2.062      6.18     74.68
         H          1.004            2.062      6.18     74.68

         Molecular C6 ( Ry / a.u.^6 ) =    840968.57


   Crystallographic axes

     site n.     atom                  positions (cryst. coord.)
         1        Zn     tau(   1) = (  0.1666667  0.1666667  0.0539212  )
         2        Zn     tau(   2) = (  0.1666668  0.6666667  0.0539212  )
         3        Zn     tau(   3) = (  0.4988926  0.2496680  0.1963108  )
         4        Zn     tau(   4) = (  0.4990079  0.7497097  0.1965072  )
         5        Zn     tau(   5) = (  0.4116656  0.2266521  0.2616861  )
         6        Zn     tau(   6) = (  0.4488315  0.7360591  0.2690368  )
         7        Zn     tau(   7) = (  0.1666668  0.4166667  0.0539212  )
         8        Zn     tau(   8) = (  0.1666667  0.9166667  0.0539212  )
         9        Zn     tau(   9) = (  0.4978667  0.4997940  0.1962525  )
        10        Zn     tau(  10) = (  0.4992430  0.9994560  0.1964626  )
        11        Zn     tau(  11) = (  0.4091063  0.4754252  0.2611990  )
        12        Zn     tau(  12) = (  0.4106388  0.9769051  0.2614818  )
        13        Zn     tau(  13) = (  0.6666668  0.1666667  0.0539212  )
        14        Zn     tau(  14) = (  0.6666667  0.6666667  0.0539212  )
        15        Zn     tau(  15) = (  0.7341333  0.1835699  0.1558133  )
        16        Zn     tau(  16) = (  0.7296592  0.6831555  0.1547340  )
        17        Zn     tau(  17) = (  0.9396978  0.2359406  0.2556051  )
        18        Zn     tau(  18) = (  0.9388083  0.7351845  0.2554721  )
        19        Zn     tau(  19) = (  0.6666668  0.4166667  0.0539212  )
        20        Zn     tau(  20) = (  0.6666668  0.9166667  0.0539212  )
        21        Zn     tau(  21) = (  0.7299729  0.4319129  0.1548097  )
        22        Zn     tau(  22) = (  0.7342311  0.9335808  0.1558251  )
        23        Zn     tau(  23) = (  0.9382489  0.4851074  0.2553288  )
        24        Zn     tau(  24) = (  0.9402541  0.9853172  0.2557713  )
        25        Zn     tau(  25) = (  0.3333333  0.0833333  0.0385151  )
        26        Zn     tau(  26) = (  0.3333333  0.5833333  0.0385151  )
        27        Zn     tau(  27) = (  0.3629163  0.0908566  0.1296097  )
        28        Zn     tau(  28) = (  0.3607946  0.5904434  0.1293151  )
        29        Zn     tau(  29) = (  0.3049036  0.0760678  0.1986283  )
        30        Zn     tau(  30) = (  0.3142261  0.5787848  0.2011693  )
        31        Zn     tau(  31) = (  0.3333333  0.3333333  0.0385151  )
        32        Zn     tau(  32) = (  0.3333333  0.8333333  0.0385151  )
        33        Zn     tau(  33) = (  0.3612603  0.3406026  0.1293800  )
        34        Zn     tau(  34) = (  0.3627894  0.8409329  0.1296126  )
        35        Zn     tau(  35) = (  0.3053141  0.3259762  0.1987926  )
        36        Zn     tau(  36) = (  0.3137524  0.8274714  0.2009599  )
        37        Zn     tau(  37) = (  0.8333333  0.0833333  0.0385151  )
        38        Zn     tau(  38) = (  0.8333333  0.5833333  0.0385151  )
        39        Zn     tau(  39) = (  0.8436710  0.0858255  0.1314758  )
        40        Zn     tau(  40) = (  0.8479553  0.5868366  0.1322035  )
        41        Zn     tau(  41) = (  1.1741145  0.1695988  0.2615169  )
        42        Zn     tau(  42) = (  1.1583121  0.6656845  0.2576980  )
        43        Zn     tau(  43) = (  0.8333333  0.3333333  0.0385151  )
        44        Zn     tau(  44) = (  0.8333333  0.8333333  0.0385151  )
        45        Zn     tau(  45) = (  0.8443201  0.3363260  0.1313309  )
        46        Zn     tau(  46) = (  0.8456693  0.8360120  0.1316079  )
        47        Zn     tau(  47) = (  1.1771193  0.4212978  0.2619911  )
        48        Zn     tau(  48) = (  1.1760232  0.9190643  0.2618127  )
        49        C      tau(  49) = (  2.1076487  1.1726390  0.5687588  )
        50        C      tau(  50) = (  1.8090295  1.0914306  0.5220271  )
        51        C      tau(  51) = (  1.6526377  1.1647631  0.4991105  )
        52        C      tau(  52) = (  1.6662805  0.9367326  0.4981083  )
        53        C      tau(  53) = (  1.3628061  1.0857212  0.4539785  )
        54        C      tau(  54) = (  1.3764261  0.8578158  0.4529726  )
        55        C      tau(  55) = (  1.2221098  0.9314774  0.4308199  )
        56        N      tau(  56) = (  2.3521480  1.2391534  0.6070006  )
        57        N      tau(  57) = (  0.9287473  0.8518198  0.3846722  )
        58        H      tau(  58) = (  0.8647915  0.7517902  0.3809137  )
        59        H      tau(  59) = (  0.8553272  0.9095187  0.3813838  )
        60        H      tau(  60) = (  1.7859606  0.8793137  0.5155928  )
        61        H      tau(  61) = (  1.7617497  1.2844485  0.5174025  )
        62        H      tau(  62) = (  1.2675192  0.7379393  0.4347251  )
        63        H      tau(  63) = (  1.2433064  1.1434163  0.4365414  )

     number of k points=     5  Marzari-Vanderbilt smearing, width (Ry)=  0.0200
                       cart. coord. in units 2pi/alat
        k(    1) = (   0.0000000   0.0000000   0.0000000), wk =   0.2222222
        k(    2) = (   0.0000000   0.3628315   0.1845943), wk =   0.4444444
        k(    3) = (   0.3333333   0.0810890   0.7383771), wk =   0.4444444
        k(    4) = (   0.3333333   0.4439205   0.9229714), wk =   0.4444444
        k(    5) = (   0.3333333  -0.2817426   0.5537829), wk =   0.4444444

                       cryst. coord.
        k(    1) = (   0.0000000   0.0000000   0.0000000), wk =   0.2222222
        k(    2) = (   0.0000000   0.3333333   0.0000000), wk =   0.4444444
        k(    3) = (   0.3333333   0.0000000   0.0000000), wk =   0.4444444
        k(    4) = (   0.3333333   0.3333333   0.0000000), wk =   0.4444444
        k(    5) = (   0.3333333  -0.3333333   0.0000000), wk =   0.4444444

     Dense  grid:  1332973 G-vectors     FFT dimensions: ( 120, 108, 540)

     Smooth grid:   575857 G-vectors     FFT dimensions: (  90,  80, 405)

     Dynamical RAM for                 wfc:      25.43 MB

     Dynamical RAM for     wfc (w. buffer):     152.56 MB

     Dynamical RAM for           str. fact:       3.13 MB

     Dynamical RAM for           local pot:       0.00 MB

     Dynamical RAM for          nlocal pot:      40.04 MB

     Dynamical RAM for                qrad:       5.37 MB

     Dynamical RAM for          rho,v,vnew:       8.58 MB

     Dynamical RAM for               rhoin:       2.86 MB

     Dynamical RAM for            rho*nmix:      12.52 MB

     Dynamical RAM for           G-vectors:       3.10 MB

     Dynamical RAM for          h,s,v(r/c):       2.64 MB

     Dynamical RAM for          <psi|beta>:       8.71 MB

     Dynamical RAM for                 psi:      50.85 MB

     Dynamical RAM for                hpsi:      50.85 MB

     Dynamical RAM for                spsi:      50.85 MB

     Dynamical RAM for      wfcinit/wfcrot:      66.42 MB

     Dynamical RAM for           addusdens:     183.06 MB

     Dynamical RAM for          addusforce:     257.17 MB

     Dynamical RAM for         addusstress:     157.24 MB

     Estimated static dynamical RAM per process >     229.93 MB

     Estimated max dynamical RAM per process >     499.62 MB

     Estimated total dynamical RAM >      12.69 GB

     Initial potential from superposition of free atoms

     starting charge    1003.9929, renormalised to    1004.0000

     negative rho (up, down):  2.243E-03 0.000E+00
     Starting wfcs are  666 randomized atomic wfcs
     Checking if some PAW data can be deallocated... 
       PAW data deallocated on   22 nodes for type:  3

     total cpu time spent up to now is       40.9 secs

     Self-consistent Calculation

     iteration #  1     ecut=    40.00 Ry     beta= 0.40
     Davidson diagonalization with overlap

---- Real-time Memory Report at c_bands before calling an iterative solver
           460 MiB given to the printing process from OS
             0 MiB allocation reported by mallinfo(arena+hblkhd)
        205319 MiB available memory on the node where the printing process lives
------------------
     ethr =  1.00E-02,  avg # of iterations =  7.8

     Threshold (ethr) on eigenvalues was too large:
     Diagonalizing with lowered threshold

     Davidson diagonalization with overlap

---- Real-time Memory Report at c_bands before calling an iterative solver
           607 MiB given to the printing process from OS
             0 MiB allocation reported by mallinfo(arena+hblkhd)
        204309 MiB available memory on the node where the printing process lives
------------------
     ethr =  9.96E-04,  avg # of iterations =  1.6

     negative rho (up, down):  2.905E-03 0.000E+00

     total cpu time spent up to now is      307.5 secs

     total energy              =  -22326.58988472 Ry
     estimated scf accuracy    <      10.09666012 Ry

     iteration #  2     ecut=    40.00 Ry     beta= 0.40
     Davidson diagonalization with overlap

---- Real-time Memory Report at c_bands before calling an iterative solver
           638 MiB given to the printing process from OS
             0 MiB allocation reported by mallinfo(arena+hblkhd)
        204291 MiB available memory on the node where the printing process lives
------------------
     ethr =  1.01E-03,  avg # of iterations =  9.4

     negative rho (up, down):  4.262E-03 0.000E+00

     total cpu time spent up to now is      458.8 secs

     total energy              =  -22314.62154272 Ry
     estimated scf accuracy    <     225.03902939 Ry

     iteration #  3     ecut=    40.00 Ry     beta= 0.40
     Davidson diagonalization with overlap

---- Real-time Memory Report at c_bands before calling an iterative solver
           638 MiB given to the printing process from OS
             0 MiB allocation reported by mallinfo(arena+hblkhd)
        204151 MiB available memory on the node where the printing process lives
------------------
     ethr =  1.01E-03,  avg # of iterations =  7.2

     negative rho (up, down):  4.089E-03 0.000E+00

     total cpu time spent up to now is      629.6 secs

     total energy              =  -22330.20832575 Ry
     estimated scf accuracy    <       8.62062613 Ry

     iteration #  4     ecut=    40.00 Ry     beta= 0.40
     Davidson diagonalization with overlap

---- Real-time Memory Report at c_bands before calling an iterative solver
           644 MiB given to the printing process from OS
             0 MiB allocation reported by mallinfo(arena+hblkhd)
        204127 MiB available memory on the node where the printing process lives
------------------
     ethr =  8.59E-04,  avg # of iterations =  3.0

     negative rho (up, down):  3.951E-03 0.000E+00

     total cpu time spent up to now is      751.8 secs

     total energy              =  -22330.70796825 Ry
     estimated scf accuracy    <       4.88426176 Ry

     iteration #  5     ecut=    40.00 Ry     beta= 0.40
     Davidson diagonalization with overlap

---- Real-time Memory Report at c_bands before calling an iterative solver
           644 MiB given to the printing process from OS
             0 MiB allocation reported by mallinfo(arena+hblkhd)
        204134 MiB available memory on the node where the printing process lives
------------------
     ethr =  4.86E-04,  avg # of iterations =  2.0

     negative rho (up, down):  3.844E-03 0.000E+00

     total cpu time spent up to now is      870.2 secs

     total energy              =  -22331.04271614 Ry
     estimated scf accuracy    <       0.33985087 Ry

     iteration #  6     ecut=    40.00 Ry     beta= 0.40
     Davidson diagonalization with overlap

---- Real-time Memory Report at c_bands before calling an iterative solver
           644 MiB given to the printing process from OS
             0 MiB allocation reported by mallinfo(arena+hblkhd)
        204115 MiB available memory on the node where the printing process lives
------------------
     ethr =  3.38E-05,  avg # of iterations = 12.6

     negative rho (up, down):  3.846E-03 0.000E+00

     total cpu time spent up to now is     1015.3 secs

     total energy              =  -22331.04784375 Ry
     estimated scf accuracy    <       0.13886626 Ry

     iteration #  7     ecut=    40.00 Ry     beta= 0.40
     Davidson diagonalization with overlap

---- Real-time Memory Report at c_bands before calling an iterative solver
           645 MiB given to the printing process from OS
             0 MiB allocation reported by mallinfo(arena+hblkhd)
        204089 MiB available memory on the node where the printing process lives
------------------
     c_bands:  1 eigenvalues not converged
     ethr =  1.38E-05,  avg # of iterations =  9.4

     negative rho (up, down):  3.899E-03 0.000E+00

     total cpu time spent up to now is     1148.9 secs

     total energy              =  -22331.04952274 Ry
     estimated scf accuracy    <       0.05182516 Ry

     iteration #  8     ecut=    40.00 Ry     beta= 0.40
     Davidson diagonalization with overlap

---- Real-time Memory Report at c_bands before calling an iterative solver
           646 MiB given to the printing process from OS
             0 MiB allocation reported by mallinfo(arena+hblkhd)
        204063 MiB available memory on the node where the printing process lives
------------------
     c_bands:  1 eigenvalues not converged
     ethr =  5.16E-06,  avg # of iterations = 13.2

     negative rho (up, down):  3.942E-03 0.000E+00

     total cpu time spent up to now is     1294.2 secs

     total energy              =  -22331.05018720 Ry
     estimated scf accuracy    <       0.04876562 Ry

     iteration #  9     ecut=    40.00 Ry     beta= 0.40
     Davidson diagonalization with overlap

---- Real-time Memory Report at c_bands before calling an iterative solver
           647 MiB given to the printing process from OS
             0 MiB allocation reported by mallinfo(arena+hblkhd)
        204036 MiB available memory on the node where the printing process lives
------------------
     ethr =  4.86E-06,  avg # of iterations =  3.0

     negative rho (up, down):  3.969E-03 0.000E+00

     total cpu time spent up to now is     1416.1 secs

     total energy              =  -22331.05214924 Ry
     estimated scf accuracy    <       0.01495166 Ry

     iteration # 10     ecut=    40.00 Ry     beta= 0.40
     Davidson diagonalization with overlap

---- Real-time Memory Report at c_bands before calling an iterative solver
           648 MiB given to the printing process from OS
             0 MiB allocation reported by mallinfo(arena+hblkhd)
        204011 MiB available memory on the node where the printing process lives
------------------
     c_bands:  1 eigenvalues not converged
     c_bands:  1 eigenvalues not converged
     ethr =  1.49E-06,  avg # of iterations = 18.2

     negative rho (up, down):  3.994E-03 0.000E+00

     total cpu time spent up to now is     1560.8 secs

     total energy              =  -22331.05063532 Ry
     estimated scf accuracy    <       0.01160440 Ry

     iteration # 11     ecut=    40.00 Ry     beta= 0.40
     Davidson diagonalization with overlap

---- Real-time Memory Report at c_bands before calling an iterative solver
           649 MiB given to the printing process from OS
             0 MiB allocation reported by mallinfo(arena+hblkhd)
        203989 MiB available memory on the node where the printing process lives
------------------
     ethr =  1.16E-06,  avg # of iterations =  8.6

     negative rho (up, down):  4.061E-03 0.000E+00

     total cpu time spent up to now is     1690.2 secs

     total energy              =  -22331.04605434 Ry
     estimated scf accuracy    <       0.00812752 Ry

     iteration # 12     ecut=    40.00 Ry     beta= 0.40
     Davidson diagonalization with overlap

---- Real-time Memory Report at c_bands before calling an iterative solver
           652 MiB given to the printing process from OS
             0 MiB allocation reported by mallinfo(arena+hblkhd)
        203988 MiB available memory on the node where the printing process lives
------------------
     c_bands:  1 eigenvalues not converged
     ethr =  8.10E-07,  avg # of iterations = 16.6

     negative rho (up, down):  4.053E-03 0.000E+00

     total cpu time spent up to now is     1850.3 secs

     total energy              =  -22331.04666547 Ry
     estimated scf accuracy    <       0.00200976 Ry

     iteration # 13     ecut=    40.00 Ry     beta= 0.40
     Davidson diagonalization with overlap

---- Real-time Memory Report at c_bands before calling an iterative solver
           652 MiB given to the printing process from OS
             0 MiB allocation reported by mallinfo(arena+hblkhd)
        203981 MiB available memory on the node where the printing process lives
------------------
     ethr =  2.00E-07,  avg # of iterations =  5.4

     negative rho (up, down):  4.041E-03 0.000E+00

     total cpu time spent up to now is     1979.2 secs

     total energy              =  -22331.04675254 Ry
     estimated scf accuracy    <       0.00043130 Ry

     iteration # 14     ecut=    40.00 Ry     beta= 0.40
     Davidson diagonalization with overlap

---- Real-time Memory Report at c_bands before calling an iterative solver
           656 MiB given to the printing process from OS
             0 MiB allocation reported by mallinfo(arena+hblkhd)
        203981 MiB available memory on the node where the printing process lives
------------------
     c_bands:  1 eigenvalues not converged
     ethr =  4.30E-08,  avg # of iterations =  6.4

     negative rho (up, down):  4.043E-03 0.000E+00

     total cpu time spent up to now is     2106.0 secs

     total energy              =  -22331.04667603 Ry
     estimated scf accuracy    <       0.00282699 Ry

     iteration # 15     ecut=    40.00 Ry     beta= 0.40
     Davidson diagonalization with overlap

---- Real-time Memory Report at c_bands before calling an iterative solver
           660 MiB given to the printing process from OS
             0 MiB allocation reported by mallinfo(arena+hblkhd)
        203968 MiB available memory on the node where the printing process lives
------------------
     c_bands:  1 eigenvalues not converged
     ethr =  4.30E-08,  avg # of iterations =  6.4

     negative rho (up, down):  4.037E-03 0.000E+00

     total cpu time spent up to now is     2231.5 secs

     total energy              =  -22331.04686303 Ry
     estimated scf accuracy    <       0.00004588 Ry

     iteration # 16     ecut=    40.00 Ry     beta= 0.40
     Davidson diagonalization with overlap

---- Real-time Memory Report at c_bands before calling an iterative solver
           660 MiB given to the printing process from OS
             0 MiB allocation reported by mallinfo(arena+hblkhd)
        203967 MiB available memory on the node where the printing process lives
------------------
     ethr =  4.57E-09,  avg # of iterations =  2.0

     negative rho (up, down):  4.036E-03 0.000E+00

     total cpu time spent up to now is     2351.2 secs

     total energy              =  -22331.04686520 Ry
     estimated scf accuracy    <       0.00001507 Ry

     iteration # 17     ecut=    40.00 Ry     beta= 0.40
     Davidson diagonalization with overlap

---- Real-time Memory Report at c_bands before calling an iterative solver
           660 MiB given to the printing process from OS
             0 MiB allocation reported by mallinfo(arena+hblkhd)
        203968 MiB available memory on the node where the printing process lives
------------------
     ethr =  1.50E-09,  avg # of iterations =  2.2

     negative rho (up, down):  4.035E-03 0.000E+00

     total cpu time spent up to now is     2471.7 secs

     total energy              =  -22331.04686678 Ry
     estimated scf accuracy    <       0.00000596 Ry

     iteration # 18     ecut=    40.00 Ry     beta= 0.40
     Davidson diagonalization with overlap

---- Real-time Memory Report at c_bands before calling an iterative solver
           660 MiB given to the printing process from OS
             0 MiB allocation reported by mallinfo(arena+hblkhd)
        203952 MiB available memory on the node where the printing process lives
------------------
     ethr =  5.93E-10,  avg # of iterations =  2.2

     negative rho (up, down):  4.035E-03 0.000E+00

     total cpu time spent up to now is     2591.6 secs

     total energy              =  -22331.04686726 Ry
     estimated scf accuracy    <       0.00000245 Ry

     iteration # 19     ecut=    40.00 Ry     beta= 0.40
     Davidson diagonalization with overlap

---- Real-time Memory Report at c_bands before calling an iterative solver
           660 MiB given to the printing process from OS
             0 MiB allocation reported by mallinfo(arena+hblkhd)
        203951 MiB available memory on the node where the printing process lives
------------------
     ethr =  2.44E-10,  avg # of iterations =  2.0

     negative rho (up, down):  4.035E-03 0.000E+00

     total cpu time spent up to now is     2712.1 secs

     total energy              =  -22331.04686751 Ry
     estimated scf accuracy    <       0.00000134 Ry

     iteration # 20     ecut=    40.00 Ry     beta= 0.40
     Davidson diagonalization with overlap

---- Real-time Memory Report at c_bands before calling an iterative solver
           660 MiB given to the printing process from OS
             0 MiB allocation reported by mallinfo(arena+hblkhd)
        203947 MiB available memory on the node where the printing process lives
------------------
     ethr =  1.34E-10,  avg # of iterations =  2.0

     negative rho (up, down):  4.035E-03 0.000E+00

     total cpu time spent up to now is     2831.1 secs

     End of self-consistent calculation

          k = 0.0000 0.0000 0.0000 ( 71933 PWs)   bands (ev):

  -125.1880-125.1878-125.1826-125.1773-125.1764-125.1762-125.1751-125.1554
  -125.0830-125.0818-125.0796-125.0742-125.0731-125.0711-125.0699-125.0683
  -125.0086-125.0062-125.0047-124.9993-124.9955-124.9943-124.9932-124.9921
  -124.9920-124.9902-124.9895-124.9892-124.9374-124.9364-124.9349-124.9339
  -124.9004-124.8999-124.8988-124.8978-124.8970-124.8956-124.8943-124.8934
  -124.8710-124.8701-124.8633-124.8622-124.8450-124.8398-124.8289-124.7896
   -79.3458 -79.3455 -79.3419 -79.3401 -79.3380 -79.3368 -79.3363 -79.3351
   -79.3340 -79.3329 -79.3325 -79.3322 -79.3270 -79.3245 -79.3239 -79.3233
   -79.3230 -79.3216 -79.3206 -79.3202 -79.3137 -79.3078 -79.3004 -79.3001
   -79.2443 -79.2413 -79.2408 -79.2344 -79.2336 -79.2308 -79.2293 -79.2282
   -79.2276 -79.2266 -79.2235 -79.2227 -79.2211 -79.2207 -79.2192 -79.2179
   -79.2175 -79.2160 -79.2153 -79.2146 -79.2140 -79.2103 -79.2093 -79.2076
   -79.1686 -79.1673 -79.1623 -79.1608 -79.1599 -79.1588 -79.1548 -79.1544
   -79.1539 -79.1535 -79.1523 -79.1521 -79.1514 -79.1513 -79.1508 -79.1497
   -79.1492 -79.1471 -79.1460 -79.1456 -79.1455 -79.1444 -79.1438 -79.1431
   -79.1428 -79.1423 -79.1420 -79.1408 -79.1401 -79.1390 -79.1381 -79.1376
   -79.1370 -79.1344 -79.1319 -79.1264 -79.1076 -79.1063 -79.1052 -79.1040
   -79.0852 -79.0846 -79.0831 -79.0828 -79.0824 -79.0732 -79.0727 -79.0713
   -79.0711 -79.0708 -79.0695 -79.0672 -79.0645 -79.0635 -79.0625 -79.0588
   -79.0577 -79.0562 -79.0478 -79.0471 -79.0465 -79.0453 -79.0450 -79.0441
   -79.0438 -79.0429 -79.0420 -79.0406 -79.0396 -79.0392 -79.0385 -79.0376
   -79.0328 -79.0311 -79.0299 -79.0287 -79.0235 -79.0206 -79.0198 -79.0135
   -79.0131 -79.0121 -79.0110 -79.0091 -79.0084 -78.9969 -78.9968 -78.9929
   -78.9900 -78.9881 -78.9828 -78.9772 -78.9677 -78.9562 -78.9404 -78.9387
   -18.4912 -17.0052 -16.2123 -13.8055 -13.7545 -10.7785 -10.5306  -8.6248
    -8.1596  -8.0376  -7.9683  -7.3845  -7.1279  -6.9572  -6.9462  -6.9377
    -6.9113  -6.8603  -6.8554  -6.8395  -6.7845  -6.7691  -6.7436  -6.7225
    -6.7183  -6.6900  -6.6680  -6.6421  -6.6324  -6.6206  -6.6154  -6.6053
    -6.5987  -6.5698  -6.5388  -6.5371  -6.5340  -6.5180  -6.5112  -6.5044
    -6.5025  -6.4805  -6.4665  -6.4574  -6.4556  -6.4511  -6.4448  -6.4402
    -6.4343  -6.4324  -6.4309  -6.4261  -6.4204  -6.4145  -6.4051  -6.3994
    -6.3969  -6.3957  -6.3941  -6.3866  -6.3707  -6.3559  -6.3479  -6.3458
    -6.3370  -6.3343  -6.3239  -6.3197  -6.3047  -6.2933  -6.2807  -6.2736
    -6.2696  -6.2632  -6.2491  -6.2449  -6.2394  -6.2335  -6.2233  -6.2180
    -6.2161  -6.1984  -6.1948  -6.1898  -6.1787  -6.1641  -6.1610  -6.1495
    -6.1445  -6.1342  -6.1290  -6.1255  -6.1183  -6.1136  -6.1117  -6.1052
    -6.1031  -6.0982  -6.0963  -6.0924  -6.0751  -6.0716  -6.0664  -6.0638
    -6.0591  -6.0580  -6.0360  -6.0313  -6.0224  -6.0168  -6.0081  -5.9924
    -5.9906  -5.9884  -5.9770  -5.9681  -5.9650  -5.9625  -5.9523  -5.9493
    -5.9441  -5.9371  -5.9335  -5.9325  -5.9267  -5.9221  -5.9199  -5.9174
    -5.9124  -5.9109  -5.9029  -5.9018  -5.8936  -5.8897  -5.8879  -5.8735
    -5.8720  -5.8676  -5.8653  -5.8593  -5.8574  -5.8532  -5.8478  -5.8462
    -5.8439  -5.8417  -5.8367  -5.8344  -5.8293  -5.8268  -5.8200  -5.8134
    -5.8089  -5.8071  -5.8037  -5.7884  -5.7863  -5.7829  -5.7716  -5.7651
    -5.7625  -5.7583  -5.7525  -5.7485  -5.7402  -5.7362  -5.7319  -5.7293
    -5.7283  -5.7244  -5.7238  -5.7156  -5.7085  -5.7049  -5.7039  -5.7009
    -5.6963  -5.6926  -5.6923  -5.6839  -5.6797  -5.6733  -5.6723  -5.6661
    -5.6634  -5.6521  -5.6509  -5.6505  -5.6466  -5.6439  -5.6417  -5.6370
    -5.6281  -5.6205  -5.6162  -5.6120  -5.6058  -5.5995  -5.5980  -5.5941
    -5.5907  -5.5878  -5.5862  -5.5808  -5.5749  -5.5723  -5.5711  -5.5673
    -5.5619  -5.5594  -5.5503  -5.5473  -5.5435  -5.5416  -5.5340  -5.5314
    -5.5275  -5.5263  -5.5251  -5.5216  -5.5175  -5.5168  -5.4980  -5.4942
    -5.4939  -5.4936  -5.4899  -5.4887  -5.4851  -5.4830  -5.4814  -5.4770
    -5.4714  -5.4680  -5.4660  -5.4609  -5.4596  -5.4585  -5.4564  -5.4523
    -5.4489  -5.4361  -5.4165  -5.4143  -5.4114  -5.3975  -5.3966  -5.3831
    -5.3806  -5.3753  -5.3701  -5.3574  -5.3431  -5.3321  -5.2997  -5.2992
    -5.2498  -5.2419  -5.1669  -5.1266  -5.1148  -5.0200  -4.6816  -4.5759
    -4.3689  -4.3645  -4.1886  -3.9281  -3.8956  -3.8888  -3.6549  -3.5984
    -3.5742  -2.8996  -2.8012  -2.5775  -2.5604  -2.4300  -2.4141  -2.2334
    -2.0540  -1.8510  -1.8376  -1.6776  -1.6288  -1.6247  -1.6011  -1.4770
    -1.4540  -1.3797  -1.3276  -1.2840  -0.9300  -0.9043  -0.5003  -0.3494
    -0.1289  -0.0775  -0.0197   0.0632   0.0728   0.1233   0.2059   0.2554
     0.5671   0.6687   0.6779   0.7483   1.0140   1.0406   1.5852   1.8039
     1.8776   1.8841   1.9911   2.0556   2.1751   2.2350   2.2626   2.3669
     2.4132   2.5012   2.7551   2.8215   2.8354   3.1839   3.2471   3.2525
     3.2869   3.3913   3.4701   3.5246   3.8380   4.0088   4.0307   4.0527
     4.0836   4.1805   4.3056   4.3126   4.5461   4.6649   4.7686   4.8469
     5.0125   5.1694   5.2176   5.3228   5.3409   5.3562   5.4768   5.4864
     5.5360   5.5480   5.6068   5.7126   5.7407   5.8726   5.9631   5.9785
     5.9966   6.0477   6.0915   6.1198   6.1339   6.1402   6.2272   6.2696
     6.2800   6.2868   6.3336   6.3692   6.3944   6.4577   6.4994   6.5537
     6.5987   6.6342   6.6617   6.6806   6.7354   6.7875   6.8751   6.9248
     7.0159   7.0621   7.0994   7.2010   7.2134   7.2317   7.2856   7.3431
     7.3708   7.4139   7.4401   7.4481   7.5105   7.5635   7.5690   7.6168
     7.6704   7.7626   7.7955   7.8417   7.9017   7.9264   7.9724   8.0252
     8.0451   8.0800

     occupation numbers 
     1.0000   1.0000   1.0000   1.0000   1.0000   1.0000   1.0000   1.0000
     1.0000   1.0000   1.0000   1.0000   1.0000   1.0000   1.0000   1.0000
     1.0000   1.0000   1.0000   1.0000   1.0000   1.0000   1.0000   1.0000
     1.0000   1.0000   1.0000   1.0000   1.0000   1.0000   1.0000   1.0000
     1.0000   1.0000   1.0000   1.0000   1.0000   1.0000   1.0000   1.0000
     1.0000   1.0000   1.0000   1.0000   1.0000   1.0000   1.0000   1.0000
     1.0000   1.0000   1.0000   1.0000   1.0000   1.0000   1.0000   1.0000
     1.0000   1.0000   1.0000   1.0000   1.0000   1.0000   1.0000   1.0000
     1.0000   1.0000   1.0000   1.0000   1.0000   1.0000   1.0000   1.0000
     1.0000   1.0000   1.0000   1.0000   1.0000   1.0000   1.0000   1.0000
     1.0000   1.0000   1.0000   1.0000   1.0000   1.0000   1.0000   1.0000
     1.0000   1.0000   1.0000   1.0000   1.0000   1.0000   1.0000   1.0000
     1.0000   1.0000   1.0000   1.0000   1.0000   1.0000   1.0000   1.0000
     1.0000   1.0000   1.0000   1.0000   1.0000   1.0000   1.0000   1.0000
     1.0000   1.0000   1.0000   1.0000   1.0000   1.0000   1.0000   1.0000
     1.0000   1.0000   1.0000   1.0000   1.0000   1.0000   1.0000   1.0000
     1.0000   1.0000   1.0000   1.0000   1.0000   1.0000   1.0000   1.0000
     1.0000   1.0000   1.0000   1.0000   1.0000   1.0000   1.0000   1.0000
     1.0000   1.0000   1.0000   1.0000   1.0000   1.0000   1.0000   1.0000
     1.0000   1.0000   1.0000   1.0000   1.0000   1.0000   1.0000   1.0000
     1.0000   1.0000   1.0000   1.0000   1.0000   1.0000   1.0000   1.0000
     1.0000   1.0000   1.0000   1.0000   1.0000   1.0000   1.0000   1.0000
     1.0000   1.0000   1.0000   1.0000   1.0000   1.0000   1.0000   1.0000
     1.0000   1.0000   1.0000   1.0000   1.0000   1.0000   1.0000   1.0000
     1.0000   1.0000   1.0000   1.0000   1.0000   1.0000   1.0000   1.0000
     1.0000   1.0000   1.0000   1.0000   1.0000   1.0000   1.0000   1.0000
     1.0000   1.0000   1.0000   1.0000   1.0000   1.0000   1.0000   1.0000
     1.0000   1.0000   1.0000   1.0000   1.0000   1.0000   1.0000   1.0000
     1.0000   1.0000   1.0000   1.0000   1.0000   1.0000   1.0000   1.0000
     1.0000   1.0000   1.0000   1.0000   1.0000   1.0000   1.0000   1.0000
     1.0000   1.0000   1.0000   1.0000   1.0000   1.0000   1.0000   1.0000
     1.0000   1.0000   1.0000   1.0000   1.0000   1.0000   1.0000   1.0000
     1.0000   1.0000   1.0000   1.0000   1.0000   1.0000   1.0000   1.0000
     1.0000   1.0000   1.0000   1.0000   1.0000   1.0000   1.0000   1.0000
     1.0000   1.0000   1.0000   1.0000   1.0000   1.0000   1.0000   1.0000
     1.0000   1.0000   1.0000   1.0000   1.0000   1.0000   1.0000   1.0000
     1.0000   1.0000   1.0000   1.0000   1.0000   1.0000   1.0000   1.0000
     1.0000   1.0000   1.0000   1.0000   1.0000   1.0000   1.0000   1.0000
     1.0000   1.0000   1.0000   1.0000   1.0000   1.0000   1.0000   1.0000
     1.0000   1.0000   1.0000   1.0000   1.0000   1.0000   1.0000   1.0000
     1.0000   1.0000   1.0000   1.0000   1.0000   1.0000   1.0000   1.0000
     1.0000   1.0000   1.0000   1.0000   1.0000   1.0000   1.0000   1.0000
     1.0000   1.0000   1.0000   1.0000   1.0000   1.0000   1.0000   1.0000
     1.0000   1.0000   1.0000   1.0000   1.0000   1.0000   1.0000   1.0000
     1.0000   1.0000   1.0000   1.0000   1.0000   1.0000   1.0000   1.0000
     1.0000   1.0000   1.0000   1.0000   1.0000   1.0000   1.0000   1.0000
     1.0000   1.0000   1.0000   1.0000   1.0000   1.0000   1.0000   1.0000
     1.0000   1.0000   1.0000   1.0000   1.0000   1.0000   1.0000   1.0000
     1.0000   1.0000   1.0000   1.0000   1.0000   1.0000   1.0000   1.0000
     1.0000   1.0000   1.0000   1.0000   1.0000   1.0000   1.0000   1.0000
     1.0000   1.0000   1.0000   1.0000   1.0000   1.0000   1.0000   1.0000
     1.0000   1.0000   1.0000   1.0000   1.0000   1.0000   1.0000   1.0000
     1.0000   1.0000   1.0000   1.0000   1.0000   1.0000   1.0000   1.0000
     1.0000   1.0000   1.0000   1.0000   1.0000   1.0000   1.0000   1.0000
     1.0000   1.0000   1.0000   1.0000   1.0000   1.0000   1.0000   1.0000
     1.0000   1.0000   1.0000   1.0000   1.0000   1.0000   1.0000   1.0000
     1.0000   1.0000   1.0000   1.0000   1.0000   1.0000   1.0000   1.0000
     1.0000   1.0000   1.0000   1.0000   1.0000   1.0000   1.0000   1.0000
     1.0000   1.0000   1.0000   1.0000   1.0000   1.0000   1.0000   1.0000
     1.0000   1.0000   1.0000   1.0000   1.0000   1.0000   1.0000   1.0000
     1.0000   1.0000   1.0000   1.0000   1.0000   1.0000   1.0000   1.0000
     1.0000   1.0000   1.0000   1.0000   1.0000   1.0000   1.0000   1.0000
     1.0035   1.0133   1.0148   1.0305   1.0632   1.0428   0.0359   0.0012
     0.0003   0.0003   0.0000   0.0000   0.0000   0.0000   0.0000   0.0000
     0.0000   0.0000   0.0000   0.0000   0.0000   0.0000   0.0000   0.0000
     0.0000   0.0000   0.0000   0.0000   0.0000   0.0000   0.0000   0.0000
     0.0000   0.0000   0.0000   0.0000   0.0000   0.0000   0.0000   0.0000
     0.0000   0.0000   0.0000   0.0000   0.0000   0.0000   0.0000   0.0000
     0.0000   0.0000   0.0000   0.0000   0.0000   0.0000   0.0000   0.0000
     0.0000   0.0000   0.0000   0.0000   0.0000   0.0000   0.0000   0.0000
     0.0000   0.0000   0.0000   0.0000   0.0000   0.0000   0.0000   0.0000
     0.0000   0.0000   0.0000   0.0000   0.0000   0.0000   0.0000   0.0000
     0.0000   0.0000   0.0000   0.0000   0.0000   0.0000   0.0000   0.0000
     0.0000   0.0000   0.0000   0.0000   0.0000   0.0000   0.0000   0.0000
     0.0000   0.0000   0.0000   0.0000   0.0000   0.0000   0.0000   0.0000
     0.0000   0.0000

          k = 0.0000 0.3628 0.1846 ( 71963 PWs)   bands (ev):

  -125.1880-125.1878-125.1826-125.1772-125.1767-125.1759-125.1752-125.1554
  -125.0829-125.0818-125.0796-125.0743-125.0731-125.0711-125.0699-125.0683
  -125.0086-125.0062-125.0047-124.9993-124.9955-124.9943-124.9933-124.9921
  -124.9920-124.9902-124.9895-124.9892-124.9374-124.9364-124.9349-124.9339
  -124.9003-124.9000-124.8988-124.8978-124.8970-124.8956-124.8943-124.8934
  -124.8710-124.8701-124.8633-124.8622-124.8450-124.8398-124.8289-124.7896
   -79.3458 -79.3455 -79.3410 -79.3401 -79.3379 -79.3371 -79.3360 -79.3357
   -79.3352 -79.3325 -79.3322 -79.3313 -79.3270 -79.3267 -79.3244 -79.3236
   -79.3230 -79.3228 -79.3217 -79.3141 -79.3137 -79.3095 -79.3005 -79.3001
   -79.2439 -79.2408 -79.2404 -79.2357 -79.2340 -79.2329 -79.2293 -79.2283
   -79.2269 -79.2252 -79.2238 -79.2230 -79.2209 -79.2205 -79.2195 -79.2177
   -79.2162 -79.2157 -79.2153 -79.2147 -79.2139 -79.2105 -79.2092 -79.2085
   -79.1684 -79.1673 -79.1618 -79.1606 -79.1596 -79.1587 -79.1550 -79.1545
   -79.1544 -79.1534 -79.1532 -79.1523 -79.1517 -79.1513 -79.1511 -79.1502
   -79.1490 -79.1483 -79.1459 -79.1457 -79.1450 -79.1443 -79.1438 -79.1430
   -79.1427 -79.1424 -79.1420 -79.1417 -79.1391 -79.1381 -79.1377 -79.1371
   -79.1352 -79.1342 -79.1328 -79.1276 -79.1076 -79.1064 -79.1052 -79.1040
   -79.0852 -79.0847 -79.0829 -79.0824 -79.0815 -79.0768 -79.0731 -79.0728
   -79.0713 -79.0695 -79.0672 -79.0651 -79.0646 -79.0635 -79.0625 -79.0603
   -79.0562 -79.0546 -79.0514 -79.0500 -79.0476 -79.0470 -79.0451 -79.0442
   -79.0423 -79.0409 -79.0398 -79.0393 -79.0389 -79.0385 -79.0376 -79.0373
   -79.0343 -79.0327 -79.0299 -79.0287 -79.0224 -79.0205 -79.0198 -79.0157
   -79.0135 -79.0131 -79.0120 -79.0083 -79.0046 -78.9981 -78.9968 -78.9928
   -78.9896 -78.9881 -78.9836 -78.9772 -78.9674 -78.9562 -78.9404 -78.9387
   -18.4912 -17.0052 -16.2123 -13.8055 -13.7545 -10.7784 -10.5306  -8.6247
    -8.0386  -8.0070  -7.9567  -7.5271  -7.2865  -7.0204  -6.9983  -6.8573
    -6.8439  -6.8379  -6.8195  -6.8061  -6.7615  -6.7282  -6.7248  -6.7205
    -6.6803  -6.6698  -6.6530  -6.6511  -6.6267  -6.6219  -6.6155  -6.6130
    -6.6075  -6.6058  -6.5783  -6.5741  -6.5621  -6.5482  -6.5346  -6.5277
    -6.5205  -6.5067  -6.4981  -6.4962  -6.4930  -6.4732  -6.4688  -6.4583
    -6.4559  -6.4539  -6.4417  -6.4259  -6.4242  -6.4086  -6.4072  -6.3894
    -6.3856  -6.3808  -6.3740  -6.3719  -6.3622  -6.3603  -6.3554  -6.3449
    -6.3411  -6.3288  -6.3103  -6.3023  -6.2933  -6.2925  -6.2854  -6.2696
    -6.2673  -6.2656  -6.2481  -6.2457  -6.2363  -6.2320  -6.2257  -6.2199
    -6.2127  -6.2083  -6.2049  -6.2024  -6.1860  -6.1798  -6.1717  -6.1638
    -6.1520  -6.1471  -6.1431  -6.1407  -6.1295  -6.1277  -6.1199  -6.1138
    -6.1131  -6.1065  -6.0942  -6.0908  -6.0848  -6.0701  -6.0658  -6.0622
    -6.0609  -6.0539  -6.0514  -6.0472  -6.0445  -6.0348  -6.0308  -6.0247
    -6.0189  -6.0090  -6.0066  -6.0045  -5.9906  -5.9854  -5.9808  -5.9745
    -5.9707  -5.9615  -5.9561  -5.9503  -5.9442  -5.9412  -5.9347  -5.9267
    -5.9259  -5.9166  -5.9125  -5.9097  -5.9056  -5.9003  -5.8907  -5.8874
    -5.8799  -5.8740  -5.8709  -5.8682  -5.8633  -5.8612  -5.8572  -5.8516
    -5.8439  -5.8370  -5.8337  -5.8291  -5.8214  -5.8133  -5.8104  -5.8084
    -5.8041  -5.7948  -5.7820  -5.7776  -5.7684  -5.7643  -5.7594  -5.7537
    -5.7441  -5.7396  -5.7357  -5.7317  -5.7275  -5.7231  -5.7175  -5.7149
    -5.7111  -5.7053  -5.6957  -5.6936  -5.6906  -5.6869  -5.6800  -5.6791
    -5.6723  -5.6681  -5.6638  -5.6590  -5.6569  -5.6526  -5.6496  -5.6453
    -5.6385  -5.6371  -5.6361  -5.6276  -5.6269  -5.6192  -5.6159  -5.6141
    -5.6097  -5.6077  -5.6063  -5.6006  -5.5957  -5.5893  -5.5879  -5.5870
    -5.5827  -5.5788  -5.5694  -5.5632  -5.5577  -5.5550  -5.5513  -5.5500
    -5.5455  -5.5449  -5.5404  -5.5391  -5.5376  -5.5298  -5.5287  -5.5237
    -5.5211  -5.5160  -5.5130  -5.5081  -5.5050  -5.5034  -5.4980  -5.4940
    -5.4935  -5.4916  -5.4900  -5.4884  -5.4870  -5.4842  -5.4815  -5.4768
    -5.4758  -5.4722  -5.4690  -5.4591  -5.4572  -5.4557  -5.4500  -5.4453
    -5.4415  -5.4403  -5.4384  -5.4311  -5.4251  -5.4072  -5.4014  -5.3928
    -5.3913  -5.3783  -5.3576  -5.3464  -5.3435  -5.3341  -5.3222  -5.3034
    -5.2471  -5.2242  -5.2186  -5.0455  -4.9369  -4.7917  -4.7365  -4.6588
    -4.4807  -4.3627  -4.1947  -3.9815  -3.8765  -3.6415  -3.3775  -3.3614
    -3.3157  -3.0560  -2.8993  -2.8023  -2.6926  -2.5696  -2.5607  -2.5189
    -2.3345  -2.2911  -2.1091  -1.8703  -1.7803  -1.6226  -1.4660  -1.4631
    -1.4459  -1.2724  -1.1132  -1.0380  -1.0130  -0.7357  -0.6011  -0.4286
    -0.3757  -0.2125  -0.1983  -0.0405   0.1395   0.3028   0.3775   0.5004
     0.5472   0.7106   0.8778   0.9286   1.0047   1.1568   1.3798   1.6903
     1.8931   1.9449   2.0448   2.2160   2.2840   2.4387   2.5089   2.5780
     2.6010   2.7085   3.0483   3.0911   3.1237   3.2455   3.3843   3.4826
     3.5127   3.5617   3.5976   3.9415   3.9850   4.0044   4.0412   4.0844
     4.1392   4.2248   4.2470   4.3500   4.5765   4.6150   4.6448   4.6729
     4.7488   4.8300   4.8479   4.9901   5.0659   5.0860   5.1266   5.2132
     5.2469   5.3044   5.3592   5.4591   5.4919   5.5358   5.5864   5.6463
     5.7037   5.8079   5.8350   5.8825   5.9713   6.0073   6.0871   6.1206
     6.1595   6.1990   6.2605   6.3212   6.3575   6.4075   6.4440   6.4650
     6.5267   6.5648   6.6137   6.6658   6.7707   6.8222   6.9250   6.9342
     6.9818   7.0076   7.0711   7.1033   7.1341   7.1771   7.2399   7.3145
     7.4037   7.4188   7.4659   7.5326   7.5601   7.5843   7.6202   7.6635
     7.7156   7.7741   7.8393   7.8865   7.9506   7.9801   8.0251   8.1139
     8.1536   8.1910

     occupation numbers 
     1.0000   1.0000   1.0000   1.0000   1.0000   1.0000   1.0000   1.0000
     1.0000   1.0000   1.0000   1.0000   1.0000   1.0000   1.0000   1.0000
     1.0000   1.0000   1.0000   1.0000   1.0000   1.0000   1.0000   1.0000
     1.0000   1.0000   1.0000   1.0000   1.0000   1.0000   1.0000   1.0000
     1.0000   1.0000   1.0000   1.0000   1.0000   1.0000   1.0000   1.0000
     1.0000   1.0000   1.0000   1.0000   1.0000   1.0000   1.0000   1.0000
     1.0000   1.0000   1.0000   1.0000   1.0000   1.0000   1.0000   1.0000
     1.0000   1.0000   1.0000   1.0000   1.0000   1.0000   1.0000   1.0000
     1.0000   1.0000   1.0000   1.0000   1.0000   1.0000   1.0000   1.0000
     1.0000   1.0000   1.0000   1.0000   1.0000   1.0000   1.0000   1.0000
     1.0000   1.0000   1.0000   1.0000   1.0000   1.0000   1.0000   1.0000
     1.0000   1.0000   1.0000   1.0000   1.0000   1.0000   1.0000   1.0000
     1.0000   1.0000   1.0000   1.0000   1.0000   1.0000   1.0000   1.0000
     1.0000   1.0000   1.0000   1.0000   1.0000   1.0000   1.0000   1.0000
     1.0000   1.0000   1.0000   1.0000   1.0000   1.0000   1.0000   1.0000
     1.0000   1.0000   1.0000   1.0000   1.0000   1.0000   1.0000   1.0000
     1.0000   1.0000   1.0000   1.0000   1.0000   1.0000   1.0000   1.0000
     1.0000   1.0000   1.0000   1.0000   1.0000   1.0000   1.0000   1.0000
     1.0000   1.0000   1.0000   1.0000   1.0000   1.0000   1.0000   1.0000
     1.0000   1.0000   1.0000   1.0000   1.0000   1.0000   1.0000   1.0000
     1.0000   1.0000   1.0000   1.0000   1.0000   1.0000   1.0000   1.0000
     1.0000   1.0000   1.0000   1.0000   1.0000   1.0000   1.0000   1.0000
     1.0000   1.0000   1.0000   1.0000   1.0000   1.0000   1.0000   1.0000
     1.0000   1.0000   1.0000   1.0000   1.0000   1.0000   1.0000   1.0000
     1.0000   1.0000   1.0000   1.0000   1.0000   1.0000   1.0000   1.0000
     1.0000   1.0000   1.0000   1.0000   1.0000   1.0000   1.0000   1.0000
     1.0000   1.0000   1.0000   1.0000   1.0000   1.0000   1.0000   1.0000
     1.0000   1.0000   1.0000   1.0000   1.0000   1.0000   1.0000   1.0000
     1.0000   1.0000   1.0000   1.0000   1.0000   1.0000   1.0000   1.0000
     1.0000   1.0000   1.0000   1.0000   1.0000   1.0000   1.0000   1.0000
     1.0000   1.0000   1.0000   1.0000   1.0000   1.0000   1.0000   1.0000
     1.0000   1.0000   1.0000   1.0000   1.0000   1.0000   1.0000   1.0000
     1.0000   1.0000   1.0000   1.0000   1.0000   1.0000   1.0000   1.0000
     1.0000   1.0000   1.0000   1.0000   1.0000   1.0000   1.0000   1.0000
     1.0000   1.0000   1.0000   1.0000   1.0000   1.0000   1.0000   1.0000
     1.0000   1.0000   1.0000   1.0000   1.0000   1.0000   1.0000   1.0000
     1.0000   1.0000   1.0000   1.0000   1.0000   1.0000   1.0000   1.0000
     1.0000   1.0000   1.0000   1.0000   1.0000   1.0000   1.0000   1.0000
     1.0000   1.0000   1.0000   1.0000   1.0000   1.0000   1.0000   1.0000
     1.0000   1.0000   1.0000   1.0000   1.0000   1.0000   1.0000   1.0000
     1.0000   1.0000   1.0000   1.0000   1.0000   1.0000   1.0000   1.0000
     1.0000   1.0000   1.0000   1.0000   1.0000   1.0000   1.0000   1.0000
     1.0000   1.0000   1.0000   1.0000   1.0000   1.0000   1.0000   1.0000
     1.0000   1.0000   1.0000   1.0000   1.0000   1.0000   1.0000   1.0000
     1.0000   1.0000   1.0000   1.0000   1.0000   1.0000   1.0000   1.0000
     1.0000   1.0000   1.0000   1.0000   1.0000   1.0000   1.0000   1.0000
     1.0000   1.0000   1.0000   1.0000   1.0000   1.0000   1.0000   1.0000
     1.0000   1.0000   1.0000   1.0000   1.0000   1.0000   1.0000   1.0000
     1.0000   1.0000   1.0000   1.0000   1.0000   1.0000   1.0000   1.0000
     1.0000   1.0000   1.0000   1.0000   1.0000   1.0000   1.0000   1.0000
     1.0000   1.0000   1.0000   1.0000   1.0000   1.0000   1.0000   1.0000
     1.0000   1.0000   1.0000   1.0000   1.0000   1.0000   1.0000   1.0000
     1.0000   1.0000   1.0000   1.0000   1.0000   1.0000   1.0000   1.0000
     1.0000   1.0000   1.0000   1.0000   1.0000   1.0000   1.0000   1.0000
     1.0000   1.0000   1.0000   1.0000   1.0000   1.0000   1.0000   1.0000
     1.0000   1.0000   1.0000   1.0000   1.0000   1.0000   1.0000   1.0000
     1.0000   1.0000   1.0000   1.0000   1.0000   1.0000   1.0000   1.0000
     1.0000   1.0000   1.0000   1.0000   1.0000   1.0000   1.0000   1.0000
     1.0000   1.0000   1.0000   1.0000   1.0000   1.0000   1.0000   1.0000
     1.0000   1.0000   1.0000   1.0000   1.0000   1.0000   1.0000   1.0000
     1.0000   1.0000   1.0000   1.0000   1.0000   1.0000   1.0000   1.0000
     1.0000   1.0000   1.0000   1.0000   1.0000   1.0000   1.0001   1.0012
     1.0026   1.0211   1.0723   1.0826   1.0686   0.8535   0.2812   0.0083
     0.0002   0.0001   0.0000   0.0000   0.0000   0.0000   0.0000   0.0000
     0.0000   0.0000   0.0000   0.0000   0.0000   0.0000   0.0000   0.0000
     0.0000   0.0000   0.0000   0.0000   0.0000   0.0000   0.0000   0.0000
     0.0000   0.0000   0.0000   0.0000   0.0000   0.0000   0.0000   0.0000
     0.0000   0.0000   0.0000   0.0000   0.0000   0.0000   0.0000   0.0000
     0.0000   0.0000   0.0000   0.0000   0.0000   0.0000   0.0000   0.0000
     0.0000   0.0000   0.0000   0.0000   0.0000   0.0000   0.0000   0.0000
     0.0000   0.0000   0.0000   0.0000   0.0000   0.0000   0.0000   0.0000
     0.0000   0.0000   0.0000   0.0000   0.0000   0.0000   0.0000   0.0000
     0.0000   0.0000   0.0000   0.0000   0.0000   0.0000   0.0000   0.0000
     0.0000   0.0000   0.0000   0.0000   0.0000   0.0000   0.0000   0.0000
     0.0000   0.0000   0.0000   0.0000   0.0000   0.0000   0.0000   0.0000
     0.0000   0.0000

          k = 0.3333 0.0811 0.7384 ( 72005 PWs)   bands (ev):

  -125.1880-125.1878-125.1826-125.1773-125.1764-125.1762-125.1751-125.1554
  -125.0830-125.0818-125.0796-125.0742-125.0731-125.0711-125.0699-125.0683
  -125.0086-125.0062-125.0047-124.9993-124.9955-124.9943-124.9932-124.9921
  -124.9920-124.9902-124.9895-124.9892-124.9374-124.9364-124.9349-124.9339
  -124.9004-124.8999-124.8988-124.8978-124.8970-124.8956-124.8943-124.8934
  -124.8710-124.8701-124.8633-124.8622-124.8450-124.8398-124.8289-124.7896
   -79.3458 -79.3455 -79.3419 -79.3401 -79.3380 -79.3368 -79.3363 -79.3351
   -79.3340 -79.3329 -79.3325 -79.3322 -79.3270 -79.3245 -79.3239 -79.3233
   -79.3230 -79.3216 -79.3206 -79.3202 -79.3137 -79.3078 -79.3004 -79.3001
   -79.2443 -79.2413 -79.2408 -79.2344 -79.2336 -79.2308 -79.2293 -79.2282
   -79.2276 -79.2266 -79.2235 -79.2227 -79.2211 -79.2207 -79.2192 -79.2179
   -79.2175 -79.2160 -79.2153 -79.2146 -79.2140 -79.2103 -79.2093 -79.2076
   -79.1686 -79.1673 -79.1623 -79.1608 -79.1599 -79.1588 -79.1548 -79.1544
   -79.1539 -79.1535 -79.1523 -79.1521 -79.1514 -79.1513 -79.1508 -79.1497
   -79.1492 -79.1471 -79.1460 -79.1456 -79.1455 -79.1444 -79.1438 -79.1431
   -79.1428 -79.1423 -79.1420 -79.1408 -79.1401 -79.1390 -79.1381 -79.1376
   -79.1370 -79.1344 -79.1319 -79.1264 -79.1076 -79.1063 -79.1052 -79.1040
   -79.0852 -79.0846 -79.0831 -79.0828 -79.0824 -79.0732 -79.0727 -79.0713
   -79.0711 -79.0708 -79.0695 -79.0672 -79.0645 -79.0635 -79.0625 -79.0588
   -79.0577 -79.0562 -79.0478 -79.0471 -79.0465 -79.0453 -79.0450 -79.0441
   -79.0438 -79.0429 -79.0420 -79.0406 -79.0396 -79.0392 -79.0385 -79.0376
   -79.0328 -79.0311 -79.0299 -79.0287 -79.0235 -79.0206 -79.0198 -79.0135
   -79.0131 -79.0121 -79.0110 -79.0091 -79.0084 -78.9969 -78.9968 -78.9929
   -78.9900 -78.9881 -78.9828 -78.9772 -78.9677 -78.9562 -78.9404 -78.9387
   -18.4912 -17.0052 -16.2124 -13.8055 -13.7545 -10.7785 -10.5306  -8.6248
    -8.0475  -8.0376  -7.9645  -7.6773  -7.0151  -6.9599  -6.9438  -6.9199
    -6.8912  -6.8563  -6.8549  -6.8321  -6.7944  -6.7652  -6.7452  -6.7378
    -6.7222  -6.6902  -6.6726  -6.6572  -6.6308  -6.6277  -6.6264  -6.6011
    -6.5805  -6.5790  -6.5525  -6.5482  -6.5307  -6.5068  -6.5047  -6.5016
    -6.5002  -6.4829  -6.4687  -6.4646  -6.4595  -6.4521  -6.4469  -6.4413
    -6.4387  -6.4334  -6.4289  -6.4242  -6.4216  -6.4167  -6.4066  -6.4000
    -6.3944  -6.3927  -6.3889  -6.3711  -6.3629  -6.3525  -6.3477  -6.3457
    -6.3371  -6.3347  -6.3196  -6.3163  -6.3034  -6.2918  -6.2881  -6.2772
    -6.2680  -6.2616  -6.2558  -6.2461  -6.2375  -6.2266  -6.2218  -6.2134
    -6.2004  -6.1950  -6.1942  -6.1888  -6.1846  -6.1798  -6.1694  -6.1559
    -6.1437  -6.1365  -6.1282  -6.1246  -6.1219  -6.1186  -6.1138  -6.1099
    -6.1004  -6.0940  -6.0880  -6.0769  -6.0732  -6.0648  -6.0614  -6.0550
    -6.0464  -6.0459  -6.0413  -6.0308  -6.0217  -6.0090  -6.0074  -5.9986
    -5.9965  -5.9897  -5.9830  -5.9794  -5.9760  -5.9727  -5.9702  -5.9525
    -5.9482  -5.9449  -5.9405  -5.9355  -5.9306  -5.9293  -5.9285  -5.9226
    -5.9113  -5.9102  -5.9038  -5.9003  -5.8952  -5.8883  -5.8875  -5.8835
    -5.8786  -5.8723  -5.8640  -5.8605  -5.8563  -5.8547  -5.8498  -5.8447
    -5.8354  -5.8325  -5.8287  -5.8252  -5.8205  -5.8181  -5.8138  -5.8124
    -5.8093  -5.8023  -5.7947  -5.7869  -5.7851  -5.7826  -5.7812  -5.7714
    -5.7683  -5.7595  -5.7551  -5.7527  -5.7502  -5.7493  -5.7433  -5.7336
    -5.7289  -5.7256  -5.7250  -5.7226  -5.7127  -5.7095  -5.7081  -5.7026
    -5.6992  -5.6923  -5.6887  -5.6795  -5.6779  -5.6763  -5.6681  -5.6633
    -5.6611  -5.6594  -5.6582  -5.6546  -5.6500  -5.6481  -5.6399  -5.6386
    -5.6294  -5.6194  -5.6178  -5.6142  -5.6070  -5.6053  -5.6019  -5.5979
    -5.5968  -5.5952  -5.5915  -5.5864  -5.5816  -5.5795  -5.5733  -5.5626
    -5.5618  -5.5571  -5.5557  -5.5530  -5.5460  -5.5447  -5.5376  -5.5317
    -5.5289  -5.5238  -5.5213  -5.5181  -5.5148  -5.5084  -5.5050  -5.4977
    -5.4962  -5.4914  -5.4890  -5.4865  -5.4822  -5.4807  -5.4755  -5.4745
    -5.4668  -5.4635  -5.4623  -5.4560  -5.4530  -5.4477  -5.4447  -5.4365
    -5.4319  -5.4239  -5.4191  -5.4044  -5.3981  -5.3945  -5.3857  -5.3827
    -5.3783  -5.3653  -5.3462  -5.3425  -5.3233  -5.2913  -5.2831  -5.2730
    -5.2705  -5.2364  -5.1842  -5.0487  -4.9109  -4.8803  -4.8669  -4.6616
    -4.4313  -4.2927  -4.2814  -3.9541  -3.8234  -3.7134  -3.6387  -3.4662
    -3.3582  -3.3256  -2.8996  -2.8499  -2.7352  -2.5797  -2.5602  -2.5392
    -2.3591  -1.9213  -1.7522  -1.7230  -1.6240  -1.5176  -1.5027  -1.4606
    -1.2816  -1.0963  -1.0207  -0.9533  -0.6794  -0.5156  -0.4265  -0.4237
    -0.2457  -0.2024  -0.1888  -0.1342  -0.1010   0.0207   0.1911   0.2538
     0.6304   0.6488   0.7822   1.0717   1.1984   1.4471   1.4583   1.5135
     1.5962   1.7678   1.8282   1.9638   1.9952   2.0674   2.4765   2.5995
     2.7637   2.7815   2.9075   2.9456   2.9613   2.9853   3.1968   3.2605
     3.4560   3.4610   3.5542   3.5994   3.6128   3.7727   3.8617   3.8908
     4.1136   4.2600   4.4214   4.4462   4.6552   4.6985   4.7401   4.7524
     4.8030   4.9157   5.0138   5.1082   5.1693   5.2259   5.2563   5.3132
     5.3236   5.3348   5.3772   5.5080   5.5814   5.6439   5.6999   5.7602
     5.8414   5.9128   5.9495   6.0073   6.0777   6.1792   6.2163   6.2447
     6.2808   6.3751   6.5074   6.5285   6.5570   6.6087   6.6663   6.7078
     6.7967   6.8185   6.8646   6.9039   6.9329   6.9915   7.0130   7.0509
     7.0918   7.1183   7.1527   7.1689   7.1936   7.2262   7.3057   7.3491
     7.3613   7.3876   7.4347   7.4870   7.5501   7.5748   7.6094   7.6280
     7.6540   7.6745   7.7473   7.7632   7.8523   7.9327   7.9871   8.0463
     8.0986   8.1177

     occupation numbers 
     1.0000   1.0000   1.0000   1.0000   1.0000   1.0000   1.0000   1.0000
     1.0000   1.0000   1.0000   1.0000   1.0000   1.0000   1.0000   1.0000
     1.0000   1.0000   1.0000   1.0000   1.0000   1.0000   1.0000   1.0000
     1.0000   1.0000   1.0000   1.0000   1.0000   1.0000   1.0000   1.0000
     1.0000   1.0000   1.0000   1.0000   1.0000   1.0000   1.0000   1.0000
     1.0000   1.0000   1.0000   1.0000   1.0000   1.0000   1.0000   1.0000
     1.0000   1.0000   1.0000   1.0000   1.0000   1.0000   1.0000   1.0000
     1.0000   1.0000   1.0000   1.0000   1.0000   1.0000   1.0000   1.0000
     1.0000   1.0000   1.0000   1.0000   1.0000   1.0000   1.0000   1.0000
     1.0000   1.0000   1.0000   1.0000   1.0000   1.0000   1.0000   1.0000
     1.0000   1.0000   1.0000   1.0000   1.0000   1.0000   1.0000   1.0000
     1.0000   1.0000   1.0000   1.0000   1.0000   1.0000   1.0000   1.0000
     1.0000   1.0000   1.0000   1.0000   1.0000   1.0000   1.0000   1.0000
     1.0000   1.0000   1.0000   1.0000   1.0000   1.0000   1.0000   1.0000
     1.0000   1.0000   1.0000   1.0000   1.0000   1.0000   1.0000   1.0000
     1.0000   1.0000   1.0000   1.0000   1.0000   1.0000   1.0000   1.0000
     1.0000   1.0000   1.0000   1.0000   1.0000   1.0000   1.0000   1.0000
     1.0000   1.0000   1.0000   1.0000   1.0000   1.0000   1.0000   1.0000
     1.0000   1.0000   1.0000   1.0000   1.0000   1.0000   1.0000   1.0000
     1.0000   1.0000   1.0000   1.0000   1.0000   1.0000   1.0000   1.0000
     1.0000   1.0000   1.0000   1.0000   1.0000   1.0000   1.0000   1.0000
     1.0000   1.0000   1.0000   1.0000   1.0000   1.0000   1.0000   1.0000
     1.0000   1.0000   1.0000   1.0000   1.0000   1.0000   1.0000   1.0000
     1.0000   1.0000   1.0000   1.0000   1.0000   1.0000   1.0000   1.0000
     1.0000   1.0000   1.0000   1.0000   1.0000   1.0000   1.0000   1.0000
     1.0000   1.0000   1.0000   1.0000   1.0000   1.0000   1.0000   1.0000
     1.0000   1.0000   1.0000   1.0000   1.0000   1.0000   1.0000   1.0000
     1.0000   1.0000   1.0000   1.0000   1.0000   1.0000   1.0000   1.0000
     1.0000   1.0000   1.0000   1.0000   1.0000   1.0000   1.0000   1.0000
     1.0000   1.0000   1.0000   1.0000   1.0000   1.0000   1.0000   1.0000
     1.0000   1.0000   1.0000   1.0000   1.0000   1.0000   1.0000   1.0000
     1.0000   1.0000   1.0000   1.0000   1.0000   1.0000   1.0000   1.0000
     1.0000   1.0000   1.0000   1.0000   1.0000   1.0000   1.0000   1.0000
     1.0000   1.0000   1.0000   1.0000   1.0000   1.0000   1.0000   1.0000
     1.0000   1.0000   1.0000   1.0000   1.0000   1.0000   1.0000   1.0000
     1.0000   1.0000   1.0000   1.0000   1.0000   1.0000   1.0000   1.0000
     1.0000   1.0000   1.0000   1.0000   1.0000   1.0000   1.0000   1.0000
     1.0000   1.0000   1.0000   1.0000   1.0000   1.0000   1.0000   1.0000
     1.0000   1.0000   1.0000   1.0000   1.0000   1.0000   1.0000   1.0000
     1.0000   1.0000   1.0000   1.0000   1.0000   1.0000   1.0000   1.0000
     1.0000   1.0000   1.0000   1.0000   1.0000   1.0000   1.0000   1.0000
     1.0000   1.0000   1.0000   1.0000   1.0000   1.0000   1.0000   1.0000
     1.0000   1.0000   1.0000   1.0000   1.0000   1.0000   1.0000   1.0000
     1.0000   1.0000   1.0000   1.0000   1.0000   1.0000   1.0000   1.0000
     1.0000   1.0000   1.0000   1.0000   1.0000   1.0000   1.0000   1.0000
     1.0000   1.0000   1.0000   1.0000   1.0000   1.0000   1.0000   1.0000
     1.0000   1.0000   1.0000   1.0000   1.0000   1.0000   1.0000   1.0000
     1.0000   1.0000   1.0000   1.0000   1.0000   1.0000   1.0000   1.0000
     1.0000   1.0000   1.0000   1.0000   1.0000   1.0000   1.0000   1.0000
     1.0000   1.0000   1.0000   1.0000   1.0000   1.0000   1.0000   1.0000
     1.0000   1.0000   1.0000   1.0000   1.0000   1.0000   1.0000   1.0000
     1.0000   1.0000   1.0000   1.0000   1.0000   1.0000   1.0000   1.0000
     1.0000   1.0000   1.0000   1.0000   1.0000   1.0000   1.0000   1.0000
     1.0000   1.0000   1.0000   1.0000   1.0000   1.0000   1.0000   1.0000
     1.0000   1.0000   1.0000   1.0000   1.0000   1.0000   1.0000   1.0000
     1.0000   1.0000   1.0000   1.0000   1.0000   1.0000   1.0000   1.0000
     1.0000   1.0000   1.0000   1.0000   1.0000   1.0000   1.0000   1.0000
     1.0000   1.0000   1.0000   1.0000   1.0000   1.0000   1.0000   1.0000
     1.0000   1.0000   1.0000   1.0000   1.0000   1.0000   1.0000   1.0000
     1.0000   1.0000   1.0000   1.0000   1.0000   1.0000   1.0000   1.0000
     1.0000   1.0000   1.0000   1.0000   1.0000   1.0000   1.0000   1.0000
     1.0000   1.0000   1.0000   1.0000   1.0000   1.0000   1.0000   1.0000
     1.0083   1.0105   1.0406   1.0080   0.7513   0.1608   0.1451   0.0831
     0.0312   0.0023   0.0008   0.0000   0.0000   0.0000   0.0000   0.0000
     0.0000   0.0000   0.0000   0.0000   0.0000   0.0000   0.0000   0.0000
     0.0000   0.0000   0.0000   0.0000   0.0000   0.0000   0.0000   0.0000
     0.0000   0.0000   0.0000   0.0000   0.0000   0.0000   0.0000   0.0000
     0.0000   0.0000   0.0000   0.0000   0.0000   0.0000   0.0000   0.0000
     0.0000   0.0000   0.0000   0.0000   0.0000   0.0000   0.0000   0.0000
     0.0000   0.0000   0.0000   0.0000   0.0000   0.0000   0.0000   0.0000
     0.0000   0.0000   0.0000   0.0000   0.0000   0.0000   0.0000   0.0000
     0.0000   0.0000   0.0000   0.0000   0.0000   0.0000   0.0000   0.0000
     0.0000   0.0000   0.0000   0.0000   0.0000   0.0000   0.0000   0.0000
     0.0000   0.0000   0.0000   0.0000   0.0000   0.0000   0.0000   0.0000
     0.0000   0.0000   0.0000   0.0000   0.0000   0.0000   0.0000   0.0000
     0.0000   0.0000

          k = 0.3333 0.4439 0.9230 ( 71974 PWs)   bands (ev):

  -125.1880-125.1878-125.1826-125.1772-125.1767-125.1759-125.1752-125.1554
  -125.0829-125.0818-125.0796-125.0743-125.0731-125.0711-125.0699-125.0683
  -125.0086-125.0062-125.0047-124.9993-124.9955-124.9943-124.9933-124.9921
  -124.9920-124.9902-124.9895-124.9892-124.9374-124.9364-124.9349-124.9339
  -124.9003-124.9000-124.8988-124.8978-124.8970-124.8956-124.8943-124.8934
  -124.8710-124.8701-124.8633-124.8622-124.8450-124.8398-124.8289-124.7896
   -79.3458 -79.3455 -79.3410 -79.3401 -79.3379 -79.3371 -79.3360 -79.3357
   -79.3352 -79.3325 -79.3322 -79.3313 -79.3270 -79.3267 -79.3244 -79.3236
   -79.3230 -79.3228 -79.3217 -79.3141 -79.3137 -79.3095 -79.3005 -79.3001
   -79.2439 -79.2408 -79.2404 -79.2357 -79.2340 -79.2329 -79.2293 -79.2283
   -79.2269 -79.2252 -79.2238 -79.2230 -79.2209 -79.2205 -79.2195 -79.2177
   -79.2162 -79.2157 -79.2153 -79.2147 -79.2139 -79.2105 -79.2092 -79.2085
   -79.1684 -79.1673 -79.1618 -79.1606 -79.1596 -79.1587 -79.1550 -79.1545
   -79.1544 -79.1534 -79.1532 -79.1523 -79.1517 -79.1513 -79.1511 -79.1502
   -79.1490 -79.1483 -79.1459 -79.1457 -79.1450 -79.1443 -79.1438 -79.1430
   -79.1427 -79.1424 -79.1420 -79.1417 -79.1391 -79.1381 -79.1377 -79.1371
   -79.1352 -79.1342 -79.1328 -79.1276 -79.1076 -79.1064 -79.1052 -79.1040
   -79.0852 -79.0847 -79.0829 -79.0824 -79.0815 -79.0768 -79.0731 -79.0728
   -79.0713 -79.0695 -79.0672 -79.0651 -79.0646 -79.0635 -79.0625 -79.0603
   -79.0562 -79.0546 -79.0514 -79.0500 -79.0476 -79.0470 -79.0451 -79.0442
   -79.0423 -79.0409 -79.0398 -79.0393 -79.0389 -79.0385 -79.0376 -79.0373
   -79.0343 -79.0327 -79.0299 -79.0287 -79.0224 -79.0205 -79.0198 -79.0157
   -79.0135 -79.0131 -79.0120 -79.0083 -79.0046 -78.9981 -78.9968 -78.9928
   -78.9896 -78.9881 -78.9836 -78.9772 -78.9674 -78.9562 -78.9404 -78.9387
   -18.4912 -17.0052 -16.2123 -13.8055 -13.7545 -10.7784 -10.5306  -8.6247
    -8.0379  -7.9759  -7.8273  -7.6177  -7.5254  -7.0201  -6.9018  -6.8606
    -6.8403  -6.8206  -6.8069  -6.8065  -6.7394  -6.7277  -6.7219  -6.7198
    -6.6852  -6.6723  -6.6691  -6.6516  -6.6386  -6.6287  -6.6216  -6.6177
    -6.6085  -6.5899  -6.5827  -6.5740  -6.5673  -6.5504  -6.5453  -6.5346
    -6.5279  -6.5064  -6.4967  -6.4903  -6.4825  -6.4732  -6.4694  -6.4616
    -6.4557  -6.4478  -6.4448  -6.4408  -6.4287  -6.4137  -6.4079  -6.3888
    -6.3861  -6.3807  -6.3742  -6.3645  -6.3624  -6.3454  -6.3439  -6.3404
    -6.3289  -6.3240  -6.3090  -6.3024  -6.2944  -6.2924  -6.2852  -6.2797
    -6.2685  -6.2668  -6.2580  -6.2457  -6.2362  -6.2325  -6.2292  -6.2225
    -6.2091  -6.2042  -6.2031  -6.1924  -6.1806  -6.1763  -6.1723  -6.1709
    -6.1692  -6.1621  -6.1420  -6.1398  -6.1291  -6.1278  -6.1134  -6.1115
    -6.1078  -6.1062  -6.0864  -6.0850  -6.0787  -6.0691  -6.0655  -6.0589
    -6.0531  -6.0484  -6.0459  -6.0387  -6.0348  -6.0322  -6.0270  -6.0205
    -6.0163  -6.0087  -6.0052  -5.9977  -5.9936  -5.9889  -5.9836  -5.9801
    -5.9745  -5.9720  -5.9635  -5.9602  -5.9510  -5.9481  -5.9408  -5.9334
    -5.9190  -5.9166  -5.9134  -5.9101  -5.9051  -5.9044  -5.9000  -5.8947
    -5.8865  -5.8761  -5.8712  -5.8687  -5.8595  -5.8523  -5.8500  -5.8448
    -5.8428  -5.8380  -5.8327  -5.8304  -5.8217  -5.8197  -5.8103  -5.8064
    -5.8030  -5.7980  -5.7936  -5.7851  -5.7813  -5.7769  -5.7583  -5.7555
    -5.7480  -5.7441  -5.7391  -5.7352  -5.7258  -5.7230  -5.7161  -5.7144
    -5.7137  -5.7053  -5.7004  -5.6977  -5.6937  -5.6903  -5.6821  -5.6788
    -5.6734  -5.6711  -5.6686  -5.6677  -5.6628  -5.6592  -5.6532  -5.6524
    -5.6417  -5.6393  -5.6375  -5.6352  -5.6334  -5.6285  -5.6254  -5.6191
    -5.6116  -5.6076  -5.6060  -5.6013  -5.5913  -5.5891  -5.5879  -5.5841
    -5.5782  -5.5742  -5.5690  -5.5627  -5.5612  -5.5605  -5.5561  -5.5549
    -5.5475  -5.5458  -5.5406  -5.5385  -5.5350  -5.5309  -5.5288  -5.5238
    -5.5183  -5.5127  -5.5101  -5.5085  -5.5043  -5.5034  -5.5004  -5.4973
    -5.4925  -5.4918  -5.4901  -5.4880  -5.4842  -5.4818  -5.4800  -5.4757
    -5.4719  -5.4652  -5.4589  -5.4578  -5.4559  -5.4534  -5.4495  -5.4443
    -5.4413  -5.4391  -5.4377  -5.4277  -5.4232  -5.4110  -5.4051  -5.3856
    -5.3773  -5.3605  -5.3497  -5.3460  -5.3389  -5.3326  -5.3294  -5.2913
    -5.2308  -5.2226  -5.0535  -4.9390  -4.8201  -4.7914  -4.7367  -4.6525
    -4.4874  -4.3621  -4.1949  -3.9170  -3.7981  -3.6420  -3.5053  -3.3628
    -3.3161  -3.1213  -2.8994  -2.8019  -2.6904  -2.6011  -2.5686  -2.5605
    -2.5275  -2.3655  -2.2906  -2.1038  -2.0515  -1.8669  -1.6225  -1.4654
    -1.4358  -1.2720  -1.0394  -0.9177  -0.7373  -0.6150  -0.4493  -0.4219
    -0.3727  -0.0484  -0.0185   0.1272   0.1647   0.3383   0.5536   0.5889
     0.6739   0.9243   0.9304   1.0038   1.1813   1.3806   1.5689   1.5916
     1.9459   1.9575   2.0424   2.1363   2.2771   2.4034   2.4901   2.5989
     2.6995   2.7163   2.7342   3.0322   3.0455   3.0911   3.1064   3.2783
     3.3814   3.4097   3.5190   3.5906   3.6305   3.7726   3.9900   4.0381
     4.0564   4.0580   4.1080   4.2455   4.4221   4.5712   4.6248   4.6465
     4.6695   4.8315   4.8799   4.9832   5.0589   5.0747   5.2151   5.3009
     5.3282   5.3363   5.3969   5.5156   5.5991   5.6181   5.6827   5.7155
     5.7973   5.8122   5.8427   5.9754   6.0284   6.0560   6.0956   6.1300
     6.1493   6.2084   6.2841   6.3306   6.3569   6.4529   6.4662   6.5189
     6.5622   6.5828   6.6268   6.6975   6.7570   6.7953   6.8235   6.9175
     6.9350   7.0391   7.1137   7.1357   7.1803   7.2694   7.3038   7.3347
     7.3807   7.4837   7.5160   7.5698   7.6300   7.6996   7.7318   7.7738
     7.8271   7.9147   7.9557   8.0115   8.0547   8.0756   8.1378   8.1600
     8.2014   8.2816

     occupation numbers 
     1.0000   1.0000   1.0000   1.0000   1.0000   1.0000   1.0000   1.0000
     1.0000   1.0000   1.0000   1.0000   1.0000   1.0000   1.0000   1.0000
     1.0000   1.0000   1.0000   1.0000   1.0000   1.0000   1.0000   1.0000
     1.0000   1.0000   1.0000   1.0000   1.0000   1.0000   1.0000   1.0000
     1.0000   1.0000   1.0000   1.0000   1.0000   1.0000   1.0000   1.0000
     1.0000   1.0000   1.0000   1.0000   1.0000   1.0000   1.0000   1.0000
     1.0000   1.0000   1.0000   1.0000   1.0000   1.0000   1.0000   1.0000
     1.0000   1.0000   1.0000   1.0000   1.0000   1.0000   1.0000   1.0000
     1.0000   1.0000   1.0000   1.0000   1.0000   1.0000   1.0000   1.0000
     1.0000   1.0000   1.0000   1.0000   1.0000   1.0000   1.0000   1.0000
     1.0000   1.0000   1.0000   1.0000   1.0000   1.0000   1.0000   1.0000
     1.0000   1.0000   1.0000   1.0000   1.0000   1.0000   1.0000   1.0000
     1.0000   1.0000   1.0000   1.0000   1.0000   1.0000   1.0000   1.0000
     1.0000   1.0000   1.0000   1.0000   1.0000   1.0000   1.0000   1.0000
     1.0000   1.0000   1.0000   1.0000   1.0000   1.0000   1.0000   1.0000
     1.0000   1.0000   1.0000   1.0000   1.0000   1.0000   1.0000   1.0000
     1.0000   1.0000   1.0000   1.0000   1.0000   1.0000   1.0000   1.0000
     1.0000   1.0000   1.0000   1.0000   1.0000   1.0000   1.0000   1.0000
     1.0000   1.0000   1.0000   1.0000   1.0000   1.0000   1.0000   1.0000
     1.0000   1.0000   1.0000   1.0000   1.0000   1.0000   1.0000   1.0000
     1.0000   1.0000   1.0000   1.0000   1.0000   1.0000   1.0000   1.0000
     1.0000   1.0000   1.0000   1.0000   1.0000   1.0000   1.0000   1.0000
     1.0000   1.0000   1.0000   1.0000   1.0000   1.0000   1.0000   1.0000
     1.0000   1.0000   1.0000   1.0000   1.0000   1.0000   1.0000   1.0000
     1.0000   1.0000   1.0000   1.0000   1.0000   1.0000   1.0000   1.0000
     1.0000   1.0000   1.0000   1.0000   1.0000   1.0000   1.0000   1.0000
     1.0000   1.0000   1.0000   1.0000   1.0000   1.0000   1.0000   1.0000
     1.0000   1.0000   1.0000   1.0000   1.0000   1.0000   1.0000   1.0000
     1.0000   1.0000   1.0000   1.0000   1.0000   1.0000   1.0000   1.0000
[...]
     atom   16 type  1   force =     0.00018099   -0.00004712    0.00001542
     atom   17 type  1   force =    -0.00016587   -0.00006560   -0.00005434
     atom   18 type  1   force =    -0.00013788   -0.00000458    0.00005554
     atom   19 type  1   force =     0.00000000    0.00000000    0.00000000
     atom   20 type  1   force =     0.00000000   -0.00000000    0.00000000
     atom   21 type  1   force =     0.00008789    0.00004749   -0.00000360
     atom   22 type  1   force =    -0.00001687   -0.00003325   -0.00000487
     atom   23 type  1   force =    -0.00005610   -0.00005012    0.00001660
     atom   24 type  1   force =    -0.00024878   -0.00002237   -0.00001384
     atom   25 type  1   force =    -0.00000000    0.00000000   -0.00000000
     atom   26 type  1   force =     0.00000000   -0.00000000    0.00000000
     atom   27 type  1   force =    -0.00019177   -0.00011478   -0.00007730
     atom   28 type  1   force =    -0.00019940    0.00001805   -0.00000464
     atom   29 type  1   force =     0.00021274   -0.00015906   -0.00003143
     atom   30 type  1   force =    -0.00002705    0.00020242   -0.00000199
     atom   31 type  1   force =     0.00000000    0.00000000    0.00000000
     atom   32 type  1   force =     0.00000000   -0.00000000   -0.00000000
     atom   33 type  1   force =    -0.00006009   -0.00013492   -0.00003090
     atom   34 type  1   force =    -0.00034221    0.00004565   -0.00005073
     atom   35 type  1   force =     0.00009147    0.00007043    0.00001727
     atom   36 type  1   force =     0.00008718   -0.00001528   -0.00005176
     atom   37 type  1   force =     0.00000000   -0.00000000    0.00000000
     atom   38 type  1   force =    -0.00000000    0.00000000    0.00000000
     atom   39 type  1   force =     0.00020503   -0.00000531    0.00004664
     atom   40 type  1   force =     0.00023605    0.00011541    0.00007636
     atom   41 type  1   force =    -0.00005242    0.00001350    0.00005056
     atom   42 type  1   force =     0.00016919    0.00000901    0.00004383
     atom   43 type  1   force =    -0.00000000   -0.00000000    0.00000000
     atom   44 type  1   force =    -0.00000000   -0.00000000    0.00000000
     atom   45 type  1   force =     0.00008026    0.00023279    0.00006547
     atom   46 type  1   force =     0.00036066   -0.00012200    0.00006837
     atom   47 type  1   force =     0.00002131    0.00009637    0.00003027
     atom   48 type  1   force =     0.00008803   -0.00006335    0.00007155
     atom   49 type  3   force =     0.00001417    0.00000472    0.00003279
     atom   50 type  3   force =    -0.00001840   -0.00000704   -0.00000431
     atom   51 type  3   force =    -0.00002929    0.00000802   -0.00002427
     atom   52 type  3   force =    -0.00002005   -0.00002366   -0.00002543
     atom   53 type  3   force =    -0.00001838   -0.00002540   -0.00003605
     atom   54 type  3   force =    -0.00002976    0.00001113   -0.00003415
     atom   55 type  3   force =    -0.00000294   -0.00000183   -0.00002483
     atom   56 type  2   force =     0.00001108    0.00000537    0.00004590
     atom   57 type  2   force =     0.00004507    0.00001506   -0.00000732
     atom   58 type  4   force =     0.00000713    0.00000750   -0.00000035
     atom   59 type  4   force =     0.00001043   -0.00000223   -0.00000043
     atom   60 type  4   force =    -0.00000041   -0.00000553   -0.00000238
     atom   61 type  4   force =    -0.00000318    0.00000480   -0.00000188
     atom   62 type  4   force =    -0.00000266    0.00000616   -0.00000346
     atom   63 type  4   force =     0.00000157   -0.00000615   -0.00000409

     DFT-D3 dispersion contribution to forces:
     atom    1 type  1   force =    -0.00076388   -0.00015439    0.00283231
     atom    2 type  1   force =    -0.00073800   -0.00020164    0.00282520
     atom    3 type  1   force =    -0.00123514   -0.00029103   -0.00258980
     atom    4 type  1   force =    -0.00133363   -0.00036354   -0.00254204
     atom    5 type  1   force =     0.00079564    0.00032417   -0.00158557
     atom    6 type  1   force =     0.00024500    0.00019557   -0.00181467
     atom    7 type  1   force =    -0.00075869   -0.00018008    0.00284602
     atom    8 type  1   force =    -0.00076966   -0.00018181    0.00277674
     atom    9 type  1   force =    -0.00128895   -0.00030714   -0.00257623
     atom   10 type  1   force =    -0.00127951   -0.00034322   -0.00256994
     atom   11 type  1   force =     0.00075814    0.00116564   -0.00056192
     atom   12 type  1   force =     0.00107605   -0.00040728   -0.00059281
     atom   13 type  1   force =     0.00070279    0.00017067    0.00291269
     atom   14 type  1   force =     0.00069659    0.00022005    0.00290107
     atom   15 type  1   force =    -0.00029483   -0.00016781   -0.00091941
     atom   16 type  1   force =     0.00025060   -0.00024072   -0.00028800
     atom   17 type  1   force =    -0.00019528   -0.00002231   -0.00260330
     atom   18 type  1   force =    -0.00010233   -0.00002035   -0.00243205
     atom   19 type  1   force =     0.00071980    0.00014815    0.00291023
     atom   20 type  1   force =     0.00068963    0.00020972    0.00290876
     atom   21 type  1   force =     0.00010101    0.00027527   -0.00030515
     atom   22 type  1   force =    -0.00031555   -0.00003108   -0.00089451
     atom   23 type  1   force =    -0.00006211   -0.00000176   -0.00250685
     atom   24 type  1   force =    -0.00023428   -0.00009158   -0.00252824
     atom   25 type  1   force =     0.00064489    0.00013481    0.00279135
     atom   26 type  1   force =     0.00058490    0.00016682    0.00281679
     atom   27 type  1   force =     0.00072829    0.00018033    0.00184961
     atom   28 type  1   force =     0.00071041    0.00014820    0.00182753
     atom   29 type  1   force =     0.00074047    0.00012429   -0.00196868
     atom   30 type  1   force =     0.00041067    0.00021934   -0.00154951
     atom   31 type  1   force =     0.00059300    0.00013062    0.00280615
     atom   32 type  1   force =     0.00063505    0.00018854    0.00279793
     atom   33 type  1   force =     0.00070636    0.00019757    0.00183189
     atom   34 type  1   force =     0.00074173    0.00019421    0.00184290
     atom   35 type  1   force =     0.00070912    0.00021951   -0.00197074
     atom   36 type  1   force =     0.00050168    0.00000841   -0.00157343
     atom   37 type  1   force =     0.00038636    0.00010477    0.00255336
     atom   38 type  1   force =     0.00041357    0.00009531    0.00258708
     atom   39 type  1   force =    -0.00127154   -0.00034637    0.00165428
     atom   40 type  1   force =    -0.00113154   -0.00029864    0.00144025
     atom   41 type  1   force =    -0.00037664   -0.00021224   -0.00434752
     atom   42 type  1   force =     0.00036604   -0.00003285   -0.00350686
     atom   43 type  1   force =     0.00041745    0.00009252    0.00258817
     atom   44 type  1   force =     0.00038613    0.00010947    0.00253233
     atom   45 type  1   force =    -0.00111681   -0.00021118    0.00180909
     atom   46 type  1   force =    -0.00112678   -0.00036037    0.00177435
     atom   47 type  1   force =     0.00014087    0.00047436   -0.00371706
     atom   48 type  1   force =     0.00031354   -0.00056526   -0.00374268
     atom   49 type  3   force =     0.00008066    0.00002722   -0.00003174
     atom   50 type  3   force =    -0.00004181   -0.00001162   -0.00019794
     atom   51 type  3   force =    -0.00004013    0.00017684   -0.00023679
     atom   52 type  3   force =     0.00007546   -0.00015935   -0.00023964
     atom   53 type  3   force =    -0.00012060    0.00026046   -0.00071503
     atom   54 type  3   force =     0.00004663   -0.00026405   -0.00072445
     atom   55 type  3   force =    -0.00021873   -0.00005710   -0.00109857
     atom   56 type  2   force =    -0.00022298   -0.00007382   -0.00014994
     atom   57 type  2   force =    -0.00046852   -0.00012408   -0.00129401
     atom   58 type  4   force =    -0.00031551   -0.00017460   -0.00136973
     atom   59 type  4   force =    -0.00035843   -0.00002878   -0.00139979
     atom   60 type  4   force =     0.00000681   -0.00003601   -0.00002232
     atom   61 type  4   force =    -0.00001834    0.00003260   -0.00001868
     atom   62 type  4   force =    -0.00009648   -0.00002638   -0.00060591
     atom   63 type  4   force =    -0.00007869   -0.00000698   -0.00062457

     Total force =     0.007267     Total SCF correction =     0.001185

     DFT-D3 dispersion Force =     0.017846
     SCF correction compared to forces is large: reduce conv_thr to get better values


     Computing stress (Cartesian axis) and pressure


     negative rho (up, down):  4.055E-03 0.000E+00
          total   stress  (Ry/bohr**3)                   (kbar)     P=      -10.76
  -0.00012238  -0.00000382   0.00000611          -18.00       -0.56        0.90
  -0.00000382  -0.00009153   0.00000164           -0.56      -13.46        0.24
   0.00000611   0.00000164  -0.00000548            0.90        0.24       -0.81

     kinetic stress (kbar)  11699.64      8.50    -31.63
                                8.50  11676.52    -10.76
                              -31.63    -10.76  11753.61

     local   stress (kbar)-834337.42   3873.33  -2081.37
                             3873.33-848774.31   -646.68
                            -2081.37   -646.68 841567.73

     nonloc. stress (kbar)  -1083.05     -3.68      2.85
                               -3.68  -1069.06      0.99
                                2.85      0.99  -1109.11

     hartree stress (kbar) 441989.91  -1759.84    915.31
                            -1759.84 448559.73    279.40
                              915.31    279.40-389274.85

     exc-cor stress (kbar)  -5698.20     -0.76      1.78
                               -0.76  -5695.65      0.61
                                1.78      0.61  -5704.13

     corecor stress (kbar)    -75.11      0.09     -0.62
                                0.09    -75.32     -0.21
                               -0.62     -0.21    -75.04

     ewald   stress (kbar) 387493.78  -2118.39   1194.82
                            -2118.39 395372.80    376.96
                             1194.82    376.96-457154.82

     hubbard stress (kbar)      0.00      0.00      0.00
                                0.00      0.00      0.00
                                0.00      0.00      0.00

     DFT-D   stress (kbar)     -7.56      0.19     -0.25
                                0.19     -8.18     -0.06
                               -0.25     -0.06     -4.21

     XDM     stress (kbar)      0.00      0.00      0.00
                                0.00      0.00      0.00
                                0.00      0.00      0.00

     dft-nl  stress (kbar)      0.00      0.00      0.00
                                0.00      0.00      0.00
                                0.00      0.00      0.00

     TS-vdW  stress (kbar)      0.00      0.00      0.00
                                0.00      0.00      0.00
                                0.00      0.00      0.00

     MDB     stress (kbar)      0.00      0.00      0.00
                                0.00      0.00      0.00
                                0.00      0.00      0.00

     3D-RISM stress (kbar)      0.00      0.00      0.00
                                0.00      0.00      0.00
                                0.00      0.00      0.00

     Energy error            =      7.7E-05 Ry
     Gradient error          =      2.2E-03 Ry/Bohr

     number of scf cycles    =  30
     number of bfgs steps    =  28

     energy             old  =  -22331.0475055046 Ry
     energy             new  =  -22331.0475827236 Ry

     CASE: energy            _new < energy            _old

     new trust radius        =       0.1180535354 bohr
     new conv_thr            =       0.0000000435 Ry


ATOMIC_POSITIONS (angstrom)
Zn              -1.0735560000        1.0841420000        1.1977640000    0   0   0
Zn              -2.3094850000        6.1646920000        1.1977640000    0   0   0
Zn              -4.2491287268        0.3059952943        4.3305030223
Zn              -5.5025152413        5.3793492845        4.3370209784
Zn              -8.1708085426       -0.6780616032        5.8124234923
Zn              -9.3838962684        4.4225924314        5.9661680373
Zn              -1.6915200000        3.6244170000        1.1977640000    0   0   0
Zn              -2.9274500000        8.7049670000        1.1977640000    0   0   0
Zn              -4.8808232476        2.8445776395        4.3337574582
Zn              -6.1073709464        7.9214604993        4.3292297939
Zn              -8.8084660125        1.8546796428        5.7904320619
Zn             -10.0456865742        6.9527654687        5.7935384820
Zn               4.4565960000        1.0841420000        1.1977640000    0   0   0
Zn               3.2206660000        6.1646920000        1.1977640000    0   0   0
Zn               0.3955091605        0.0923907763        3.4741573845
Zn              -0.8368413599        5.1811936656        3.4441179497
Zn              -2.0918771903       -0.5070118467        5.6544620435
Zn              -3.3445450661        4.5727653348        5.6586949272
Zn               3.8386310000        3.6244170000        1.1977640000    0   0   0
Zn               2.6027020000        8.7049670000        1.1977640000    0   0   0
Zn              -0.2132378929        2.6231190700        3.4470763419
Zn              -1.4617149563        7.7155928121        3.4723903445
Zn              -2.7198598354        2.0232229937        5.6550391256
Zn              -3.9506377927        7.1103939534        5.6590474947
Zn               1.6915200000        0.4114910000        0.8555450000    0   0   0
Zn               0.4555910000        5.4920410000        0.8555450000    0   0   0
Zn              -2.2444136241       -0.5460175647        2.8723324102
Zn              -3.4970417676        4.5285865358        2.8634179060
Zn              -6.0718268795       -1.4940514153        4.3858919959
Zn              -7.3368136804        3.5910341003        4.4528703854
Zn               1.0735560000        2.9517660000        0.8555450000    0   0   0
Zn              -0.1623740000        8.0323160000        0.8555450000    0   0   0
Zn              -2.8699639791        1.9961434421        2.8648623106
Zn              -4.1048707673        7.0693583224        2.8718350941
Zn              -6.6933824322        1.0504020523        4.3863349559
Zn              -7.9472113210        6.1230388629        4.4485743276
Zn               7.2216720000        0.4114910000        0.8555450000    0   0   0
Zn               5.9857420000        5.4920410000        0.8555450000    0   0   0
Zn               2.9626119561       -0.6317621505        2.9283057243
Zn               1.7422618420        4.4550490970        2.9389031772
Zn               0.4022761828       -1.2410865865        5.8322358087
Zn              -0.8512622309        3.8369247149        5.7225386365
Zn               6.6037070000        2.9517660000        0.8555450000    0   0   0
Zn               5.3677780000        8.0323160000        0.8555450000    0   0   0
Zn               2.3697577812        1.9195493695        2.9245624322
Zn               1.1300043716        6.9914586541        2.9242224029
Zn              -0.2215529535        1.3107434555        5.8468505040
Zn              -1.4545399815        6.3678086087        5.8344814161
C               -5.9012004813        5.5063845353       12.3641110268
C               -6.8777947761        5.2014161058       11.3706157284
C               -7.7451833322        6.2002042123       10.8893868763
C               -6.9940428829        3.8936776276       10.8630952527
C               -8.7077331049        5.8942335967        9.9375061281
C               -7.9575208043        3.5905008388        9.9112561523
C               -8.8377093174        4.5830046069        9.4468305569
N               -5.1035022880        5.7608589599       13.1776103180
N               -9.7859293671        4.2848313839        8.4643001585
H              -10.0787726131        3.3094666309        8.4075797196
H              -10.5846088209        4.9161301504        8.4145110099
H               -6.3231960690        3.1174577137       11.2289069514
H               -7.6593513767        7.2150466471       11.2781174741
H               -8.0350482568        2.5756475753        9.5205044629
H               -9.3730141635        6.6756258572        9.5691228701



     Writing config-only to output data dir ./tmp/03_Zn101_ABN_topsite_tilted.save/ :
     XML data file
     NEW-OLD atomic charge density approx. for the potential

     negative rho (up, down):  4.124E-03 0.000E+00

     total cpu time spent up to now is    45631.3 secs

     Self-consistent Calculation

     iteration #  1     ecut=    40.00 Ry     beta= 0.40
     Davidson diagonalization with overlap

---- Real-time Memory Report at c_bands before calling an iterative solver
           745 MiB given to the printing process from OS
             0 MiB allocation reported by mallinfo(arena+hblkhd)
        203693 MiB available memory on the node where the printing process lives
------------------
     ethr =  1.00E-06,  avg # of iterations =  5.4

     negative rho (up, down):  4.101E-03 0.000E+00

     total cpu time spent up to now is    45885.2 secs

     total energy              =  -22331.04711041 Ry
     estimated scf accuracy    <       0.00769820 Ry

     iteration #  2     ecut=    40.00 Ry     beta= 0.40
     Davidson diagonalization with overlap

---- Real-time Memory Report at c_bands before calling an iterative solver
           745 MiB given to the printing process from OS
             0 MiB allocation reported by mallinfo(arena+hblkhd)
        203691 MiB available memory on the node where the printing process lives
------------------
     ethr =  7.67E-07,  avg # of iterations =  3.0

     negative rho (up, down):  4.086E-03 0.000E+00

     total cpu time spent up to now is    46008.2 secs

     total energy              =  -22331.04730090 Ry
     estimated scf accuracy    <       0.00173823 Ry

     iteration #  3     ecut=    40.00 Ry     beta= 0.40
     Davidson diagonalization with overlap

---- Real-time Memory Report at c_bands before calling an iterative solver
           745 MiB given to the printing process from OS
             0 MiB allocation reported by mallinfo(arena+hblkhd)
        203691 MiB available memory on the node where the printing process lives
------------------
     ethr =  1.73E-07,  avg # of iterations =  3.2

     negative rho (up, down):  4.088E-03 0.000E+00

     total cpu time spent up to now is    46134.5 secs

     total energy              =  -22331.04640680 Ry
     estimated scf accuracy    <       0.01693340 Ry

     iteration #  4     ecut=    40.00 Ry     beta= 0.40
     Davidson diagonalization with overlap

---- Real-time Memory Report at c_bands before calling an iterative solver
           745 MiB given to the printing process from OS
             0 MiB allocation reported by mallinfo(arena+hblkhd)
        203684 MiB available memory on the node where the printing process lives
------------------
     ethr =  1.73E-07,  avg # of iterations =  2.0

     negative rho (up, down):  4.082E-03 0.000E+00

     total cpu time spent up to now is    46256.3 secs

     total energy              =  -22331.04758378 Ry
     estimated scf accuracy    <       0.00077710 Ry

     iteration #  5     ecut=    40.00 Ry     beta= 0.40
     Davidson diagonalization with overlap

---- Real-time Memory Report at c_bands before calling an iterative solver
           745 MiB given to the printing process from OS
             0 MiB allocation reported by mallinfo(arena+hblkhd)
        203682 MiB available memory on the node where the printing process lives
------------------
