--------------------------------------------------------------------------
WARNING: There was an error initializing an OpenFabrics device.

  Local host:   ga01
  Local device: mlx5_0
--------------------------------------------------------------------------

     Program PWSCF v.7.3.1 starts on  8Apr2025 at 21:54:29 

     This program is part of the open-source Quantum ESPRESSO suite
     for quantum simulation of materials; please cite
         "P. Giannozzi et al., J. Phys.:Condens. Matter 21 395502 (2009);
         "P. Giannozzi et al., J. Phys.:Condens. Matter 29 465901 (2017);
         "P. Giannozzi et al., J. Chem. Phys. 152 154105 (2020);
          URL http://www.quantum-espresso.org", 
     in publications or presentations arising from this work. More details at
     http://www.quantum-espresso.org/quote

     Parallel version (MPI), running on    29 processors

     MPI processes distributed on     1 nodes
     186036 MiB available memory on the printing compute node when the environment starts

     Waiting for input...
     Reading input from standard input
Warning: card &CELL ignored
Warning: card   CELL_DOFREE = 'ALL' ignored
Warning: card / ignored

     Current dimensions of program PWSCF are:
     Max number of different atomic species (ntypx) = 10
     Max number of k-points (npk) =  40000
     Max angular momentum in pseudopotentials (lmaxx) =  4
     file C.pbe-n-kjpaw_psl.1.0.0.UPF: wavefunction(s)  2S 2P renormalized

     R & G space division:  proc/nbgrp/npool/nimage =      29
     Subspace diagonalization in iterative solution of the eigenvalue problem:
     a serial algorithm will be used


     Parallelization info
     --------------------
     sticks:   dense  smooth     PW     G-vecs:    dense   smooth      PW
     Min        1714     979    249               287676   124263   15993
     Max        1715     980    251               287679   124268   15995
     Sum       49717   28417   7237              8342671  3603727  463837

     Using Slab Decomposition



     bravais-lattice index     =            1
     lattice parameter (alat)  =      47.2432  a.u.
     unit-cell volume          =  105442.7265 (a.u.)^3
     number of atoms/cell      =           14
     number of atomic types    =            3
     number of electrons       =        36.00
     number of Kohn-Sham states=           22
     kinetic-energy cutoff     =      40.0000  Ry
     charge density cutoff     =     280.0000  Ry
     scf convergence threshold =      1.0E-06
     mixing beta               =       0.4000
     number of iterations used =            8  plain     mixing
     energy convergence thresh.=      1.0E-05
     force convergence thresh. =      5.0E-04
     Exchange-correlation= PBE
                           (   1   4   3   4   0   0   0)
     nstep                     =          100


     celldm(1)=  47.243153  celldm(2)=   0.000000  celldm(3)=   0.000000
     celldm(4)=   0.000000  celldm(5)=   0.000000  celldm(6)=   0.000000

     crystal axes: (cart. coord. in units of alat)
               a(1) = (   1.000000   0.000000   0.000000 )  
               a(2) = (   0.000000   1.000000   0.000000 )  
               a(3) = (   0.000000   0.000000   1.000000 )  

     reciprocal axes: (cart. coord. in units 2 pi/alat)
               b(1) = (  1.000000  0.000000  0.000000 )  
               b(2) = (  0.000000  1.000000  0.000000 )  
               b(3) = (  0.000000  0.000000  1.000000 )  


     PseudoPot. # 1 for N  read from file:
     /home/yongsang/Research/PSID_server_room/qe/[00]QE/qepseudo/SSSP_1.3.0_PBE_efficiency/N.pbe-n-radius_5.UPF
     MD5 check sum: 16739722b17309cd8fe442a2ace49922
     Pseudo is Ultrasoft + core correction, Zval =  5.0
     Generated using "atomic" code by A. Dal Corso  v.5.1
     Using radial grid of 1085 points,  4 beta functions with: 
                l(1) =   0
                l(2) =   0
                l(3) =   1
                l(4) =   1
     Q(r) pseudized with 0 coefficients 


     PseudoPot. # 2 for C  read from file:
     /home/yongsang/Research/PSID_server_room/qe/[00]QE/qepseudo/SSSP_1.3.0_PBE_efficiency/C.pbe-n-kjpaw_psl.1.0.0.UPF
     MD5 check sum: 5d2aebdfa2cae82b50a7e79e9516da0f
     Pseudo is Projector augmented-wave + core cor, Zval =  4.0
     Generated using "atomic" code by A. Dal Corso  v.5.1
     Shape of augmentation charge: PSQ
     Using radial grid of 1073 points,  4 beta functions with: 
                l(1) =   0
                l(2) =   0
                l(3) =   1
                l(4) =   1
     Q(r) pseudized with 0 coefficients 


     PseudoPot. # 3 for H  read from file:
     /home/yongsang/Research/PSID_server_room/qe/[00]QE/qepseudo/SSSP_1.3.0_PBE_efficiency/H.pbe-rrkjus_psl.1.0.0.UPF
     MD5 check sum: f52b6d4d1c606e5624b1dc7b2218f220
     Pseudo is Ultrasoft, Zval =  1.0
     Generated using "atomic" code by A. Dal Corso  v.5.1
     Using radial grid of  929 points,  2 beta functions with: 
                l(1) =   0
                l(2) =   0
     Q(r) pseudized with 0 coefficients 


     atomic species   valence    mass     pseudopotential
     N                 5.00    14.00674     N ( 1.00)
     C                 4.00    12.01070     C ( 1.00)
     H                 1.00     1.00794     H ( 1.00)

     No symmetry found


                                    s                        frac. trans.

      isym =  1     identity                                     

 cryst.   s( 1) = (     1          0          0      )
                  (     0          1          0      )
                  (     0          0          1      )

 cart.    s( 1) = (  1.0000000  0.0000000  0.0000000 )
                  (  0.0000000  1.0000000  0.0000000 )
                  (  0.0000000  0.0000000  1.0000000 )


     point group C_1 (1)    
     there are  1 classes
     the character table:

       E    
A      1.00

     the symmetry operations in each class and the name of the first element:

     E        1
          identity                                               

   Cartesian axes

     site n.     atom                  positions (alat units)
         1        N      tau(   1) = (  -0.0876503   0.0044069   0.0269410  )
         2        C      tau(   2) = (  -0.0329216   0.0054462   0.0123073  )
         3        C      tau(   3) = (  -0.0059505   0.0544163   0.0071171  )
         4        C      tau(   4) = (  -0.0052419  -0.0424863   0.0028861  )
         5        C      tau(   5) = (   0.0480913   0.0553713  -0.0073336  )
         6        C      tau(   6) = (   0.0487995  -0.0413894  -0.0115562  )
         7        C      tau(   7) = (   0.0754489   0.0075036  -0.0166629  )
         8        H      tau(   8) = (  -0.0267499   0.0917328   0.0142490  )
         9        H      tau(   9) = (  -0.0254893  -0.0805821   0.0067270  )
        10        H      tau(  10) = (   0.0687557   0.0932090  -0.0112978  )
        11        H      tau(  11) = (   0.0700124  -0.0784320  -0.0187865  )
        12        H      tau(  12) = (   0.1172673   0.0082975  -0.0278409  )
        13        H      tau(  13) = (  -0.1077261  -0.0313875   0.0308154  )
        14        H      tau(  14) = (  -0.1082343   0.0394290   0.0339440  )

     --------------------------------------------
     DFT-D3 Dispersion Correction (3-body terms):
     --------------------------------------------
       Reference C6 values for interpolation: 

         atom   Coordination number   C6
         H          0.912             6.05
         H          0.000            15.18
         C          0.000            98.23
         C          0.987            86.49
         C          1.998            58.72
         C          2.999            51.56
         C          3.984            36.41
         N          0.000            50.54
         N          0.994            44.25
         N          2.014            39.35
         N          2.990            31.16

       Values used:

         atom   Coordination number  R0_AB[au]  C6      C8
         N          3.063            2.478     31.26    689.57
         C          3.136            2.750     50.64   1464.73
         C          3.159            2.750     50.46   1459.32
         C          3.159            2.750     50.46   1459.32
         C          3.126            2.750     50.72   1466.77
         C          3.126            2.750     50.72   1466.77
         C          3.127            2.750     50.71   1466.61
         H          1.003            2.062      6.18     74.68
         H          1.003            2.062      6.18     74.68
         H          1.003            2.062      6.18     74.68
         H          1.003            2.062      6.18     74.68
         H          1.003            2.062      6.18     74.68
         H          1.001            2.062      6.18     74.71
         H          1.001            2.062      6.18     74.71

         Molecular C6 ( Ry / a.u.^6 ) =      4304.80


   Crystallographic axes

     site n.     atom                  positions (cryst. coord.)
         1        N      tau(   1) = ( -0.0876503  0.0044069  0.0269410  )
         2        C      tau(   2) = ( -0.0329216  0.0054462  0.0123073  )
         3        C      tau(   3) = ( -0.0059505  0.0544163  0.0071171  )
         4        C      tau(   4) = ( -0.0052419 -0.0424863  0.0028861  )
         5        C      tau(   5) = (  0.0480913  0.0553713 -0.0073336  )
         6        C      tau(   6) = (  0.0487995 -0.0413894 -0.0115562  )
         7        C      tau(   7) = (  0.0754489  0.0075036 -0.0166629  )
         8        H      tau(   8) = ( -0.0267499  0.0917328  0.0142490  )
         9        H      tau(   9) = ( -0.0254893 -0.0805821  0.0067270  )
        10        H      tau(  10) = (  0.0687557  0.0932090 -0.0112978  )
        11        H      tau(  11) = (  0.0700124 -0.0784320 -0.0187865  )
        12        H      tau(  12) = (  0.1172673  0.0082975 -0.0278409  )
        13        H      tau(  13) = ( -0.1077261 -0.0313875  0.0308154  )
        14        H      tau(  14) = ( -0.1082343  0.0394290  0.0339440  )

     number of k points=     5  Marzari-Vanderbilt smearing, width (Ry)=  0.0200
                       cart. coord. in units 2pi/alat
        k(    1) = (   0.0000000   0.0000000   0.0000000), wk =   0.2222222
        k(    2) = (   0.0000000   0.3333333   0.0000000), wk =   0.4444444
        k(    3) = (   0.3333333   0.0000000   0.0000000), wk =   0.4444444
        k(    4) = (   0.3333333   0.3333333   0.0000000), wk =   0.4444444
        k(    5) = (   0.3333333  -0.3333333   0.0000000), wk =   0.4444444

                       cryst. coord.
        k(    1) = (   0.0000000   0.0000000   0.0000000), wk =   0.2222222
        k(    2) = (   0.0000000   0.3333333   0.0000000), wk =   0.4444444
        k(    3) = (   0.3333333   0.0000000   0.0000000), wk =   0.4444444
        k(    4) = (   0.3333333   0.3333333   0.0000000), wk =   0.4444444
        k(    5) = (   0.3333333  -0.3333333   0.0000000), wk =   0.4444444

     Dense  grid:  8342671 G-vectors     FFT dimensions: ( 256, 256, 256)

     Smooth grid:  3603727 G-vectors     FFT dimensions: ( 192, 192, 192)

     Dynamical RAM for                 wfc:       5.21 MB

     Dynamical RAM for     wfc (w. buffer):      31.29 MB

     Dynamical RAM for           str. fact:      13.17 MB

     Dynamical RAM for           local pot:       0.00 MB

     Dynamical RAM for          nlocal pot:      16.59 MB

     Dynamical RAM for                qrad:       1.15 MB

     Dynamical RAM for          rho,v,vnew:      26.67 MB

     Dynamical RAM for               rhoin:       8.89 MB

     Dynamical RAM for            rho*nmix:      70.23 MB

     Dynamical RAM for           G-vectors:      17.41 MB

     Dynamical RAM for          h,s,v(r/c):       0.09 MB

     Dynamical RAM for          <psi|beta>:       0.02 MB

     Dynamical RAM for                 psi:      10.43 MB

     Dynamical RAM for                hpsi:      10.43 MB

     Dynamical RAM for                spsi:      10.43 MB

     Dynamical RAM for      wfcinit/wfcrot:      16.62 MB

     Dynamical RAM for           addusdens:     219.48 MB

     Dynamical RAM for          addusforce:     274.36 MB

     Dynamical RAM for         addusstress:     219.48 MB

     Estimated static dynamical RAM per process >     155.22 MB

     Estimated max dynamical RAM per process >     499.81 MB

     Estimated total dynamical RAM >      14.15 GB
[ga01:3598683] 28 more processes have sent help message help-mpi-btl-openib.txt / error in device init
[ga01:3598683] Set MCA parameter "orte_base_help_aggregate" to 0 to see all help / error messages

     Initial potential from superposition of free atoms

     starting charge      35.9997, renormalised to      36.0000

     negative rho (up, down):  9.103E-03 0.000E+00
     Starting wfcs are   35 randomized atomic wfcs
     Checking if some PAW data can be deallocated... 
       PAW data deallocated on   17 nodes for type:  2

     total cpu time spent up to now is       10.1 secs

     Self-consistent Calculation

     iteration #  1     ecut=    40.00 Ry     beta= 0.40
     Davidson diagonalization with overlap

---- Real-time Memory Report at c_bands before calling an iterative solver
           485 MiB given to the printing process from OS
             0 MiB allocation reported by mallinfo(arena+hblkhd)
        180096 MiB available memory on the node where the printing process lives
------------------
     ethr =  1.00E-02,  avg # of iterations =  3.0

     negative rho (up, down):  1.023E-02 0.000E+00

     total cpu time spent up to now is       20.4 secs

     total energy              =    -138.94011094 Ry
     estimated scf accuracy    <       1.72205307 Ry

     iteration #  2     ecut=    40.00 Ry     beta= 0.40
     Davidson diagonalization with overlap

---- Real-time Memory Report at c_bands before calling an iterative solver
           563 MiB given to the printing process from OS
             0 MiB allocation reported by mallinfo(arena+hblkhd)
        178887 MiB available memory on the node where the printing process lives
------------------
     ethr =  4.78E-03,  avg # of iterations =  2.0

     negative rho (up, down):  1.100E-02 0.000E+00

     total cpu time spent up to now is       29.3 secs

     total energy              =    -139.06039443 Ry
     estimated scf accuracy    <       0.18703379 Ry

     iteration #  3     ecut=    40.00 Ry     beta= 0.40
     Davidson diagonalization with overlap

---- Real-time Memory Report at c_bands before calling an iterative solver
           566 MiB given to the printing process from OS
             0 MiB allocation reported by mallinfo(arena+hblkhd)
        178779 MiB available memory on the node where the printing process lives
------------------
     ethr =  5.20E-04,  avg # of iterations = 14.2

     negative rho (up, down):  1.167E-02 0.000E+00

     total cpu time spent up to now is       40.8 secs

     total energy              =    -139.06978104 Ry
     estimated scf accuracy    <       0.03295357 Ry

     iteration #  4     ecut=    40.00 Ry     beta= 0.40
     Davidson diagonalization with overlap

---- Real-time Memory Report at c_bands before calling an iterative solver
           570 MiB given to the printing process from OS
             0 MiB allocation reported by mallinfo(arena+hblkhd)
        178657 MiB available memory on the node where the printing process lives
------------------
     ethr =  9.15E-05,  avg # of iterations =  3.6

     negative rho (up, down):  1.164E-02 0.000E+00

     total cpu time spent up to now is       50.0 secs

     total energy              =    -139.07236028 Ry
     estimated scf accuracy    <       0.00381332 Ry

     iteration #  5     ecut=    40.00 Ry     beta= 0.40
     Davidson diagonalization with overlap

---- Real-time Memory Report at c_bands before calling an iterative solver
           574 MiB given to the printing process from OS
             0 MiB allocation reported by mallinfo(arena+hblkhd)
        178543 MiB available memory on the node where the printing process lives
------------------
     ethr =  1.06E-05,  avg # of iterations =  8.0

     negative rho (up, down):  1.162E-02 0.000E+00

     total cpu time spent up to now is       59.5 secs

     total energy              =    -139.07244207 Ry
     estimated scf accuracy    <       0.00059259 Ry

     iteration #  6     ecut=    40.00 Ry     beta= 0.40
     Davidson diagonalization with overlap

---- Real-time Memory Report at c_bands before calling an iterative solver
           578 MiB given to the printing process from OS
             0 MiB allocation reported by mallinfo(arena+hblkhd)
        178436 MiB available memory on the node where the printing process lives
------------------
     ethr =  1.65E-06,  avg # of iterations =  5.0

     negative rho (up, down):  1.159E-02 0.000E+00

     total cpu time spent up to now is       70.4 secs

     total energy              =    -139.07257901 Ry
     estimated scf accuracy    <       0.00026769 Ry

     iteration #  7     ecut=    40.00 Ry     beta= 0.40
     Davidson diagonalization with overlap

---- Real-time Memory Report at c_bands before calling an iterative solver
           582 MiB given to the printing process from OS
             0 MiB allocation reported by mallinfo(arena+hblkhd)
        178323 MiB available memory on the node where the printing process lives
------------------
     ethr =  7.44E-07,  avg # of iterations =  2.0

     negative rho (up, down):  1.159E-02 0.000E+00

     total cpu time spent up to now is       79.8 secs

     total energy              =    -139.07263483 Ry
     estimated scf accuracy    <       0.00000477 Ry

     iteration #  8     ecut=    40.00 Ry     beta= 0.40
     Davidson diagonalization with overlap

---- Real-time Memory Report at c_bands before calling an iterative solver
           586 MiB given to the printing process from OS
             0 MiB allocation reported by mallinfo(arena+hblkhd)
        178208 MiB available memory on the node where the printing process lives
------------------
     ethr =  1.32E-08,  avg # of iterations =  4.0

     negative rho (up, down):  1.159E-02 0.000E+00

     total cpu time spent up to now is       89.5 secs

     total energy              =    -139.07263448 Ry
     estimated scf accuracy    <       0.00000393 Ry

     iteration #  9     ecut=    40.00 Ry     beta= 0.40
     Davidson diagonalization with overlap

---- Real-time Memory Report at c_bands before calling an iterative solver
           590 MiB given to the printing process from OS
             0 MiB allocation reported by mallinfo(arena+hblkhd)
        178093 MiB available memory on the node where the printing process lives
------------------
     ethr =  1.09E-08,  avg # of iterations =  3.0

     negative rho (up, down):  1.161E-02 0.000E+00

     total cpu time spent up to now is       99.1 secs

     End of self-consistent calculation

          k = 0.0000 0.0000 0.0000 (450991 PWs)   bands (ev):

   -22.5185 -20.5321 -18.1992 -17.7452 -14.9115 -14.5708 -12.8176 -12.4811
   -11.4839 -10.3469 -10.3329  -9.9733  -9.2079  -8.3385  -8.0507  -7.3243
    -6.0450  -4.7645  -1.0127  -0.6709  -0.5557  -0.2267

     occupation numbers 
     1.0000   1.0000   1.0000   1.0000   1.0000   1.0000   1.0000   1.0000
     1.0000   1.0000   1.0000   1.0000   1.0000   1.0000   1.0000   1.0000
     1.0000   1.0000   0.0000   0.0000   0.0000   0.0000

          k = 0.0000 0.3333 0.0000 (450515 PWs)   bands (ev):

   -22.5185 -20.5321 -18.1992 -17.7452 -14.9114 -14.5708 -12.8176 -12.4811
   -11.4838 -10.3468 -10.3328  -9.9733  -9.2079  -8.3385  -8.0507  -7.3243
    -6.0450  -4.7644  -1.0127  -0.6706  -0.5557  -0.2223

     occupation numbers 
     1.0000   1.0000   1.0000   1.0000   1.0000   1.0000   1.0000   1.0000
     1.0000   1.0000   1.0000   1.0000   1.0000   1.0000   1.0000   1.0000
     1.0000   1.0000   0.0000   0.0000   0.0000   0.0000

          k = 0.3333 0.0000 0.0000 (450515 PWs)   bands (ev):

   -22.5185 -20.5321 -18.1992 -17.7452 -14.9114 -14.5708 -12.8176 -12.4811
   -11.4838 -10.3468 -10.3328  -9.9733  -9.2079  -8.3385  -8.0507  -7.3243
    -6.0450  -4.7644  -1.0127  -0.6706  -0.5558  -0.2319

     occupation numbers 
     1.0000   1.0000   1.0000   1.0000   1.0000   1.0000   1.0000   1.0000
     1.0000   1.0000   1.0000   1.0000   1.0000   1.0000   1.0000   1.0000
     1.0000   1.0000   0.0000   0.0000   0.0000   0.0000

          k = 0.3333 0.3333 0.0000 (450333 PWs)   bands (ev):

   -22.5185 -20.5321 -18.1991 -17.7452 -14.9114 -14.5708 -12.8176 -12.4811
   -11.4838 -10.3468 -10.3328  -9.9733  -9.2079  -8.3384  -8.0507  -7.3243
    -6.0450  -4.7644  -1.0127  -0.6703  -0.5557  -0.2273

     occupation numbers 
     1.0000   1.0000   1.0000   1.0000   1.0000   1.0000   1.0000   1.0000
     1.0000   1.0000   1.0000   1.0000   1.0000   1.0000   1.0000   1.0000
     1.0000   1.0000   0.0000   0.0000   0.0000   0.0000

          k = 0.3333-0.3333 0.0000 (450333 PWs)   bands (ev):

   -22.5185 -20.5321 -18.1991 -17.7452 -14.9114 -14.5708 -12.8176 -12.4811
   -11.4838 -10.3468 -10.3328  -9.9733  -9.2079  -8.3384  -8.0507  -7.3243
    -6.0450  -4.7644  -1.0127  -0.6703  -0.5557  -0.2275

     occupation numbers 
     1.0000   1.0000   1.0000   1.0000   1.0000   1.0000   1.0000   1.0000
     1.0000   1.0000   1.0000   1.0000   1.0000   1.0000   1.0000   1.0000
     1.0000   1.0000   0.0000   0.0000   0.0000   0.0000

     the Fermi energy is    -2.7021 ev

!    total energy              =    -139.07263534 Ry
     estimated scf accuracy    <       0.00000030 Ry
     smearing contrib. (-TS)   =       0.00000000 Ry
     internal energy E=F+TS    =    -139.07263534 Ry

     The total energy is F=E-TS. E is the sum of the following terms:
     one-electron contribution =    -538.14923383 Ry
     hartree contribution      =     273.81983685 Ry
     xc contribution           =     -38.09688594 Ry
     ewald contribution        =     200.36366205 Ry
     DFT-D3 Dispersion         =      -0.00851280 Ry
     one-center paw contrib.   =     -37.00150166 Ry
      -> PAW hartree energy AE =       0.00000000 Ry
      -> PAW hartree energy PS =       0.00000000 Ry
      -> PAW xc energy AE      =       0.00000000 Ry
      -> PAW xc energy PS      =       0.00000000 Ry
      -> total E_H with PAW    =     273.81983685 Ry
      -> total E_XC with PAW   =     -38.09688594 Ry

     convergence has been achieved in   9 iterations

     negative rho (up, down):  1.161E-02 0.000E+00

     Forces acting on atoms (cartesian axes, Ry/au):

     atom    1 type  1   force =     0.01388772    0.00026554   -0.00373742
     atom    2 type  2   force =    -0.05652172   -0.00106942    0.01488881
     atom    3 type  2   force =     0.01782431   -0.00328652   -0.00475912
     atom    4 type  2   force =     0.01780532    0.00394523   -0.00439750
     atom    5 type  2   force =    -0.01491275   -0.01850658    0.00304676
     atom    6 type  2   force =    -0.01513288    0.01793567    0.00475488
     atom    7 type  2   force =    -0.00059989   -0.00001367    0.00038041
     atom    8 type  3   force =    -0.00833863    0.00909932    0.00259964
     atom    9 type  3   force =    -0.00820406   -0.00941088    0.00179396
     atom   10 type  3   force =     0.00396915    0.01052671   -0.00064176
     atom   11 type  3   force =     0.00411750   -0.01036129   -0.00155451
     atom   12 type  3   force =     0.01068261    0.00020167   -0.00287016
     atom   13 type  3   force =     0.01748156    0.03274835   -0.00331267
     atom   14 type  3   force =     0.01794176   -0.03207414   -0.00619133
     The non-local contrib.  to forces
     atom    1 type  1   force =     0.04020756    0.00075804   -0.01063979
     atom    2 type  2   force =    -0.39882716   -0.00753732    0.10651995
     atom    3 type  2   force =    -0.04421512   -0.02514797    0.01093486
     atom    4 type  2   force =    -0.04465728    0.02347708    0.01297362
     atom    5 type  2   force =    -0.02260377    0.02125906    0.00688329
     atom    6 type  2   force =    -0.02233887   -0.02205224    0.00505275
     atom    7 type  2   force =     0.00524000    0.00006799   -0.00127107
     atom    8 type  3   force =     0.03663729   -0.06831712   -0.01266868
     atom    9 type  3   force =     0.03562747    0.06968853   -0.00664640
     atom   10 type  3   force =    -0.03823532   -0.06939475    0.00735988
     atom   11 type  3   force =    -0.03924095    0.06792457    0.01334897
     atom   12 type  3   force =    -0.07636890   -0.00145064    0.02041493
     atom   13 type  3   force =     0.04610444    0.08163128   -0.00891940
     atom   14 type  3   force =     0.04726241   -0.07985798   -0.01605582
     The ionic contribution  to forces
     atom    1 type  1   force =    -8.72266921   -0.16570820    2.33393367
     atom    2 type  2   force =    -2.30339190   -0.04371904    0.61589254
     atom    3 type  2   force =    -1.79718411    6.74964328    0.76330262
     atom    4 type  2   force =    -1.69803708   -6.81595692    0.17067032
     atom    5 type  2   force =     4.07513196    6.33383217   -0.82940496
     atom    6 type  2   force =     4.16670963   -6.17732426   -1.37538689
     atom    7 type  2   force =     7.34054585    0.13943001   -1.96350056
     atom    8 type  3   force =    -1.35637877    3.21694788    0.49783330
     atom    9 type  3   force =    -1.30892717   -3.26752429    0.21472928
     atom   10 type  3   force =     1.73271350    3.01415846   -0.33923073
     atom   11 type  3   force =     1.77636224   -2.94756475   -0.59936848
     atom   12 type  3   force =     3.36023931    0.06383474   -0.89892142
     atom   13 type  3   force =    -2.61268207   -2.82394281    0.58209418
     atom   14 type  3   force =    -2.65243218    2.72389372    0.82735714
     The local contribution  to forces
     atom    1 type  1   force =     8.69674969    0.16522255   -2.32710216
     atom    2 type  2   force =     2.63622202    0.04999065   -0.70474773
     atom    3 type  2   force =     1.85779097   -6.72690816   -0.77874049
     atom    4 type  2   force =     1.75905733    6.79551620   -0.18791312
     atom    5 type  2   force =    -4.06702079   -6.37183661    0.82572352
     atom    6 type  2   force =    -4.15910741    6.21554874    1.37495480
     atom    7 type  2   force =    -7.34456097   -0.13947231    1.96443309
     atom    8 type  3   force =     1.31139879   -3.13945511   -0.48254501
     atom    9 type  3   force =     1.26509230    3.18834666   -0.20627566
     atom   10 type  3   force =    -1.69044819   -2.93417895    0.33123073
     atom   11 type  3   force =    -1.73294196    2.86922181    0.58446159
     atom   12 type  3   force =    -3.27312936   -0.06218196    0.87563635
     atom   13 type  3   force =     2.58406028    2.77496628   -0.57647497
     atom   14 type  3   force =     2.62311149   -2.67601786   -0.81747223
     The core correction contribution to forces
     atom    1 type  1   force =    -0.00053459   -0.00001034    0.00014139
     atom    2 type  2   force =     0.00944865    0.00019661   -0.00275016
     atom    3 type  2   force =     0.00132419   -0.00077769   -0.00020758
     atom    4 type  2   force =     0.00133465    0.00080785   -0.00008878
     atom    5 type  2   force =    -0.00017518   -0.00165570   -0.00020042
     atom    6 type  2   force =    -0.00014846    0.00166611    0.00007929
     atom    7 type  2   force =    -0.00157870   -0.00003473    0.00066895
     atom    8 type  3   force =     0.00000000    0.00000000    0.00000000
     atom    9 type  3   force =     0.00000000    0.00000000    0.00000000
     atom   10 type  3   force =     0.00000000    0.00000000    0.00000000
     atom   11 type  3   force =     0.00000000    0.00000000    0.00000000
     atom   12 type  3   force =     0.00000000    0.00000000    0.00000000
     atom   13 type  3   force =     0.00000000    0.00000000    0.00000000
     atom   14 type  3   force =     0.00000000    0.00000000    0.00000000
     The Hubbard contrib.    to forces
     atom    1 type  1   force =     0.00000000    0.00000000    0.00000000
     atom    2 type  2   force =     0.00000000    0.00000000    0.00000000
     atom    3 type  2   force =     0.00000000    0.00000000    0.00000000
     atom    4 type  2   force =     0.00000000    0.00000000    0.00000000
     atom    5 type  2   force =     0.00000000    0.00000000    0.00000000
     atom    6 type  2   force =     0.00000000    0.00000000    0.00000000
     atom    7 type  2   force =     0.00000000    0.00000000    0.00000000
     atom    8 type  3   force =     0.00000000    0.00000000    0.00000000
     atom    9 type  3   force =     0.00000000    0.00000000    0.00000000
     atom   10 type  3   force =     0.00000000    0.00000000    0.00000000
     atom   11 type  3   force =     0.00000000    0.00000000    0.00000000
     atom   12 type  3   force =     0.00000000    0.00000000    0.00000000
     atom   13 type  3   force =     0.00000000    0.00000000    0.00000000
     atom   14 type  3   force =     0.00000000    0.00000000    0.00000000
     The SCF correction term to forces
     atom    1 type  1   force =     0.00021024    0.00000431   -0.00007532
     atom    2 type  2   force =     0.00001390   -0.00000119   -0.00000681
     atom    3 type  2   force =     0.00009473   -0.00028141   -0.00003700
     atom    4 type  2   force =     0.00009132    0.00028462   -0.00001193
     atom    5 type  2   force =    -0.00021526   -0.00025782    0.00004658
     atom    6 type  2   force =    -0.00022029    0.00024946    0.00006948
     atom    7 type  2   force =    -0.00038573   -0.00000792    0.00010288
     atom    8 type  3   force =     0.00001191   -0.00006460   -0.00000599
     atom    9 type  3   force =     0.00001136    0.00006554   -0.00000038
     atom   10 type  3   force =    -0.00004063   -0.00005315    0.00000873
     atom   11 type  3   force =    -0.00004155    0.00005170    0.00001332
     atom   12 type  3   force =    -0.00004446   -0.00000082    0.00001177
     atom   13 type  3   force =     0.00006289    0.00007618   -0.00001474
     atom   14 type  3   force =     0.00006371   -0.00007344   -0.00002122

     DFT-D3 dispersion contribution to forces:
     atom    1 type  1   force =    -0.00006535   -0.00000124    0.00001748
     atom    2 type  2   force =     0.00002340    0.00000044   -0.00000627
     atom    3 type  2   force =     0.00002428    0.00018501    0.00000116
     atom    4 type  2   force =     0.00002700   -0.00018403   -0.00001490
     atom    5 type  2   force =    -0.00001908    0.00015190    0.00001146
     atom    6 type  2   force =    -0.00001686   -0.00015258   -0.00000184
     atom    7 type  2   force =     0.00015028    0.00000285   -0.00004017
     atom    8 type  3   force =     0.00000277   -0.00001216   -0.00000126
     atom    9 type  3   force =     0.00000260    0.00001226   -0.00000018
     atom   10 type  3   force =    -0.00000959   -0.00000532    0.00000235
     atom   11 type  3   force =    -0.00000966    0.00000496    0.00000280
     atom   12 type  3   force =    -0.00000337   -0.00000006    0.00000091
     atom   13 type  3   force =    -0.00005336    0.00001698    0.00001497
     atom   14 type  3   force =    -0.00005306   -0.00001900    0.00001350

     Total force =     0.094593     Total SCF correction =     0.000812

     DFT-D3 dispersion Force =     0.000392


     Computing stress (Cartesian axis) and pressure


     negative rho (up, down):  1.161E-02 0.000E+00
          total   stress  (Ry/bohr**3)                   (kbar)     P=       -0.14
  -0.00000155  -0.00000002   0.00000031           -0.23       -0.00        0.05
  -0.00000002  -0.00000081  -0.00000001           -0.00       -0.12       -0.00
   0.00000031  -0.00000001  -0.00000049            0.05       -0.00       -0.07

     kinetic stress (kbar)     56.12     -0.10      2.43
                               -0.10     55.24     -0.39
                                2.43     -0.39     64.51

     local   stress (kbar)   -403.62     -4.29     86.35
                               -4.29   -329.71     -9.35
                               86.35     -9.35    -98.61

     nonloc. stress (kbar)     12.98      0.01     -0.18
                                0.01     12.99      0.03
                               -0.18      0.03     12.35

     hartree stress (kbar)    179.33      1.73    -34.13
                                1.73    144.47      3.46
                              -34.13      3.46     58.21

     exc-cor stress (kbar)     -4.69      0.01     -0.12
                                0.01     -4.67      0.02
                               -0.12      0.02     -5.12

     corecor stress (kbar)     -9.94     -0.00      0.03
                               -0.00     -9.97     -0.01
                                0.03     -0.01     -9.83

     ewald   stress (kbar)    169.60      2.64    -54.34
                                2.64    131.52      6.24
                              -54.34      6.24    -21.59

     hubbard stress (kbar)      0.00      0.00      0.00
                                0.00      0.00      0.00
                                0.00      0.00      0.00

     DFT-D   stress (kbar)      0.00      0.00     -0.00
                                0.00      0.00      0.00
                               -0.00      0.00      0.00

     XDM     stress (kbar)      0.00      0.00      0.00
                                0.00      0.00      0.00
                                0.00      0.00      0.00

     dft-nl  stress (kbar)      0.00      0.00      0.00
                                0.00      0.00      0.00
                                0.00      0.00      0.00

     TS-vdW  stress (kbar)      0.00      0.00      0.00
                                0.00      0.00      0.00
                                0.00      0.00      0.00

     MDB     stress (kbar)      0.00      0.00      0.00
                                0.00      0.00      0.00
                                0.00      0.00      0.00

     3D-RISM stress (kbar)      0.00      0.00      0.00
                                0.00      0.00      0.00
                                0.00      0.00      0.00


     BFGS Geometry Optimization
     Energy error            =      0.0E+00 Ry
     Gradient error          =      5.7E-02 Ry/Bohr

     number of scf cycles    =   1
     number of bfgs steps    =   0

     energy             new  =    -139.0726353367 Ry

     new trust radius        =       0.0584595992 bohr
     new conv_thr            =       0.0000010000 Ry


ATOMIC_POSITIONS (angstrom)
N               -2.1839082156        0.1103139688        0.6715482822
C               -0.8529502249        0.1355883083        0.3155613278
C               -0.1393306522        1.3586689367        0.1754092369
C               -0.1216240984       -1.0600705933        0.0698255203
C                1.1943909488        1.3744901345       -0.1817286991
C                1.2119797490       -1.0252436497       -0.2863889835
C                1.8859054782        0.1875828283       -0.4163719966
H               -0.6731601181        2.2981352250        0.3576007377
H               -0.6415742485       -2.0195319811        0.1691231233
H                1.7209931934        2.3357957229       -0.2827848095
H                1.7524885731       -1.9662841535       -0.4704855021
H                2.9373353422        0.2075434396       -0.6975416458
H               -2.6839015954       -0.7673575877        0.7686317002
H               -2.6963631647        0.9687525725        0.8453243614



     Writing config-only to output data dir ./tmp/aniline_protonated.save/ :
     XML data file
     NEW-OLD atomic charge density approx. for the potential

     negative rho (up, down):  1.157E-02 0.000E+00

     total cpu time spent up to now is      112.9 secs

     Self-consistent Calculation

     iteration #  1     ecut=    40.00 Ry     beta= 0.40
     Davidson diagonalization with overlap

---- Real-time Memory Report at c_bands before calling an iterative solver
           594 MiB given to the printing process from OS
             0 MiB allocation reported by mallinfo(arena+hblkhd)
        180449 MiB available memory on the node where the printing process lives
------------------
     ethr =  1.00E-06,  avg # of iterations =  6.0

     negative rho (up, down):  1.162E-02 0.000E+00

     total cpu time spent up to now is      128.1 secs

     total energy              =    -139.07512318 Ry
     estimated scf accuracy    <       0.00214603 Ry

     iteration #  2     ecut=    40.00 Ry     beta= 0.40
     Davidson diagonalization with overlap

---- Real-time Memory Report at c_bands before calling an iterative solver
           594 MiB given to the printing process from OS
             0 MiB allocation reported by mallinfo(arena+hblkhd)
        178483 MiB available memory on the node where the printing process lives
------------------
     ethr =  5.96E-06,  avg # of iterations =  2.0

     negative rho (up, down):  1.165E-02 0.000E+00

     total cpu time spent up to now is      136.2 secs

     total energy              =    -139.07520339 Ry
     estimated scf accuracy    <       0.00038170 Ry

     iteration #  3     ecut=    40.00 Ry     beta= 0.40
     Davidson diagonalization with overlap

---- Real-time Memory Report at c_bands before calling an iterative solver
           594 MiB given to the printing process from OS
             0 MiB allocation reported by mallinfo(arena+hblkhd)
        178371 MiB available memory on the node where the printing process lives
------------------
     ethr =  1.06E-06,  avg # of iterations =  2.0

     negative rho (up, down):  1.167E-02 0.000E+00

     total cpu time spent up to now is      144.7 secs

     total energy              =    -139.07523155 Ry
     estimated scf accuracy    <       0.00006850 Ry

     iteration #  4     ecut=    40.00 Ry     beta= 0.40
     Davidson diagonalization with overlap

---- Real-time Memory Report at c_bands before calling an iterative solver
           594 MiB given to the printing process from OS
             0 MiB allocation reported by mallinfo(arena+hblkhd)
        178251 MiB available memory on the node where the printing process lives
------------------
     ethr =  1.90E-07,  avg # of iterations =  2.0

     negative rho (up, down):  1.167E-02 0.000E+00

     total cpu time spent up to now is      152.9 secs

     total energy              =    -139.07523966 Ry
     estimated scf accuracy    <       0.00000933 Ry

     iteration #  5     ecut=    40.00 Ry     beta= 0.40
     Davidson diagonalization with overlap

---- Real-time Memory Report at c_bands before calling an iterative solver
           594 MiB given to the printing process from OS
             0 MiB allocation reported by mallinfo(arena+hblkhd)
        178139 MiB available memory on the node where the printing process lives
------------------
     ethr =  2.59E-08,  avg # of iterations =  2.0

     negative rho (up, down):  1.168E-02 0.000E+00

     total cpu time spent up to now is      161.2 secs

     total energy              =    -139.07524055 Ry
     estimated scf accuracy    <       0.00000119 Ry

     iteration #  6     ecut=    40.00 Ry     beta= 0.40
     Davidson diagonalization with overlap

---- Real-time Memory Report at c_bands before calling an iterative solver
           594 MiB given to the printing process from OS
             0 MiB allocation reported by mallinfo(arena+hblkhd)
        178032 MiB available memory on the node where the printing process lives
------------------
     ethr =  3.32E-09,  avg # of iterations =  2.0

     negative rho (up, down):  1.168E-02 0.000E+00

     total cpu time spent up to now is      169.2 secs

     End of self-consistent calculation

          k = 0.0000 0.0000 0.0000 (450991 PWs)   bands (ev):

   -22.8938 -20.5831 -18.1708 -17.7062 -14.8372 -14.6891 -12.8547 -12.6858
   -11.5515 -10.2831 -10.2299  -9.8915  -9.2736  -8.4041  -7.8078  -7.4785
    -6.0527  -4.7264  -0.8725  -0.6865  -0.5428  -0.2246

     occupation numbers 
     1.0000   1.0000   1.0000   1.0000   1.0000   1.0000   1.0000   1.0000
     1.0000   1.0000   1.0000   1.0000   1.0000   1.0000   1.0000   1.0000
     1.0000   1.0000   0.0000   0.0000   0.0000   0.0000

          k = 0.0000 0.3333 0.0000 (450515 PWs)   bands (ev):

   -22.8938 -20.5831 -18.1708 -17.7062 -14.8372 -14.6891 -12.8546 -12.6858
   -11.5514 -10.2831 -10.2299  -9.8914  -9.2736  -8.4041  -7.8077  -7.4785
    -6.0527  -4.7264  -0.8725  -0.6863  -0.5428  -0.2200

     occupation numbers 
     1.0000   1.0000   1.0000   1.0000   1.0000   1.0000   1.0000   1.0000
     1.0000   1.0000   1.0000   1.0000   1.0000   1.0000   1.0000   1.0000
     1.0000   1.0000   0.0000   0.0000   0.0000   0.0000

          k = 0.3333 0.0000 0.0000 (450515 PWs)   bands (ev):

   -22.8938 -20.5831 -18.1708 -17.7062 -14.8372 -14.6891 -12.8546 -12.6858
   -11.5514 -10.2831 -10.2299  -9.8914  -9.2736  -8.4040  -7.8077  -7.4785
    -6.0527  -4.7264  -0.8725  -0.6863  -0.5428  -0.2299

     occupation numbers 
     1.0000   1.0000   1.0000   1.0000   1.0000   1.0000   1.0000   1.0000
     1.0000   1.0000   1.0000   1.0000   1.0000   1.0000   1.0000   1.0000
     1.0000   1.0000   0.0000   0.0000   0.0000   0.0000

          k = 0.3333 0.3333 0.0000 (450333 PWs)   bands (ev):

   -22.8938 -20.5830 -18.1708 -17.7062 -14.8372 -14.6891 -12.8546 -12.6858
   -11.5514 -10.2831 -10.2299  -9.8914  -9.2736  -8.4040  -7.8077  -7.4785
    -6.0527  -4.7264  -0.8725  -0.6860  -0.5428  -0.2254

     occupation numbers 
     1.0000   1.0000   1.0000   1.0000   1.0000   1.0000   1.0000   1.0000
     1.0000   1.0000   1.0000   1.0000   1.0000   1.0000   1.0000   1.0000
     1.0000   1.0000   0.0000   0.0000   0.0000   0.0000

          k = 0.3333-0.3333 0.0000 (450333 PWs)   bands (ev):

   -22.8938 -20.5830 -18.1708 -17.7062 -14.8372 -14.6891 -12.8546 -12.6858
   -11.5514 -10.2831 -10.2299  -9.8914  -9.2736  -8.4040  -7.8077  -7.4785
    -6.0527  -4.7264  -0.8725  -0.6860  -0.5428  -0.2254

     occupation numbers 
     1.0000   1.0000   1.0000   1.0000   1.0000   1.0000   1.0000   1.0000
     1.0000   1.0000   1.0000   1.0000   1.0000   1.0000   1.0000   1.0000
     1.0000   1.0000   0.0000   0.0000   0.0000   0.0000

     the Fermi energy is    -2.7707 ev

!    total energy              =    -139.07524063 Ry
     estimated scf accuracy    <       0.00000012 Ry
     smearing contrib. (-TS)   =       0.00000000 Ry
     internal energy E=F+TS    =    -139.07524063 Ry

     The total energy is F=E-TS. E is the sum of the following terms:
     one-electron contribution =    -539.22417330 Ry
     hartree contribution      =     274.34380381 Ry
     xc contribution           =     -38.12199980 Ry
     ewald contribution        =     200.93671913 Ry
     DFT-D3 Dispersion         =      -0.00850621 Ry
     one-center paw contrib.   =     -37.00108427 Ry
      -> PAW hartree energy AE =       0.00000000 Ry
      -> PAW hartree energy PS =       0.00000000 Ry
      -> PAW xc energy AE      =       0.00000000 Ry
      -> PAW xc energy PS      =       0.00000000 Ry
      -> total E_H with PAW    =     274.34380381 Ry
      -> total E_XC with PAW   =     -38.12199980 Ry

     convergence has been achieved in   6 iterations

     negative rho (up, down):  1.168E-02 0.000E+00

     Forces acting on atoms (cartesian axes, Ry/au):

     atom    1 type  1   force =    -0.00395227   -0.00007606    0.00103452
     atom    2 type  2   force =     0.02934597    0.00055802   -0.00806424
     atom    3 type  2   force =    -0.03943848   -0.00563311    0.01042982
     atom    4 type  2   force =    -0.03941934    0.00411451    0.01088027
     atom    5 type  2   force =     0.01999348    0.01194291   -0.00495563
     atom    6 type  2   force =     0.02025601   -0.01116304   -0.00591803
     atom    7 type  2   force =     0.00960604    0.00016840   -0.00242721
     atom    8 type  3   force =     0.00255200   -0.00186432   -0.00075803
     atom    9 type  3   force =     0.00252862    0.00196896   -0.00058787
     atom   10 type  3   force =    -0.00746318   -0.00895285    0.00161259
     atom   11 type  3   force =    -0.00758856    0.00867114    0.00238880
     atom   12 type  3   force =     0.00186335    0.00003731   -0.00049250
     atom   13 type  3   force =     0.00579698    0.00896273   -0.00117101
     atom   14 type  3   force =     0.00591937   -0.00873460   -0.00197149
     The non-local contrib.  to forces
     atom    1 type  1   force =     0.03812789    0.00072144   -0.01026044
     atom    2 type  2   force =    -0.32936813   -0.00623491    0.08808675
     atom    3 type  2   force =    -0.10508908   -0.02699678    0.02696422
     atom    4 type  2   force =    -0.10553705    0.02302315    0.02905951
     atom    5 type  2   force =     0.00897509    0.05759415    0.00007586
     atom    6 type  2   force =     0.00978208   -0.05719985   -0.00491261
     atom    7 type  2   force =     0.01548437    0.00024451   -0.00419144
     atom    8 type  3   force =     0.03601582   -0.06529533   -0.01236943
     atom    9 type  3   force =     0.03505100    0.06664213   -0.00661016
     atom   10 type  3   force =    -0.03646771   -0.06579084    0.00702951
     atom   11 type  3   force =    -0.03742126    0.06439220    0.01271297
     atom   12 type  3   force =    -0.07504726   -0.00142545    0.02007109
     atom   13 type  3   force =     0.04927761    0.08571436   -0.00959926
     atom   14 type  3   force =     0.05049366   -0.08381914   -0.01709078
     The ionic contribution  to forces
     atom    1 type  1   force =    -8.93141836   -0.16967866    2.38997959
     atom    2 type  2   force =    -1.98839205   -0.03769584    0.52961039
     atom    3 type  2   force =    -1.89962420    6.68233464    0.78947667
     atom    4 type  2   force =    -1.80139583   -6.75268295    0.20266748
     atom    5 type  2   force =     4.17399375    6.38773625   -0.85530489
     atom    6 type  2   force =     4.26657323   -6.22727757   -1.40516236
     atom    7 type  2   force =     7.44961315    0.14143132   -1.99105698
     atom    8 type  3   force =    -1.34062516    3.17115215    0.49157803
     atom    9 type  3   force =    -1.29386933   -3.22110891    0.21244459
     atom   10 type  3   force =     1.70401656    2.95533991   -0.33388652
     atom   11 type  3   force =     1.74680864   -2.88990370   -0.58906463
     atom   12 type  3   force =     3.33613050    0.06338097   -0.89267949
     atom   13 type  3   force =    -2.69048546   -2.90063510    0.59975835
     atom   14 type  3   force =    -2.73132545    2.79760750    0.85163977
     The local contribution  to forces
     atom    1 type  1   force =     8.88960196    0.16888421   -2.37875037
     atom    2 type  2   force =     2.34054460    0.04435033   -0.62365051
     atom    3 type  2   force =     1.96231853   -6.66067427   -0.80539199
     atom    4 type  2   force =     1.86446553    6.73338956   -0.22028457
     atom    5 type  2   force =    -4.16159458   -6.43088660    0.85020445
     atom    6 type  2   force =    -4.25479587    6.27086364    1.40378469
     atom    7 type  2   force =    -7.45355812   -0.14146854    1.99206426
     atom    8 type  3   force =     1.30713970   -3.10773600   -0.47995750
     atom    9 type  3   force =     1.26132509    3.15644530   -0.20641215
     atom   10 type  3   force =    -1.67501991   -2.89852709    0.32847471
     atom   11 type  3   force =    -1.71698415    2.83420306    0.57874749
     atom   12 type  3   force =    -3.25927543   -0.06192155    0.87213454
     atom   13 type  3   force =     2.64699395    2.82382323   -0.59132570
     atom   14 type  3   force =     2.68673936   -2.72246769   -0.83651110
     The core correction contribution to forces
     atom    1 type  1   force =    -0.00036749   -0.00000740    0.00009755
     atom    2 type  2   force =     0.00676649    0.00013988   -0.00216134
     atom    3 type  2   force =     0.00295038   -0.00052625   -0.00062287
     atom    4 type  2   force =     0.00303872    0.00060950   -0.00054640
     atom    5 type  2   force =    -0.00128345   -0.00265716    0.00004049
     atom    6 type  2   force =    -0.00120847    0.00260595    0.00035733
     atom    7 type  2   force =    -0.00209762   -0.00004431    0.00080444
     atom    8 type  3   force =     0.00000000    0.00000000    0.00000000
     atom    9 type  3   force =     0.00000000    0.00000000    0.00000000
     atom   10 type  3   force =     0.00000000    0.00000000    0.00000000
     atom   11 type  3   force =     0.00000000    0.00000000    0.00000000
     atom   12 type  3   force =     0.00000000    0.00000000    0.00000000
     atom   13 type  3   force =     0.00000000    0.00000000    0.00000000
     atom   14 type  3   force =     0.00000000    0.00000000    0.00000000
     The Hubbard contrib.    to forces
     atom    1 type  1   force =     0.00000000    0.00000000    0.00000000
     atom    2 type  2   force =     0.00000000    0.00000000    0.00000000
     atom    3 type  2   force =     0.00000000    0.00000000    0.00000000
     atom    4 type  2   force =     0.00000000    0.00000000    0.00000000
     atom    5 type  2   force =     0.00000000    0.00000000    0.00000000
     atom    6 type  2   force =     0.00000000    0.00000000    0.00000000
     atom    7 type  2   force =     0.00000000    0.00000000    0.00000000
     atom    8 type  3   force =     0.00000000    0.00000000    0.00000000
     atom    9 type  3   force =     0.00000000    0.00000000    0.00000000
     atom   10 type  3   force =     0.00000000    0.00000000    0.00000000
     atom   11 type  3   force =     0.00000000    0.00000000    0.00000000
     atom   12 type  3   force =     0.00000000    0.00000000    0.00000000
     atom   13 type  3   force =     0.00000000    0.00000000    0.00000000
     atom   14 type  3   force =     0.00000000    0.00000000    0.00000000
     The SCF correction term to forces
     atom    1 type  1   force =     0.00015448    0.00000303   -0.00004151
     atom    2 type  2   force =    -0.00020667   -0.00000374    0.00005484
     atom    3 type  2   force =    -0.00004279    0.00004622    0.00001316
     atom    4 type  2   force =    -0.00004203   -0.00004785    0.00000928
     atom    5 type  2   force =    -0.00008988    0.00001207    0.00002441
     atom    6 type  2   force =    -0.00008959   -0.00001531    0.00002327
     atom    7 type  2   force =    -0.00000690   -0.00000009    0.00000209
     atom    8 type  3   force =    -0.00000471    0.00001580    0.00000191
     atom    9 type  3   force =    -0.00000444   -0.00001602    0.00000057
     atom   10 type  3   force =     0.00000221    0.00002664    0.00000043
     atom   11 type  3   force =     0.00000261   -0.00002664   -0.00000183
     atom   12 type  3   force =     0.00003348    0.00000066   -0.00000890
     atom   13 type  3   force =     0.00002588    0.00002437   -0.00000593
     atom   14 type  3   force =     0.00002627   -0.00002338   -0.00000803

     DFT-D3 dispersion contribution to forces:
     atom    1 type  1   force =    -0.00006973   -0.00000132    0.00001864
     atom    2 type  2   force =    -0.00001727   -0.00000033    0.00000456
     atom    3 type  2   force =     0.00002968    0.00018070   -0.00000045
     atom    4 type  2   force =     0.00003234   -0.00017953   -0.00001611
     atom    5 type  2   force =    -0.00002645    0.00014157    0.00001298
     atom    6 type  2   force =    -0.00002436   -0.00014254    0.00000059
     atom    7 type  2   force =     0.00015217    0.00000289   -0.00004065
     atom    8 type  3   force =     0.00000736   -0.00000356   -0.00000212
     atom    9 type  3   force =     0.00000731    0.00000384   -0.00000178
     atom   10 type  3   force =    -0.00001332   -0.00000409    0.00000338
     atom   11 type  3   force =    -0.00001338    0.00000359    0.00000372
     atom   12 type  3   force =     0.00000308    0.00000006   -0.00000080
     atom   13 type  3   force =    -0.00003398    0.00003324    0.00001046
     atom   14 type  3   force =    -0.00003346   -0.00003452    0.00000759

     Total force =     0.078075     Total SCF correction =     0.000321

     DFT-D3 dispersion Force =     0.000380


     Computing stress (Cartesian axis) and pressure


     negative rho (up, down):  1.168E-02 0.000E+00
          total   stress  (Ry/bohr**3)                   (kbar)     P=       -0.09
  -0.00000029   0.00000001  -0.00000003           -0.04        0.00       -0.00
   0.00000001  -0.00000117  -0.00000003            0.00       -0.17       -0.01
  -0.00000003  -0.00000003  -0.00000038           -0.00       -0.01       -0.06

     kinetic stress (kbar)     56.01     -0.11      2.48
                               -0.11     55.52     -0.38
                                2.48     -0.38     64.59

     local   stress (kbar)   -405.95     -4.33     86.90
                               -4.33   -328.56     -9.28
                               86.90     -9.28    -99.03

     nonloc. stress (kbar)     13.05      0.01     -0.20
                                0.01     12.94      0.02
                               -0.20      0.02     12.35

     hartree stress (kbar)    179.84      1.74    -34.21
                                1.74    144.46      3.45
                              -34.21      3.45     58.44

     exc-cor stress (kbar)     -4.69      0.01     -0.13
                                0.01     -4.69      0.02
                               -0.13      0.02     -5.13

     corecor stress (kbar)     -9.95     -0.00      0.04
                               -0.00     -9.96     -0.01
                                0.04     -0.01     -9.83

     ewald   stress (kbar)    171.66      2.69    -54.88
                                2.69    130.12      6.17
                              -54.88      6.17    -21.45

     hubbard stress (kbar)      0.00      0.00      0.00
                                0.00      0.00      0.00
                                0.00      0.00      0.00

     DFT-D   stress (kbar)      0.00      0.00     -0.00
                                0.00      0.00      0.00
                               -0.00      0.00      0.00

     XDM     stress (kbar)      0.00      0.00      0.00
                                0.00      0.00      0.00
                                0.00      0.00      0.00

     dft-nl  stress (kbar)      0.00      0.00      0.00
                                0.00      0.00      0.00
                                0.00      0.00      0.00

     TS-vdW  stress (kbar)      0.00      0.00      0.00
                                0.00      0.00      0.00
                                0.00      0.00      0.00

     MDB     stress (kbar)      0.00      0.00      0.00
                                0.00      0.00      0.00
                                0.00      0.00      0.00

     3D-RISM stress (kbar)      0.00      0.00      0.00
                                0.00      0.00      0.00
                                0.00      0.00      0.00

     Energy error            =      2.6E-03 Ry
     Gradient error          =      3.9E-02 Ry/Bohr

     number of scf cycles    =   2
     number of bfgs steps    =   1

     energy             old  =    -139.0726353367 Ry
     energy             new  =    -139.0752406319 Ry

     CASE: energy            _new < energy            _old

     new trust radius        =       0.0244768636 bohr
     new conv_thr            =       0.0000007888 Ry


ATOMIC_POSITIONS (angstrom)
N               -2.1836101315        0.1103194885        0.6714573322
C               -0.8492736918        0.1356588943        0.3144697058
C               -0.1516201302        1.3561763635        0.1786535573
C               -0.1339089214       -1.0580547259        0.0732816486
C                1.1998783215        1.3765546779       -0.1831709158
C                1.2175361015       -1.0270927893       -0.2879701638
C                1.8893717742        0.1876431952       -0.4172189192
H               -0.6732731179        2.2985979528        0.3576498239
H               -0.6416788607       -2.0199955044        0.1691331143
H                1.7187429375        2.3338250576       -0.2822713050
H                1.7502108365       -1.9643964556       -0.4698011518
H                2.9393727402        0.2075826891       -0.6980860451
H               -2.6795543099       -0.7599132092        0.7677811728
H               -2.6919125814        0.9614775367        0.8438147990



     Writing config-only to output data dir ./tmp/aniline_protonated.save/ :
     XML data file
     NEW-OLD atomic charge density approx. for the potential

     negative rho (up, down):  1.169E-02 0.000E+00

     total cpu time spent up to now is      183.0 secs

     Self-consistent Calculation

     iteration #  1     ecut=    40.00 Ry     beta= 0.40
     Davidson diagonalization with overlap

---- Real-time Memory Report at c_bands before calling an iterative solver
           594 MiB given to the printing process from OS
             0 MiB allocation reported by mallinfo(arena+hblkhd)
        180245 MiB available memory on the node where the printing process lives
------------------
     ethr =  1.00E-06,  avg # of iterations =  5.0

     negative rho (up, down):  1.170E-02 0.000E+00

     total cpu time spent up to now is      195.8 secs

     total energy              =    -139.07646083 Ry
     estimated scf accuracy    <       0.00100111 Ry

     iteration #  2     ecut=    40.00 Ry     beta= 0.40
     Davidson diagonalization with overlap

---- Real-time Memory Report at c_bands before calling an iterative solver
           594 MiB given to the printing process from OS
             0 MiB allocation reported by mallinfo(arena+hblkhd)
        178471 MiB available memory on the node where the printing process lives
------------------
     ethr =  2.78E-06,  avg # of iterations =  2.0

     negative rho (up, down):  1.170E-02 0.000E+00

     total cpu time spent up to now is      205.0 secs

     total energy              =    -139.07665342 Ry
     estimated scf accuracy    <       0.00014943 Ry

     iteration #  3     ecut=    40.00 Ry     beta= 0.40
     Davidson diagonalization with overlap

---- Real-time Memory Report at c_bands before calling an iterative solver
           594 MiB given to the printing process from OS
             0 MiB allocation reported by mallinfo(arena+hblkhd)
        178366 MiB available memory on the node where the printing process lives
------------------
     ethr =  4.15E-07,  avg # of iterations =  2.0

     negative rho (up, down):  1.170E-02 0.000E+00

     total cpu time spent up to now is      213.0 secs

     total energy              =    -139.07666445 Ry
     estimated scf accuracy    <       0.00003075 Ry

     iteration #  4     ecut=    40.00 Ry     beta= 0.40
     Davidson diagonalization with overlap

---- Real-time Memory Report at c_bands before calling an iterative solver
           594 MiB given to the printing process from OS
             0 MiB allocation reported by mallinfo(arena+hblkhd)
        178254 MiB available memory on the node where the printing process lives
------------------
     ethr =  8.54E-08,  avg # of iterations =  2.0

     negative rho (up, down):  1.171E-02 0.000E+00

     total cpu time spent up to now is      221.1 secs

     total energy              =    -139.07666684 Ry
     estimated scf accuracy    <       0.00000457 Ry

     iteration #  5     ecut=    40.00 Ry     beta= 0.40
     Davidson diagonalization with overlap

---- Real-time Memory Report at c_bands before calling an iterative solver
           594 MiB given to the printing process from OS
             0 MiB allocation reported by mallinfo(arena+hblkhd)
        178137 MiB available memory on the node where the printing process lives
------------------
     ethr =  1.27E-08,  avg # of iterations =  2.0

     negative rho (up, down):  1.171E-02 0.000E+00

     total cpu time spent up to now is      230.1 secs

     End of self-consistent calculation

          k = 0.0000 0.0000 0.0000 (450991 PWs)   bands (ev):

   -22.8959 -20.5455 -18.1145 -17.7703 -14.9044 -14.6545 -12.8645 -12.7016
   -11.5445 -10.3181 -10.2839  -9.8703  -9.2681  -8.3533  -7.9324  -7.4503
    -5.9917  -4.7606  -0.9723  -0.6583  -0.5168  -0.2185

     occupation numbers 
     1.0000   1.0000   1.0000   1.0000   1.0000   1.0000   1.0000   1.0000
     1.0000   1.0000   1.0000   1.0000   1.0000   1.0000   1.0000   1.0000
     1.0000   1.0000   0.0000   0.0000   0.0000   0.0000

          k = 0.0000 0.3333 0.0000 (450515 PWs)   bands (ev):

   -22.8959 -20.5455 -18.1145 -17.7703 -14.9044 -14.6545 -12.8645 -12.7015
   -11.5445 -10.3181 -10.2839  -9.8703  -9.2681  -8.3533  -7.9323  -7.4503
    -5.9917  -4.7606  -0.9723  -0.6580  -0.5168  -0.2138

     occupation numbers 
     1.0000   1.0000   1.0000   1.0000   1.0000   1.0000   1.0000   1.0000
     1.0000   1.0000   1.0000   1.0000   1.0000   1.0000   1.0000   1.0000
     1.0000   1.0000   0.0000   0.0000   0.0000   0.0000

          k = 0.3333 0.0000 0.0000 (450515 PWs)   bands (ev):

   -22.8959 -20.5455 -18.1145 -17.7703 -14.9044 -14.6545 -12.8645 -12.7015
   -11.5445 -10.3181 -10.2839  -9.8703  -9.2681  -8.3533  -7.9323  -7.4503
    -5.9917  -4.7606  -0.9723  -0.6580  -0.5169  -0.2244

     occupation numbers 
     1.0000   1.0000   1.0000   1.0000   1.0000   1.0000   1.0000   1.0000
     1.0000   1.0000   1.0000   1.0000   1.0000   1.0000   1.0000   1.0000
     1.0000   1.0000   0.0000   0.0000   0.0000   0.0000

          k = 0.3333 0.3333 0.0000 (450333 PWs)   bands (ev):

   -22.8959 -20.5455 -18.1145 -17.7703 -14.9043 -14.6545 -12.8645 -12.7015
   -11.5445 -10.3181 -10.2839  -9.8703  -9.2681  -8.3532  -7.9323  -7.4503
    -5.9917  -4.7606  -0.9723  -0.6577  -0.5168  -0.2197

     occupation numbers 
     1.0000   1.0000   1.0000   1.0000   1.0000   1.0000   1.0000   1.0000
     1.0000   1.0000   1.0000   1.0000   1.0000   1.0000   1.0000   1.0000
     1.0000   1.0000   0.0000   0.0000   0.0000   0.0000

          k = 0.3333-0.3333 0.0000 (450333 PWs)   bands (ev):

   -22.8959 -20.5455 -18.1145 -17.7703 -14.9043 -14.6545 -12.8645 -12.7015
   -11.5445 -10.3181 -10.2839  -9.8703  -9.2681  -8.3532  -7.9323  -7.4503
    -5.9917  -4.7606  -0.9723  -0.6577  -0.5168  -0.2198

     occupation numbers 
     1.0000   1.0000   1.0000   1.0000   1.0000   1.0000   1.0000   1.0000
     1.0000   1.0000   1.0000   1.0000   1.0000   1.0000   1.0000   1.0000
     1.0000   1.0000   0.0000   0.0000   0.0000   0.0000

     the Fermi energy is    -2.7660 ev

!    total energy              =    -139.07666725 Ry
     estimated scf accuracy    <       0.00000064 Ry
     smearing contrib. (-TS)   =       0.00000000 Ry
     internal energy E=F+TS    =    -139.07666725 Ry

     The total energy is F=E-TS. E is the sum of the following terms:
     one-electron contribution =    -539.09404991 Ry
     hartree contribution      =     274.27655332 Ry
     xc contribution           =     -38.13019228 Ry
     ewald contribution        =     200.88005259 Ry
     DFT-D3 Dispersion         =      -0.00850487 Ry
     one-center paw contrib.   =     -37.00052611 Ry
      -> PAW hartree energy AE =       0.00000000 Ry
      -> PAW hartree energy PS =       0.00000000 Ry
      -> PAW xc energy AE      =       0.00000000 Ry
      -> PAW xc energy PS      =       0.00000000 Ry
      -> total E_H with PAW    =     274.27655332 Ry
      -> total E_XC with PAW   =     -38.13019228 Ry

     convergence has been achieved in   5 iterations

     negative rho (up, down):  1.171E-02 0.000E+00

     Forces acting on atoms (cartesian axes, Ry/au):

     atom    1 type  1   force =     0.00989393    0.00018408   -0.00268775
     atom    2 type  2   force =     0.00689863    0.00012530   -0.00195985
     atom    3 type  2   force =     0.00418171    0.00150049   -0.00105517
     atom    4 type  2   force =     0.00415614   -0.00134075   -0.00110939
     atom    5 type  2   force =    -0.01142234    0.00126360    0.00309910
     atom    6 type  2   force =    -0.01138603   -0.00169622    0.00303133
     atom    7 type  2   force =     0.00538677    0.00011234   -0.00135898
     atom    8 type  3   force =    -0.00163098    0.00032416    0.00045592
     atom    9 type  3   force =    -0.00160928   -0.00037531    0.00042773
     atom   10 type  3   force =    -0.00318779   -0.00148440    0.00077134
     atom   11 type  3   force =    -0.00318883    0.00134985    0.00090344
     atom   12 type  3   force =     0.00406444    0.00007963   -0.00107732
     atom   13 type  3   force =    -0.00105096   -0.00373860    0.00012582
     atom   14 type  3   force =    -0.00110542    0.00369582    0.00043378
     The non-local contrib.  to forces
     atom    1 type  1   force =     0.04635604    0.00088237   -0.01264766
     atom    2 type  2   force =    -0.34422815   -0.00652510    0.09218721
     atom    3 type  2   force =    -0.05923286   -0.01909887    0.01483345
     atom    4 type  2   force =    -0.05965025    0.01689927    0.01634949
     atom    5 type  2   force =    -0.02104556    0.04432975    0.00767638
     atom    6 type  2   force =    -0.02050485   -0.04509460    0.00381428
     atom    7 type  2   force =     0.01285652    0.00022173   -0.00360028
     atom    8 type  3   force =     0.03550969   -0.06661904   -0.01228498
     atom    9 type  3   force =     0.03452773    0.06794275   -0.00640979
     atom   10 type  3   force =    -0.03690242   -0.06739442    0.00707524
     atom   11 type  3   force =    -0.03787781    0.06598305    0.01290111
     atom   12 type  3   force =    -0.07536123   -0.00143171    0.02016109
     atom   13 type  3   force =     0.05067292    0.08804536   -0.00987680
     atom   14 type  3   force =     0.05192178   -0.08609563   -0.01757100
     The ionic contribution  to forces
     atom    1 type  1   force =    -8.87894114   -0.16870620    2.37618044
     atom    2 type  2   force =    -2.00698979   -0.03813028    0.53275517
     atom    3 type  2   force =    -1.76018595    6.72566535    0.75493573
     atom    4 type  2   force =    -1.66129002   -6.79077033    0.16473758
     atom    5 type  2   force =     4.05527837    6.36194880   -0.82551844
     atom    6 type  2   force =     4.14763446   -6.20595496   -1.37295710
     atom    7 type  2   force =     7.40574055    0.14073750   -1.97827030
     atom    8 type  3   force =    -1.32824881    3.19196168    0.48906334
     atom    9 type  3   force =    -1.28122418   -3.24138538    0.20809922
     atom   10 type  3   force =     1.70481763    2.97962987   -0.33303220
     atom   11 type  3   force =     1.74794926   -2.91423576   -0.59039753
     atom   12 type  3   force =     3.33940028    0.06346478   -0.89368018
     atom   13 type  3   force =    -2.72125371   -2.94253865    0.60629192
     atom   14 type  3   force =    -2.76268694    2.83831356    0.86179234
     The local contribution  to forces
     atom    1 type  1   force =     8.84376703    0.16803242   -2.36655966
     atom    2 type  2   force =     2.35015706    0.04460850   -0.62443052
     atom    3 type  2   force =     1.82169617   -6.70457832   -0.77046502
     atom    4 type  2   force =     1.72321135    6.77198574   -0.18194321
     atom    5 type  2   force =    -4.04531764   -6.40315183    0.82111007
     atom    6 type  2   force =    -4.13823208    6.24749809    1.37207693
     atom    7 type  2   force =    -7.41124414   -0.14080358    1.97974903
     atom    8 type  3   force =     1.29105694   -3.12497289   -0.47630069
     atom    9 type  3   force =     1.24503664    3.17301873   -0.20124423
     atom   10 type  3   force =    -1.67109091   -2.91367023    0.32673341
     atom   11 type  3   force =    -1.71324758    2.84955236    0.57840046
     atom   12 type  3   force =    -3.26004219   -0.06195520    0.87246579
     atom   13 type  3   force =     2.66967387    2.85080834   -0.59631946
     atom   14 type  3   force =     2.70980453   -2.74857137   -0.84382239
     The core correction contribution to forces
     atom    1 type  1   force =    -0.00056125   -0.00001117    0.00015097
     atom    2 type  2   force =     0.00730262    0.00015902   -0.00229027
     atom    3 type  2   force =     0.00168342   -0.00079197   -0.00030654
     atom    4 type  2   force =     0.00165966    0.00083931   -0.00017547
     atom    5 type  2   force =    -0.00023982   -0.00229411   -0.00020711
     atom    6 type  2   force =    -0.00019270    0.00228866    0.00009553
     atom    7 type  2   force =    -0.00200719   -0.00004457    0.00077854
     atom    8 type  3   force =     0.00000000    0.00000000    0.00000000
     atom    9 type  3   force =     0.00000000    0.00000000    0.00000000
     atom   10 type  3   force =     0.00000000    0.00000000    0.00000000
     atom   11 type  3   force =     0.00000000    0.00000000    0.00000000
     atom   12 type  3   force =     0.00000000    0.00000000    0.00000000
     atom   13 type  3   force =     0.00000000    0.00000000    0.00000000
     atom   14 type  3   force =     0.00000000    0.00000000    0.00000000
     The Hubbard contrib.    to forces
     atom    1 type  1   force =     0.00000000    0.00000000    0.00000000
     atom    2 type  2   force =     0.00000000    0.00000000    0.00000000
     atom    3 type  2   force =     0.00000000    0.00000000    0.00000000
     atom    4 type  2   force =     0.00000000    0.00000000    0.00000000
     atom    5 type  2   force =     0.00000000    0.00000000    0.00000000
     atom    6 type  2   force =     0.00000000    0.00000000    0.00000000
     atom    7 type  2   force =     0.00000000    0.00000000    0.00000000
     atom    8 type  3   force =     0.00000000    0.00000000    0.00000000
     atom    9 type  3   force =     0.00000000    0.00000000    0.00000000
     atom   10 type  3   force =     0.00000000    0.00000000    0.00000000
     atom   11 type  3   force =     0.00000000    0.00000000    0.00000000
     atom   12 type  3   force =     0.00000000    0.00000000    0.00000000
     atom   13 type  3   force =     0.00000000    0.00000000    0.00000000
     atom   14 type  3   force =     0.00000000    0.00000000    0.00000000
     The SCF correction term to forces
     atom    1 type  1   force =    -0.00067409   -0.00001287    0.00018028
     atom    2 type  2   force =     0.00066708    0.00001282   -0.00017787
     atom    3 type  2   force =     0.00017707    0.00012150   -0.00004241
     atom    4 type  2   force =     0.00017886   -0.00011470   -0.00005164
     atom    5 type  2   force =    -0.00008589    0.00028625    0.00003526
     atom    6 type  2   force =    -0.00008124   -0.00028930    0.00001134
     atom    7 type  2   force =    -0.00012172   -0.00000236    0.00003368
     atom    8 type  3   force =     0.00003791   -0.00004234   -0.00001184
     atom    9 type  3   force =     0.00003731    0.00004381   -0.00000794
     atom   10 type  3   force =    -0.00001135   -0.00004556    0.00000112
     atom   11 type  3   force =    -0.00001189    0.00004510    0.00000522
     atom   12 type  3   force =     0.00005981    0.00000108   -0.00001577
     atom   13 type  3   force =    -0.00010588   -0.00009317    0.00002454
     atom   14 type  3   force =    -0.00010719    0.00008918    0.00003257

     DFT-D3 dispersion contribution to forces:
     atom    1 type  1   force =    -0.00006165   -0.00000116    0.00001647
     atom    2 type  2   force =    -0.00001917   -0.00000037    0.00000503
     atom    3 type  2   force =     0.00003487    0.00018211   -0.00000177
     atom    4 type  2   force =     0.00003755   -0.00018074   -0.00001754
     atom    5 type  2   force =    -0.00002077    0.00014405    0.00001155
     atom    6 type  2   force =    -0.00001861   -0.00014480   -0.00000105
     atom    7 type  2   force =     0.00015376    0.00000292   -0.00004105
     atom    8 type  3   force =     0.00000429   -0.00000394   -0.00000130
     atom    9 type  3   force =     0.00000422    0.00000409   -0.00000094
     atom   10 type  3   force =    -0.00000972   -0.00000476    0.00000238
     atom   11 type  3   force =    -0.00000980    0.00000440    0.00000278
     atom   12 type  3   force =    -0.00000122   -0.00000003    0.00000035
     atom   13 type  3   force =    -0.00004716    0.00003883    0.00001423
     atom   14 type  3   force =    -0.00004659   -0.00004061    0.00001086

     Total force =     0.024321     Total SCF correction =     0.001146

     DFT-D3 dispersion Force =     0.000387


     Computing stress (Cartesian axis) and pressure


     negative rho (up, down):  1.171E-02 0.000E+00
          total   stress  (Ry/bohr**3)                   (kbar)     P=       -0.08
  -0.00000104  -0.00000001   0.00000018           -0.15       -0.00        0.03
  -0.00000001  -0.00000019   0.00000001           -0.00       -0.03        0.00
   0.00000018   0.00000001  -0.00000044            0.03        0.00       -0.06

     kinetic stress (kbar)     56.09     -0.10      2.46
                               -0.10     55.48     -0.38
                                2.46     -0.38     64.60

     local   stress (kbar)   -405.42     -4.32     86.76
                               -4.32   -328.99     -9.30
                               86.76     -9.30    -98.97

     nonloc. stress (kbar)     13.01      0.01     -0.19
                                0.01     12.97      0.03
                               -0.19      0.03     12.34

     hartree stress (kbar)    179.84      1.74    -34.21
                                1.74    144.39      3.45
                              -34.21      3.45     58.42

     exc-cor stress (kbar)     -4.70      0.01     -0.12
                                0.01     -4.69      0.02
                               -0.12      0.02     -5.14

     corecor stress (kbar)     -9.95     -0.00      0.03
                               -0.00     -9.96     -0.01
                                0.03     -0.01     -9.83

     ewald   stress (kbar)    170.97      2.67    -54.70
                                2.67    130.78      6.20
                              -54.70      6.20    -21.50

     hubbard stress (kbar)      0.00      0.00      0.00
                                0.00      0.00      0.00
                                0.00      0.00      0.00

     DFT-D   stress (kbar)      0.00      0.00     -0.00
                                0.00      0.00      0.00
                               -0.00      0.00      0.00

     XDM     stress (kbar)      0.00      0.00      0.00
                                0.00      0.00      0.00
                                0.00      0.00      0.00

     dft-nl  stress (kbar)      0.00      0.00      0.00
                                0.00      0.00      0.00
                                0.00      0.00      0.00

     TS-vdW  stress (kbar)      0.00      0.00      0.00
                                0.00      0.00      0.00
                                0.00      0.00      0.00

     MDB     stress (kbar)      0.00      0.00      0.00
                                0.00      0.00      0.00
                                0.00      0.00      0.00

     3D-RISM stress (kbar)      0.00      0.00      0.00
                                0.00      0.00      0.00
                                0.00      0.00      0.00

     Energy error            =      1.4E-03 Ry
     Gradient error          =      1.1E-02 Ry/Bohr

     number of scf cycles    =   3
     number of bfgs steps    =   2

     energy             old  =    -139.0752406319 Ry
     energy             new  =    -139.0766672537 Ry

     CASE: energy            _new < energy            _old

     new trust radius        =       0.0097501875 bohr
     new conv_thr            =       0.0000002284 Ry


ATOMIC_POSITIONS (angstrom)
N               -2.1792624000        0.1104002127        0.6702742287
C               -0.8443057867        0.1357505686        0.3130794721
C               -0.1515537548        1.3566533805        0.1786600898
C               -0.1338535166       -1.0585295739        0.0732800539
C                1.1955364375        1.3778193509       -0.1819643434
C                1.2132245760       -1.0285208559       -0.2868512293
C                1.8923244539        0.1877033624       -0.4179657533
H               -0.6738588122        2.2985967983        0.3578094973
H               -0.6422564747       -2.0200112350        0.1692933562
H                1.7168887313        2.3326513606       -0.2818336928
H                1.7483494285       -1.9632995229       -0.4692601857
H                2.9412755657        0.2076200618       -0.6985900497
H               -2.6799228133       -0.7615161279        0.7678134613
H               -2.6923046680        0.9630653911        0.8439777481



     Writing config-only to output data dir ./tmp/aniline_protonated.save/ :
     XML data file
     NEW-OLD atomic charge density approx. for the potential

     negative rho (up, down):  1.170E-02 0.000E+00

     total cpu time spent up to now is      243.5 secs

     Self-consistent Calculation

     iteration #  1     ecut=    40.00 Ry     beta= 0.40
     Davidson diagonalization with overlap

---- Real-time Memory Report at c_bands before calling an iterative solver
           594 MiB given to the printing process from OS
             0 MiB allocation reported by mallinfo(arena+hblkhd)
        179961 MiB available memory on the node where the printing process lives
------------------
     ethr =  1.00E-06,  avg # of iterations =  4.0

     negative rho (up, down):  1.170E-02 0.000E+00

     total cpu time spent up to now is      255.1 secs

     total energy              =    -139.07686929 Ry
     estimated scf accuracy    <       0.00012313 Ry

     iteration #  2     ecut=    40.00 Ry     beta= 0.40
     Davidson diagonalization with overlap

---- Real-time Memory Report at c_bands before calling an iterative solver
           594 MiB given to the printing process from OS
             0 MiB allocation reported by mallinfo(arena+hblkhd)
        178466 MiB available memory on the node where the printing process lives
------------------
     ethr =  3.42E-07,  avg # of iterations =  2.0

     negative rho (up, down):  1.170E-02 0.000E+00

     total cpu time spent up to now is      263.7 secs

     total energy              =    -139.07688636 Ry
     estimated scf accuracy    <       0.00001343 Ry

     iteration #  3     ecut=    40.00 Ry     beta= 0.40
     Davidson diagonalization with overlap

---- Real-time Memory Report at c_bands before calling an iterative solver
           594 MiB given to the printing process from OS
             0 MiB allocation reported by mallinfo(arena+hblkhd)
        178357 MiB available memory on the node where the printing process lives
------------------
     ethr =  3.73E-08,  avg # of iterations =  4.0

     negative rho (up, down):  1.170E-02 0.000E+00

     total cpu time spent up to now is      272.1 secs

     total energy              =    -139.07688701 Ry
     estimated scf accuracy    <       0.00000397 Ry

     iteration #  4     ecut=    40.00 Ry     beta= 0.40
     Davidson diagonalization with overlap

---- Real-time Memory Report at c_bands before calling an iterative solver
           594 MiB given to the printing process from OS
             0 MiB allocation reported by mallinfo(arena+hblkhd)
        178244 MiB available memory on the node where the printing process lives
[...]
     1.0000   1.0000   1.0000   1.0000   1.0000   1.0000   1.0000   1.0000
     1.0000   1.0000   0.0000   0.0000   0.0000   0.0000

          k = 0.3333 0.0000 0.0000 (450515 PWs)   bands (ev):

   -22.9162 -20.5520 -18.1541 -17.7422 -14.9115 -14.6631 -12.8726 -12.6815
   -11.5396 -10.2866 -10.2856  -9.9007  -9.2930  -8.3787  -7.9212  -7.4393
    -6.0185  -4.7405  -0.9460  -0.6613  -0.5183  -0.2212

     occupation numbers 
     1.0000   1.0000   1.0000   1.0000   1.0000   1.0000   1.0000   1.0000
     1.0000   1.0000   1.0000   1.0000   1.0000   1.0000   1.0000   1.0000
     1.0000   1.0000   0.0000   0.0000   0.0000   0.0000

          k = 0.3333 0.3333 0.0000 (450333 PWs)   bands (ev):

   -22.9162 -20.5520 -18.1541 -17.7422 -14.9115 -14.6631 -12.8726 -12.6815
   -11.5396 -10.2866 -10.2856  -9.9007  -9.2930  -8.3787  -7.9212  -7.4392
    -6.0185  -4.7405  -0.9460  -0.6611  -0.5183  -0.2164

     occupation numbers 
     1.0000   1.0000   1.0000   1.0000   1.0000   1.0000   1.0000   1.0000
     1.0000   1.0000   1.0000   1.0000   1.0000   1.0000   1.0000   1.0000
     1.0000   1.0000   0.0000   0.0000   0.0000   0.0000

          k = 0.3333-0.3333 0.0000 (450333 PWs)   bands (ev):

   -22.9162 -20.5520 -18.1541 -17.7422 -14.9115 -14.6631 -12.8726 -12.6815
   -11.5396 -10.2866 -10.2856  -9.9007  -9.2930  -8.3787  -7.9212  -7.4392
    -6.0185  -4.7405  -0.9460  -0.6611  -0.5183  -0.2164

     occupation numbers 
     1.0000   1.0000   1.0000   1.0000   1.0000   1.0000   1.0000   1.0000
     1.0000   1.0000   1.0000   1.0000   1.0000   1.0000   1.0000   1.0000
     1.0000   1.0000   0.0000   0.0000   0.0000   0.0000

     the Fermi energy is    -2.7669 ev

!    total energy              =    -139.07712908 Ry
     estimated scf accuracy    <          6.3E-09 Ry
     smearing contrib. (-TS)   =       0.00000000 Ry
     internal energy E=F+TS    =    -139.07712908 Ry

     The total energy is F=E-TS. E is the sum of the following terms:
     one-electron contribution =    -539.94146185 Ry
     hartree contribution      =     274.70281528 Ry
     xc contribution           =     -38.14298371 Ry
     ewald contribution        =     201.31422800 Ry
     DFT-D3 Dispersion         =      -0.00850170 Ry
     one-center paw contrib.   =     -37.00122510 Ry
      -> PAW hartree energy AE =       0.00000000 Ry
      -> PAW hartree energy PS =       0.00000000 Ry
      -> PAW xc energy AE      =       0.00000000 Ry
      -> PAW xc energy PS      =       0.00000000 Ry
      -> total E_H with PAW    =     274.70281528 Ry
      -> total E_XC with PAW   =     -38.14298371 Ry

     convergence has been achieved in   4 iterations

     negative rho (up, down):  1.171E-02 0.000E+00

     Forces acting on atoms (cartesian axes, Ry/au):

     atom    1 type  1   force =     0.00039929    0.00001115   -0.00017441
     atom    2 type  2   force =    -0.00044814   -0.00001182    0.00010107
     atom    3 type  2   force =     0.00011622    0.00036923    0.00000106
     atom    4 type  2   force =     0.00012438   -0.00036314   -0.00002574
     atom    5 type  2   force =     0.00003886    0.00045479    0.00000252
     atom    6 type  2   force =     0.00005026   -0.00045172   -0.00002585
     atom    7 type  2   force =    -0.00033345   -0.00000283    0.00009981
     atom    8 type  3   force =    -0.00000388   -0.00020158   -0.00002848
     atom    9 type  3   force =     0.00000691    0.00019579    0.00001863
     atom   10 type  3   force =     0.00009517   -0.00002424   -0.00003736
     atom   11 type  3   force =     0.00011117    0.00003212   -0.00000127
     atom   12 type  3   force =     0.00006678    0.00000435    0.00000692
     atom   13 type  3   force =    -0.00011167    0.00017012    0.00005088
     atom   14 type  3   force =    -0.00011190   -0.00018223    0.00001223
     The non-local contrib.  to forces
     atom    1 type  1   force =     0.03250541    0.00055476   -0.00727463
     atom    2 type  2   force =    -0.34994450   -0.00661773    0.09364276
     atom    3 type  2   force =    -0.06561576   -0.01749077    0.01662245
     atom    4 type  2   force =    -0.06593976    0.01505904    0.01792412
     atom    5 type  2   force =    -0.00926411    0.04188352    0.00444755
     atom    6 type  2   force =    -0.00879179   -0.04222683    0.00082879
     atom    7 type  2   force =     0.00550879    0.00007943   -0.00172236
     atom    8 type  3   force =     0.03604461   -0.06611495   -0.01241834
     atom    9 type  3   force =     0.03507228    0.06746316   -0.00657432
     atom   10 type  3   force =    -0.03635846   -0.06812246    0.00690834
     atom   11 type  3   force =    -0.03734109    0.06672692    0.01280522
     atom   12 type  3   force =    -0.07484861   -0.00142324    0.02003420
     atom   13 type  3   force =     0.05008370    0.08754155   -0.00978718
     atom   14 type  3   force =     0.05132768   -0.08561194   -0.01741951
     The ionic contribution  to forces
     atom    1 type  1   force =    -8.97084532   -0.17031758    2.39574541
     atom    2 type  2   force =    -1.97613486   -0.03754699    0.52393080
     atom    3 type  2   force =    -1.78596672    6.78349366    0.76341381
     atom    4 type  2   force =    -1.68521325   -6.84965285    0.17026420
     atom    5 type  2   force =     4.12017738    6.32680586   -0.84504441
     atom    6 type  2   force =     4.21253069   -6.16839985   -1.38728454
     atom    7 type  2   force =     7.44027003    0.14139319   -1.98527466
     atom    8 type  3   force =    -1.34276810    3.18762460    0.49306677
     atom    9 type  3   force =    -1.29580221   -3.23769308    0.21227779
     atom   10 type  3   force =     1.69648537    2.99835074   -0.33038051
     atom   11 type  3   force =     1.73990169   -2.93312360   -0.58939861
     atom   12 type  3   force =     3.32548116    0.06325528   -0.89010797
     atom   13 type  3   force =    -2.71833394   -2.93570350    0.60725335
     atom   14 type  3   force =    -2.75978193    2.83151413    0.86153858
     The local contribution  to forces
     atom    1 type  1   force =     8.93920157    0.16978256   -2.38874762
     atom    2 type  2   force =     2.31821593    0.04399164   -0.61519612
     atom    3 type  2   force =     1.84971497   -6.76481977   -0.77964191
     atom    4 type  2   force =     1.74932400    6.83336263   -0.18795121
     atom    5 type  2   force =    -4.11018098   -6.36629775    0.84070235
     atom    6 type  2   force =    -4.20309525    6.20825269    1.38628117
     atom    7 type  2   force =    -7.44433134   -0.14143904    1.98638646
     atom    8 type  3   force =     1.30670127   -3.12172810   -0.48066841
     atom    9 type  3   force =     1.26071833    3.17044148   -0.20567500
     atom   10 type  3   force =    -1.66002740   -2.93023611    0.32343858
     atom   11 type  3   force =    -1.70244478    2.86641224    0.57659441
     atom   12 type  3   force =    -3.25057130   -0.06182794    0.87008634
     atom   13 type  3   force =     2.66820299    2.84827873   -0.59743015
     atom   14 type  3   force =     2.70840603   -2.74602897   -0.84411710
     The core correction contribution to forces
     atom    1 type  1   force =    -0.00035807   -0.00000675    0.00008310
     atom    2 type  2   force =     0.00742609    0.00016140   -0.00227325
     atom    3 type  2   force =     0.00191398   -0.00097814   -0.00037644
     atom    4 type  2   force =     0.00188120    0.00102927   -0.00023271
     atom    5 type  2   force =    -0.00067732   -0.00207735   -0.00010890
     atom    6 type  2   force =    -0.00057950    0.00206320    0.00015431
     atom    7 type  2   force =    -0.00191473   -0.00003908    0.00074961
     atom    8 type  3   force =     0.00000000    0.00000000    0.00000000
     atom    9 type  3   force =     0.00000000    0.00000000    0.00000000
     atom   10 type  3   force =     0.00000000    0.00000000    0.00000000
     atom   11 type  3   force =     0.00000000    0.00000000    0.00000000
     atom   12 type  3   force =     0.00000000    0.00000000    0.00000000
     atom   13 type  3   force =     0.00000000    0.00000000    0.00000000
     atom   14 type  3   force =     0.00000000    0.00000000    0.00000000
     The Hubbard contrib.    to forces
     atom    1 type  1   force =     0.00000000    0.00000000    0.00000000
     atom    2 type  2   force =     0.00000000    0.00000000    0.00000000
     atom    3 type  2   force =     0.00000000    0.00000000    0.00000000
     atom    4 type  2   force =     0.00000000    0.00000000    0.00000000
     atom    5 type  2   force =     0.00000000    0.00000000    0.00000000
     atom    6 type  2   force =     0.00000000    0.00000000    0.00000000
     atom    7 type  2   force =     0.00000000    0.00000000    0.00000000
     atom    8 type  3   force =     0.00000000    0.00000000    0.00000000
     atom    9 type  3   force =     0.00000000    0.00000000    0.00000000
     atom   10 type  3   force =     0.00000000    0.00000000    0.00000000
     atom   11 type  3   force =     0.00000000    0.00000000    0.00000000
     atom   12 type  3   force =     0.00000000    0.00000000    0.00000000
     atom   13 type  3   force =     0.00000000    0.00000000    0.00000000
     atom   14 type  3   force =     0.00000000    0.00000000    0.00000000
     The SCF correction term to forces
     atom    1 type  1   force =    -0.00004178   -0.00000084    0.00000690
     atom    2 type  2   force =     0.00000230   -0.00000006   -0.00000220
     atom    3 type  2   force =     0.00001700   -0.00001960   -0.00000609
     atom    4 type  2   force =     0.00001674    0.00002021   -0.00000362
     atom    5 type  2   force =     0.00000606   -0.00000522   -0.00000178
     atom    6 type  2   force =     0.00000605    0.00000526   -0.00000063
     atom    7 type  2   force =    -0.00002277   -0.00000049    0.00000672
     atom    8 type  3   force =    -0.00000209    0.00000565    0.00000069
     atom    9 type  3   force =    -0.00000205   -0.00000570    0.00000029
     atom   10 type  3   force =    -0.00000105   -0.00000519    0.00000010
     atom   11 type  3   force =    -0.00000117    0.00000511    0.00000062
     atom   12 type  3   force =     0.00000335    0.00000004   -0.00000084
     atom   13 type  3   force =    -0.00000364    0.00000590    0.00000086
     atom   14 type  3   force =    -0.00000357   -0.00000605    0.00000037

     DFT-D3 dispersion contribution to forces:
     atom    1 type  1   force =    -0.00006699   -0.00000126    0.00001785
     atom    2 type  2   force =    -0.00001756   -0.00000034    0.00000450
     atom    3 type  2   force =     0.00004829    0.00018359   -0.00000533
     atom    4 type  2   force =     0.00005098   -0.00018170   -0.00002110
     atom    5 type  2   force =    -0.00002664    0.00014547    0.00001314
     atom    6 type  2   force =    -0.00002441   -0.00014644    0.00000048
     atom    7 type  2   force =     0.00015210    0.00000289   -0.00004053
     atom    8 type  3   force =     0.00001596    0.00001096   -0.00000376
     atom    9 type  3   force =     0.00001609   -0.00001033   -0.00000470
     atom   10 type  3   force =    -0.00000776   -0.00001148    0.00000156
     atom   11 type  3   force =    -0.00000794    0.00001118    0.00000253
     atom   12 type  3   force =    -0.00000229   -0.00000005    0.00000062
     atom   13 type  3   force =    -0.00006525    0.00004717    0.00001943
     atom   14 type  3   force =    -0.00006458   -0.00004966    0.00001532

     Total force =     0.001198     Total SCF correction =     0.000064

     DFT-D3 dispersion Force =     0.000401


     Computing stress (Cartesian axis) and pressure


     negative rho (up, down):  1.171E-02 0.000E+00
          total   stress  (Ry/bohr**3)                   (kbar)     P=       -0.05
  -0.00000036   0.00000000  -0.00000001           -0.05        0.00       -0.00
   0.00000000  -0.00000034   0.00000000            0.00       -0.05        0.00
  -0.00000001   0.00000000  -0.00000039           -0.00        0.00       -0.06

     kinetic stress (kbar)     56.17     -0.10      2.45
                               -0.10     55.48     -0.38
                                2.45     -0.38     64.64

     local   stress (kbar)   -405.70     -4.31     86.77
                               -4.31   -329.81     -9.31
                               86.77     -9.31    -99.11

     nonloc. stress (kbar)     13.02      0.01     -0.19
                                0.01     12.97      0.03
                               -0.19      0.03     12.35

     hartree stress (kbar)    179.92      1.73    -34.19
                                1.73    144.80      3.45
                              -34.19      3.45     58.53

     exc-cor stress (kbar)     -4.71      0.01     -0.12
                                0.01     -4.69      0.02
                               -0.12      0.02     -5.14

     corecor stress (kbar)     -9.95     -0.00      0.03
                               -0.00     -9.97     -0.01
                                0.03     -0.01     -9.83

     ewald   stress (kbar)    171.19      2.67    -54.74
                                2.67    131.16      6.20
                              -54.74      6.20    -21.49

     hubbard stress (kbar)      0.00      0.00      0.00
                                0.00      0.00      0.00
                                0.00      0.00      0.00

     DFT-D   stress (kbar)      0.00      0.00     -0.00
                                0.00      0.00      0.00
                               -0.00      0.00      0.00

     XDM     stress (kbar)      0.00      0.00      0.00
                                0.00      0.00      0.00
                                0.00      0.00      0.00

     dft-nl  stress (kbar)      0.00      0.00      0.00
                                0.00      0.00      0.00
                                0.00      0.00      0.00

     TS-vdW  stress (kbar)      0.00      0.00      0.00
                                0.00      0.00      0.00
                                0.00      0.00      0.00

     MDB     stress (kbar)      0.00      0.00      0.00
                                0.00      0.00      0.00
                                0.00      0.00      0.00

     3D-RISM stress (kbar)      0.00      0.00      0.00
                                0.00      0.00      0.00
                                0.00      0.00      0.00

     Energy error            =      4.4E-06 Ry
     Gradient error          =      4.5E-04 Ry/Bohr

     bfgs converged in  10 scf cycles and   9 bfgs steps
     (criteria: energy <  1.0E-05 Ry, force <  5.0E-04 Ry/Bohr)

     End of BFGS Geometry Optimization

     Final energy             =    -139.0771290832 Ry

     File ./tmp/aniline_protonated.bfgs deleted, as requested
Begin final coordinates

ATOMIC_POSITIONS (angstrom)
N               -2.1709623443        0.1105625699        0.6675960002
C               -0.8398517461        0.1358293410        0.3117835546
C               -0.1513469398        1.3579771353        0.1785180391
C               -0.1335221682       -1.0598548011        0.0732691746
C                1.1942746166        1.3761000551       -0.1817200456
C                1.2120483463       -1.0268468407       -0.2862193324
C                1.8915605174        0.1876920716       -0.4175074553
H               -0.6811942132        2.2962894895        0.3596644185
H               -0.6495524757       -2.0180025607        0.1714685727
H                1.7040273634        2.3363549009       -0.2783787340
H                1.7356636794       -1.9674703037       -0.4659597277
H                2.9440795082        0.2076998585       -0.6991803442
H               -2.6662581163       -0.7625726556        0.7641415950
H               -2.6786850610        0.9646249113        0.8402469377
End final coordinates



     Writing all to output data dir ./tmp/aniline_protonated.save/ :
     XML data file, charge density, pseudopotentials, collected wavefunctions

     init_run     :      9.66s CPU     10.04s WALL (       1 calls)
     electrons    :    485.51s CPU    507.93s WALL (      10 calls)
     update_pot   :      6.11s CPU      7.01s WALL (       9 calls)
     forces       :     23.70s CPU     27.03s WALL (      10 calls)
     force_dftd3  :      0.01s CPU      0.01s WALL (      10 calls)
     stress       :     77.99s CPU     83.16s WALL (      10 calls)
     stres_dftd3  :      0.01s CPU      0.01s WALL (      10 calls)

     Called by init_run:
     wfcinit      :      3.27s CPU      3.31s WALL (       1 calls)
     wfcinit:atom :      0.03s CPU      0.03s WALL (       5 calls)
     wfcinit:wfcr :      3.04s CPU      3.07s WALL (       5 calls)
     potinit      :      1.06s CPU      1.15s WALL (       1 calls)
     hinit0       :      0.48s CPU      0.52s WALL (       1 calls)

     Called by electrons:
     c_bands      :    301.86s CPU    303.63s WALL (      57 calls)
     sum_band     :    118.90s CPU    126.25s WALL (      57 calls)
     v_of_rho     :     30.66s CPU     32.96s WALL (      61 calls)
     v_h          :      2.99s CPU      3.30s WALL (      61 calls)
     v_xc         :     36.62s CPU     39.96s WALL (      81 calls)
     newd         :     31.74s CPU     39.24s WALL (      61 calls)
     PAW_pot      :      1.22s CPU      1.23s WALL (      70 calls)
     mix_rho      :      4.79s CPU      5.07s WALL (      57 calls)
     energy_dftd3 :      0.00s CPU      0.00s WALL (      10 calls)

     Called by c_bands:
     init_us_2    :      9.73s CPU      9.81s WALL (     720 calls)
     cegterg      :    293.53s CPU    295.19s WALL (     285 calls)

     Called by sum_band:
     sum_band:wei :      0.00s CPU      0.00s WALL (      57 calls)
     sum_band:loo :     69.29s CPU     69.63s WALL (      57 calls)
     sum_band:buf :      0.77s CPU      0.79s WALL (     285 calls)
     sum_band:ini :      3.89s CPU      3.91s WALL (     285 calls)
     sum_band:cal :      7.36s CPU      7.39s WALL (     330 calls)
     sum_band:bec :      0.00s CPU      0.00s WALL (     330 calls)
     addusdens    :     44.94s CPU     51.65s WALL (      57 calls)
                                        0.00s GPU  (      57 calls)
     addusd:skk   :      1.66s CPU      1.86s WALL (     171 calls)
                                        0.00s GPU  (     171 calls)

     Called by *egterg:
     cdiaghg      :      0.43s CPU      0.43s WALL (     974 calls)
     cegterg:over :     10.15s CPU     10.19s WALL (     764 calls)
     cegterg:upda :      5.90s CPU      5.94s WALL (     764 calls)
     cegterg:last :     15.16s CPU     15.21s WALL (     605 calls)
     h_psi        :    244.34s CPU    245.76s WALL (    1054 calls)
     s_psi        :     12.99s CPU     13.03s WALL (    1054 calls)
     g_psi        :      0.61s CPU      0.61s WALL (     764 calls)

     Called by h_psi:
     h_psi:calbec :     16.82s CPU     16.88s WALL (    1054 calls)
     vloc_psi     :    212.58s CPU    213.86s WALL (    1054 calls)
     add_vuspsi   :     13.03s CPU     13.07s WALL (    1054 calls)

     General routines
     calbec       :     28.81s CPU     28.91s WALL (    1634 calls)
     fft          :     34.43s CPU     38.29s WALL (    1038 calls)
     ffts         :      2.53s CPU      2.70s WALL (     118 calls)
     fftw         :    172.35s CPU    173.35s WALL (   38034 calls)
     interpolate  :      3.49s CPU      3.75s WALL (      61 calls)

     Parallel routines

     PAW routines
     PAW_pot      :      1.22s CPU      1.23s WALL (      70 calls)

     PWSCF        :  10m10.88s CPU  10m46.00s WALL


   This run was terminated on:  22: 5:15   8Apr2025            

=------------------------------------------------------------------------------=
   JOB DONE.
=------------------------------------------------------------------------------=
