--------------------------------------------------------------------------
By default, for Open MPI 4.0 and later, infiniband ports on a device
are not used by default.  The intent is to use UCX for these devices.
You can override this policy by setting the btl_openib_allow_ib MCA parameter
to true.

  Local host:              psid05
  Local adapter:           mlx4_0
  Local port:              1

--------------------------------------------------------------------------
--------------------------------------------------------------------------
WARNING: There was an error initializing an OpenFabrics device.

  Local host:   psid05
  Local device: mlx4_0
--------------------------------------------------------------------------

     Program PWSCF v.7.3.1 starts on 17Mar2025 at 11:14:10 

     This program is part of the open-source Quantum ESPRESSO suite
     for quantum simulation of materials; please cite
         "P. Giannozzi et al., J. Phys.:Condens. Matter 21 395502 (2009);
         "P. Giannozzi et al., J. Phys.:Condens. Matter 29 465901 (2017);
         "P. Giannozzi et al., J. Chem. Phys. 152 154105 (2020);
          URL http://www.quantum-espresso.org", 
     in publications or presentations arising from this work. More details at
     http://www.quantum-espresso.org/quote

     Parallel version (MPI), running on    30 processors

     MPI processes distributed on     1 nodes
     104127 MiB available memory on the printing compute node when the environment starts

     Waiting for input...
     Reading input from standard input

     Current dimensions of program PWSCF are:
     Max number of different atomic species (ntypx) = 10
     Max number of k-points (npk) =  40000
     Max angular momentum in pseudopotentials (lmaxx) =  4
     file C.pbe-n-kjpaw_psl.1.0.0.UPF: wavefunction(s)  2S 2P renormalized

     R & G space division:  proc/nbgrp/npool/nimage =      30
     Subspace diagonalization in iterative solution of the eigenvalue problem:
     one sub-group per band group will be used
     custom distributed-memory algorithm (size of sub-group:  4*  4 procs)


     Parallelization info
     --------------------
     sticks:   dense  smooth     PW     G-vecs:    dense   smooth      PW
     Min          89      89     24                12069    12069    1722
     Max          90      90     25                12086    12086    1735
     Sum        2693    2693    739               362371   362371   51847

     Using Slab Decomposition



     bravais-lattice index     =            0
     lattice parameter (alat)  =       9.8808  a.u.
     unit-cell volume          =    7588.2966 (a.u.)^3
     number of atoms/cell      =           47
     number of atomic types    =            4
     number of electrons       =       684.00
     number of Kohn-Sham states=          410
     kinetic-energy cutoff     =      50.0000  Ry
     charge density cutoff     =     200.0000  Ry
     scf convergence threshold =      7.3E-07
     mixing beta               =       0.7000
     number of iterations used =            8  plain     mixing
     Exchange-correlation= PBE
                           (   1   4   3   4   0   0   0)

     celldm(1)=   9.880848  celldm(2)=   0.000000  celldm(3)=   0.000000
     celldm(4)=   0.000000  celldm(5)=   0.000000  celldm(6)=   0.000000

     crystal axes: (cart. coord. in units of alat)
               a(1) = (   1.000000   0.000000   0.000000 )  
               a(2) = (  -1.000000   1.732051   0.000000 )  
               a(3) = (   0.000000   0.000000   4.541517 )  

     reciprocal axes: (cart. coord. in units 2 pi/alat)
               b(1) = (  1.000000  0.577350 -0.000000 )  
               b(2) = (  0.000000  0.577350  0.000000 )  
               b(3) = (  0.000000 -0.000000  0.220191 )  


     PseudoPot. # 1 for Zn read from file:
     /home/ys/qepseudo/SSSP_1.3.0_PBE_efficiency/Zn_pbe_v1.uspp.F.UPF
     MD5 check sum: df62231357ef9e81f77b2b3087fa5675
     Pseudo is Ultrasoft, Zval = 20.0
     Generated by new atomic code, or converted to UPF format
     Using radial grid of  943 points,  6 beta functions with: 
                l(1) =   0
                l(2) =   0
                l(3) =   1
                l(4) =   1
                l(5) =   2
                l(6) =   2
     Q(r) pseudized with  8 coefficients,  rinner =    1.100   1.100   1.100
                                                       1.100   1.100

     PseudoPot. # 2 for C  read from file:
     /home/ys/qepseudo/SSSP_1.3.0_PBE_efficiency/C.pbe-n-kjpaw_psl.1.0.0.UPF
     MD5 check sum: 5d2aebdfa2cae82b50a7e79e9516da0f
     Pseudo is Projector augmented-wave + core cor, Zval =  4.0
     Generated using "atomic" code by A. Dal Corso  v.5.1
     Shape of augmentation charge: PSQ
     Using radial grid of 1073 points,  4 beta functions with: 
                l(1) =   0
                l(2) =   0
                l(3) =   1
                l(4) =   1
     Q(r) pseudized with 0 coefficients 


     PseudoPot. # 3 for N  read from file:
     /home/ys/qepseudo/SSSP_1.3.0_PBE_efficiency/N.pbe-n-radius_5.UPF
     MD5 check sum: 16739722b17309cd8fe442a2ace49922
     Pseudo is Ultrasoft + core correction, Zval =  5.0
     Generated using "atomic" code by A. Dal Corso  v.5.1
     Using radial grid of 1085 points,  4 beta functions with: 
                l(1) =   0
                l(2) =   0
                l(3) =   1
                l(4) =   1
     Q(r) pseudized with 0 coefficients 


     PseudoPot. # 4 for H  read from file:
     /home/ys/qepseudo/SSSP_1.3.0_PBE_efficiency/H.pbe-rrkjus_psl.1.0.0.UPF
     MD5 check sum: f52b6d4d1c606e5624b1dc7b2218f220
     Pseudo is Ultrasoft, Zval =  1.0
     Generated using "atomic" code by A. Dal Corso  v.5.1
     Using radial grid of  929 points,  2 beta functions with: 
                l(1) =   0
                l(2) =   0
     Q(r) pseudized with 0 coefficients 


     atomic species   valence    mass     pseudopotential
     Zn               20.00    65.38000     Zn( 1.00)
     C                 4.00    12.01070     C ( 1.00)
     N                 5.00    14.00670     N ( 1.00)
     H                 1.00     1.00800     H ( 1.00)

     No symmetry found


                                    s                        frac. trans.

      isym =  1     identity                                     

 cryst.   s( 1) = (     1          0          0      )
                  (     0          1          0      )
                  (     0          0          1      )

 cart.    s( 1) = (  1.0000000  0.0000000  0.0000000 )
                  (  0.0000000  1.0000000  0.0000000 )
                  (  0.0000000  0.0000000  1.0000000 )


   Cartesian axes

     site n.     atom                  positions (alat units)
         1        Zn     tau(   1) = (  -0.0000000   0.2886751   0.2329997  )
         2        Zn     tau(   2) = (  -0.0015107   0.2884541   1.1945753  )
         3        Zn     tau(   3) = (  -0.2500000   0.7216878   0.2329997  )
         4        Zn     tau(   4) = (  -0.2515639   0.7211356   1.1949008  )
         5        Zn     tau(   5) = (  -0.5000000   1.1547005   0.2329997  )
         6        Zn     tau(   6) = (  -0.5014369   1.1542914   1.1942673  )
         7        Zn     tau(   7) = (  -0.7500000   1.5877132   0.2329997  )
         8        Zn     tau(   8) = (  -0.7515478   1.5874804   1.1943131  )
         9        Zn     tau(   9) = (   0.5000000   0.2886751   0.2329997  )
        10        Zn     tau(  10) = (   0.4983819   0.2884080   1.1952424  )
        11        Zn     tau(  11) = (   0.2500000   0.7216878   0.2329997  )
        12        Zn     tau(  12) = (   0.2483939   0.7208138   1.1947085  )
        13        Zn     tau(  13) = (  -0.0000000   1.1547005   0.2329997  )
        14        Zn     tau(  14) = (  -0.0017550   1.1542888   1.1936075  )
        15        Zn     tau(  15) = (  -0.2500000   1.5877132   0.2329997  )
        16        Zn     tau(  16) = (  -0.2516023   1.5875235   1.1944186  )
        17        Zn     tau(  17) = (   0.2500000   0.1443376   0.6989991  )
        18        Zn     tau(  18) = (   0.2477506   0.1419000   1.6908985  )
        19        Zn     tau(  19) = (   0.0000000   0.5773503   0.6989991  )
        20        Zn     tau(  20) = (  -0.0022991   0.5747045   1.6915392  )
        21        Zn     tau(  21) = (  -0.2500000   1.0103630   0.6989991  )
        22        Zn     tau(  22) = (  -0.2522468   1.0077668   1.6904748  )
        23        Zn     tau(  23) = (  -0.5000000   1.4433757   0.6989991  )
        24        Zn     tau(  24) = (  -0.5022873   1.4408001   1.6903720  )
        25        Zn     tau(  25) = (   0.7500000   0.1443376   0.6989991  )
        26        Zn     tau(  26) = (   0.7477810   0.1418473   1.6890205  )
        27        Zn     tau(  27) = (   0.5000000   0.5773503   0.6989991  )
        28        Zn     tau(  28) = (   0.4978586   0.5746089   1.6884071  )
        29        Zn     tau(  29) = (   0.2500000   1.0103630   0.6989991  )
        30        Zn     tau(  30) = (   0.2474821   1.0077658   1.6791426  )
        31        Zn     tau(  31) = (   0.0000000   1.4433757   0.6989991  )
        32        Zn     tau(  32) = (  -0.0025302   1.4408558   1.6882964  )
        33        C      tau(  33) = (   0.2396948   0.8440787   3.4522735  )
        34        C      tau(  34) = (   0.2629622   0.8850696   3.1837837  )
        35        C      tau(  35) = (   0.4196925   0.7248407   3.0333290  )
        36        C      tau(  36) = (   0.1244306   1.0819450   3.0619006  )
        37        C      tau(  37) = (   0.1439048   1.1189244   2.7997821  )
        38        C      tau(  38) = (   0.4398602   0.7625095   2.7714241  )
        39        C      tau(  39) = (   0.3028181   0.9606213   2.6497324  )
        40        N      tau(  40) = (   0.2201078   0.8098588   3.6733315  )
        41        N      tau(  41) = (   0.3317693   1.0047566   2.3908262  )
        42        H      tau(  42) = (   0.1953376   1.1114644   2.3010226  )
        43        H      tau(  43) = (   0.4013196   0.8594522   2.2807159  )
        44        H      tau(  44) = (   0.5276157   0.5711749   3.1255326  )
        45        H      tau(  45) = (   0.0333280   1.2713199   2.7079288  )
        46        H      tau(  46) = (   0.5644196   0.6380540   2.6577570  )
        47        H      tau(  47) = (  -0.0011544   1.2045551   3.1757180  )

   Crystallographic axes

     site n.     atom                  positions (cryst. coord.)
         1        Zn     tau(   1) = (  0.1666667  0.1666667  0.0513044  )
         2        Zn     tau(   2) = (  0.1650284  0.1665390  0.2630344  )
         3        Zn     tau(   3) = (  0.1666667  0.4166667  0.0513044  )
         4        Zn     tau(   4) = (  0.1647839  0.4163478  0.2631061  )
         5        Zn     tau(   5) = (  0.1666667  0.6666667  0.0513044  )
         6        Zn     tau(   6) = (  0.1649935  0.6664304  0.2629666  )
         7        Zn     tau(   7) = (  0.1666667  0.9166667  0.0513044  )
         8        Zn     tau(   8) = (  0.1649844  0.9165322  0.2629767  )
         9        Zn     tau(   9) = (  0.6666667  0.1666667  0.0513044  )
        10        Zn     tau(  10) = (  0.6648944  0.1665124  0.2631813  )
        11        Zn     tau(  11) = (  0.6666667  0.4166667  0.0513044  )
        12        Zn     tau(  12) = (  0.6645559  0.4161620  0.2630637  )
        13        Zn     tau(  13) = (  0.6666667  0.6666667  0.0513044  )
        14        Zn     tau(  14) = (  0.6646740  0.6664290  0.2628213  )
        15        Zn     tau(  15) = (  0.6666667  0.9166667  0.0513044  )
        16        Zn     tau(  16) = (  0.6649548  0.9165571  0.2629999  )
        17        Zn     tau(  17) = (  0.3333333  0.0833333  0.1539131  )
        18        Zn     tau(  18) = (  0.3296766  0.0819260  0.3723202  )
        19        Zn     tau(  19) = (  0.3333333  0.3333333  0.1539131  )
        20        Zn     tau(  20) = (  0.3295067  0.3318058  0.3724612  )
        21        Zn     tau(  21) = (  0.3333333  0.5833333  0.1539131  )
        22        Zn     tau(  22) = (  0.3295877  0.5818345  0.3722269  )
        23        Zn     tau(  23) = (  0.3333333  0.8333333  0.1539131  )
        24        Zn     tau(  24) = (  0.3295591  0.8318463  0.3722042  )
        25        Zn     tau(  25) = (  0.8333333  0.0833333  0.1539131  )
        26        Zn     tau(  26) = (  0.8296766  0.0818956  0.3719066  )
        27        Zn     tau(  27) = (  0.8333333  0.3333333  0.1539131  )
        28        Zn     tau(  28) = (  0.8296092  0.3317506  0.3717716  )
        29        Zn     tau(  29) = (  0.8333333  0.5833333  0.1539131  )
        30        Zn     tau(  30) = (  0.8293160  0.5818339  0.3697316  )
        31        Zn     tau(  31) = (  0.8333333  0.8333333  0.1539131  )
        32        Zn     tau(  32) = (  0.8293483  0.8318785  0.3717472  )
        33        C      tau(  33) = (  0.7270239  0.4873291  0.7601586  )
        34        C      tau(  34) = (  0.7739574  0.5109951  0.7010396  )
        35        C      tau(  35) = (  0.8381794  0.4184869  0.6679109  )
        36        C      tau(  36) = (  0.7490919  0.6246613  0.6742021  )
        37        C      tau(  37) = (  0.7899161  0.6460113  0.6164860  )
        38        C      tau(  38) = (  0.8800953  0.4402351  0.6102419  )
        39        C      tau(  39) = (  0.8574331  0.5546150  0.5834465  )
        40        N      tau(  40) = (  0.6876800  0.4675722  0.8088335  )
        41        N      tau(  41) = (  0.9118658  0.5800965  0.5264377  )
        42        H      tau(  42) = (  0.8370419  0.6417043  0.5066638  )
        43        H      tau(  43) = (  0.8975246  0.4962049  0.5021925  )
        44        H      tau(  44) = (  0.8573836  0.3297680  0.6882133  )
        45        H      tau(  45) = (  0.7673249  0.7339969  0.5962608  )
        46        H      tau(  46) = (  0.9328003  0.3683806  0.5852134  )
        47        H      tau(  47) = (  0.6942958  0.6954502  0.6992636  )

     number of k points=     5  Marzari-Vanderbilt smearing, width (Ry)=  0.0200
                       cart. coord. in units 2pi/alat
        k(    1) = (   0.0000000   0.0000000   0.0000000), wk =   0.2222222
        k(    2) = (   0.0000000   0.1924501   0.0000000), wk =   0.4444444
        k(    3) = (   0.3333333   0.1924501   0.0000000), wk =   0.4444444
        k(    4) = (   0.3333333   0.3849002   0.0000000), wk =   0.4444444
        k(    5) = (   0.3333333  -0.0000000   0.0000000), wk =   0.4444444

                       cryst. coord.
        k(    1) = (   0.0000000   0.0000000   0.0000000), wk =   0.2222222
        k(    2) = (   0.0000000   0.3333333   0.0000000), wk =   0.4444444
        k(    3) = (   0.3333333   0.0000000   0.0000000), wk =   0.4444444
        k(    4) = (   0.3333333   0.3333333   0.0000000), wk =   0.4444444
        k(    5) = (   0.3333333  -0.3333333   0.0000000), wk =   0.4444444

     Dense  grid:   362371 G-vectors     FFT dimensions: (  45,  90, 216)

     Dynamical RAM for                 wfc:       9.45 MB

     Dynamical RAM for     wfc (w. buffer):      56.68 MB

     Dynamical RAM for           str. fact:       0.74 MB

     Dynamical RAM for           local pot:       0.00 MB

     Dynamical RAM for          nlocal pot:      15.21 MB

     Dynamical RAM for                qrad:       4.54 MB

     Dynamical RAM for          rho,v,vnew:       1.29 MB

     Dynamical RAM for               rhoin:       0.43 MB

     Dynamical RAM for            rho*nmix:       2.95 MB

     Dynamical RAM for           G-vectors:       0.78 MB

     Dynamical RAM for          h,s,v(r/c):       1.92 MB

     Dynamical RAM for          <psi|beta>:       4.13 MB

     Dynamical RAM for                 psi:      18.89 MB

     Dynamical RAM for                hpsi:      18.89 MB

     Dynamical RAM for                spsi:      18.89 MB

     Dynamical RAM for      wfcinit/wfcrot:      25.91 MB

     Dynamical RAM for           addusdens:      40.20 MB

     Dynamical RAM for          addusforce:      51.85 MB

     Dynamical RAM for         addusstress:      37.07 MB

     Estimated static dynamical RAM per process >      81.84 MB

     Estimated max dynamical RAM per process >     147.52 MB

     Estimated total dynamical RAM >       4.32 GB

     Check: negative core charge=   -0.000011

     Initial potential from superposition of free atoms

     starting charge     683.9951, renormalised to     684.0000

     negative rho (up, down):  2.518E-04 0.000E+00
     Starting wfcs are  458 randomized atomic wfcs
[psid05:89446] 29 more processes have sent help message help-mpi-btl-openib.txt / ib port not selected
[psid05:89446] Set MCA parameter "orte_base_help_aggregate" to 0 to see all help / error messages
[psid05:89446] 29 more processes have sent help message help-mpi-btl-openib.txt / error in device init
     Checking if some PAW data can be deallocated... 
       PAW data deallocated on   24 nodes for type:  2

     total cpu time spent up to now is       22.2 secs

     Self-consistent Calculation

     iteration #  1     ecut=    50.00 Ry     beta= 0.70
     Davidson diagonalization with overlap

---- Real-time Memory Report at c_bands before calling an iterative solver
           134 MiB given to the printing process from OS
             0 MiB allocation reported by mallinfo(arena+hblkhd)
        100702 MiB available memory on the node where the printing process lives
------------------
     ethr =  1.00E-02,  avg # of iterations =  7.4

     negative rho (up, down):  4.170E-04 0.000E+00

     total cpu time spent up to now is      106.6 secs

     total energy              =  -14935.57835387 Ry
     estimated scf accuracy    <      13.73914125 Ry

     iteration #  2     ecut=    50.00 Ry     beta= 0.70
     Davidson diagonalization with overlap

---- Real-time Memory Report at c_bands before calling an iterative solver
           180 MiB given to the printing process from OS
             0 MiB allocation reported by mallinfo(arena+hblkhd)
        100082 MiB available memory on the node where the printing process lives
------------------
     ethr =  2.01E-03,  avg # of iterations = 13.6

     negative rho (up, down):  4.291E-04 0.000E+00

     total cpu time spent up to now is      236.9 secs

     total energy              =  -14895.93351293 Ry
     estimated scf accuracy    <    1437.03844141 Ry

     iteration #  3     ecut=    50.00 Ry     beta= 0.70
     Davidson diagonalization with overlap

---- Real-time Memory Report at c_bands before calling an iterative solver
           184 MiB given to the printing process from OS
             0 MiB allocation reported by mallinfo(arena+hblkhd)
         99974 MiB available memory on the node where the printing process lives
------------------
     ethr =  2.01E-03,  avg # of iterations =  9.4

     negative rho (up, down):  4.189E-04 0.000E+00

     total cpu time spent up to now is      427.2 secs

     total energy              =  -14937.37378639 Ry
     estimated scf accuracy    <     106.53609203 Ry

     iteration #  4     ecut=    50.00 Ry     beta= 0.70
     Davidson diagonalization with overlap

---- Real-time Memory Report at c_bands before calling an iterative solver
           184 MiB given to the printing process from OS
             0 MiB allocation reported by mallinfo(arena+hblkhd)
         99931 MiB available memory on the node where the printing process lives
------------------
     ethr =  2.01E-03,  avg # of iterations =  7.8

     negative rho (up, down):  1.148E-04 0.000E+00

     total cpu time spent up to now is      511.7 secs

     total energy              =  -14941.00771389 Ry
     estimated scf accuracy    <     105.04327802 Ry

     iteration #  5     ecut=    50.00 Ry     beta= 0.70
     Davidson diagonalization with overlap

---- Real-time Memory Report at c_bands before calling an iterative solver
           185 MiB given to the printing process from OS
             0 MiB allocation reported by mallinfo(arena+hblkhd)
         99923 MiB available memory on the node where the printing process lives
------------------
     ethr =  2.01E-03,  avg # of iterations =  4.8

     negative rho (up, down):  1.125E-04 0.000E+00

     total cpu time spent up to now is      584.7 secs

     total energy              =  -14945.71527562 Ry
     estimated scf accuracy    <       3.15216767 Ry

     iteration #  6     ecut=    50.00 Ry     beta= 0.70
     Davidson diagonalization with overlap

---- Real-time Memory Report at c_bands before calling an iterative solver
           186 MiB given to the printing process from OS
             0 MiB allocation reported by mallinfo(arena+hblkhd)
         99903 MiB available memory on the node where the printing process lives
------------------
     ethr =  4.61E-04,  avg # of iterations =  6.8

     negative rho (up, down):  2.558E-04 0.000E+00

     total cpu time spent up to now is      658.6 secs

     total energy              =  -14946.04009857 Ry
     estimated scf accuracy    <       0.11183258 Ry

     iteration #  7     ecut=    50.00 Ry     beta= 0.70
     Davidson diagonalization with overlap

---- Real-time Memory Report at c_bands before calling an iterative solver
           186 MiB given to the printing process from OS
             0 MiB allocation reported by mallinfo(arena+hblkhd)
         99892 MiB available memory on the node where the printing process lives
------------------
     ethr =  1.63E-05,  avg # of iterations = 11.8

     negative rho (up, down):  3.987E-04 0.000E+00

     total cpu time spent up to now is      756.9 secs

     total energy              =  -14946.04777177 Ry
     estimated scf accuracy    <       0.04626732 Ry

     iteration #  8     ecut=    50.00 Ry     beta= 0.70
     Davidson diagonalization with overlap

---- Real-time Memory Report at c_bands before calling an iterative solver
           187 MiB given to the printing process from OS
             0 MiB allocation reported by mallinfo(arena+hblkhd)
         99896 MiB available memory on the node where the printing process lives
------------------
     ethr =  6.76E-06,  avg # of iterations =  9.6

     negative rho (up, down):  4.895E-04 0.000E+00

     total cpu time spent up to now is      841.9 secs

     total energy              =  -14946.05009051 Ry
     estimated scf accuracy    <       0.03979829 Ry

     iteration #  9     ecut=    50.00 Ry     beta= 0.70
     Davidson diagonalization with overlap

---- Real-time Memory Report at c_bands before calling an iterative solver
           187 MiB given to the printing process from OS
             0 MiB allocation reported by mallinfo(arena+hblkhd)
         99857 MiB available memory on the node where the printing process lives
------------------
     ethr =  5.82E-06,  avg # of iterations =  5.6

     negative rho (up, down):  5.155E-04 0.000E+00

     total cpu time spent up to now is      915.1 secs

     total energy              =  -14946.05476727 Ry
     estimated scf accuracy    <       0.01374476 Ry

     iteration # 10     ecut=    50.00 Ry     beta= 0.70
     Davidson diagonalization with overlap

---- Real-time Memory Report at c_bands before calling an iterative solver
           188 MiB given to the printing process from OS
             0 MiB allocation reported by mallinfo(arena+hblkhd)
         99843 MiB available memory on the node where the printing process lives
------------------
     ethr =  2.01E-06,  avg # of iterations =  7.6

     negative rho (up, down):  5.284E-04 0.000E+00

     total cpu time spent up to now is      987.4 secs

     total energy              =  -14946.05525186 Ry
     estimated scf accuracy    <       0.00814559 Ry

     iteration # 11     ecut=    50.00 Ry     beta= 0.70
     Davidson diagonalization with overlap

---- Real-time Memory Report at c_bands before calling an iterative solver
           188 MiB given to the printing process from OS
             0 MiB allocation reported by mallinfo(arena+hblkhd)
         99837 MiB available memory on the node where the printing process lives
------------------
     ethr =  1.19E-06,  avg # of iterations =  8.0

     negative rho (up, down):  6.298E-04 0.000E+00

     total cpu time spent up to now is     1058.1 secs

     total energy              =  -14946.05130966 Ry
     estimated scf accuracy    <       0.00614030 Ry

     iteration # 12     ecut=    50.00 Ry     beta= 0.70
     Davidson diagonalization with overlap

---- Real-time Memory Report at c_bands before calling an iterative solver
           188 MiB given to the printing process from OS
             0 MiB allocation reported by mallinfo(arena+hblkhd)
         99836 MiB available memory on the node where the printing process lives
------------------
     ethr =  8.98E-07,  avg # of iterations = 16.8

     negative rho (up, down):  6.374E-04 0.000E+00

     total cpu time spent up to now is     1152.3 secs

     total energy              =  -14946.05128348 Ry
     estimated scf accuracy    <       0.00702837 Ry

     iteration # 13     ecut=    50.00 Ry     beta= 0.70
     Davidson diagonalization with overlap

---- Real-time Memory Report at c_bands before calling an iterative solver
           188 MiB given to the printing process from OS
             0 MiB allocation reported by mallinfo(arena+hblkhd)
         99834 MiB available memory on the node where the printing process lives
------------------
     ethr =  8.98E-07,  avg # of iterations =  3.0

     negative rho (up, down):  5.773E-04 0.000E+00

     total cpu time spent up to now is     1223.7 secs

     total energy              =  -14946.05221990 Ry
     estimated scf accuracy    <       0.00322659 Ry

     iteration # 14     ecut=    50.00 Ry     beta= 0.70
     Davidson diagonalization with overlap

---- Real-time Memory Report at c_bands before calling an iterative solver
           188 MiB given to the printing process from OS
             0 MiB allocation reported by mallinfo(arena+hblkhd)
         99835 MiB available memory on the node where the printing process lives
------------------
     ethr =  4.72E-07,  avg # of iterations =  3.6

     negative rho (up, down):  5.908E-04 0.000E+00

     total cpu time spent up to now is     1294.5 secs

     total energy              =  -14946.05225378 Ry
     estimated scf accuracy    <       0.00505909 Ry

     iteration # 15     ecut=    50.00 Ry     beta= 0.70
     Davidson diagonalization with overlap

---- Real-time Memory Report at c_bands before calling an iterative solver
           188 MiB given to the printing process from OS
             0 MiB allocation reported by mallinfo(arena+hblkhd)
         99835 MiB available memory on the node where the printing process lives
------------------
     ethr =  4.72E-07,  avg # of iterations =  2.4

     negative rho (up, down):  5.765E-04 0.000E+00

     total cpu time spent up to now is     1361.4 secs

     total energy              =  -14946.05265966 Ry
     estimated scf accuracy    <       0.00037807 Ry

     iteration # 16     ecut=    50.00 Ry     beta= 0.70
     Davidson diagonalization with overlap

---- Real-time Memory Report at c_bands before calling an iterative solver
           188 MiB given to the printing process from OS
             0 MiB allocation reported by mallinfo(arena+hblkhd)
         99835 MiB available memory on the node where the printing process lives
------------------
     ethr =  5.53E-08,  avg # of iterations =  2.0

     negative rho (up, down):  5.751E-04 0.000E+00

     total cpu time spent up to now is     1427.8 secs

     total energy              =  -14946.05268736 Ry
     estimated scf accuracy    <       0.00002579 Ry

     iteration # 17     ecut=    50.00 Ry     beta= 0.70
     Davidson diagonalization with overlap

---- Real-time Memory Report at c_bands before calling an iterative solver
           188 MiB given to the printing process from OS
             0 MiB allocation reported by mallinfo(arena+hblkhd)
         99835 MiB available memory on the node where the printing process lives
------------------
     ethr =  3.77E-09,  avg # of iterations =  2.0

     negative rho (up, down):  5.730E-04 0.000E+00

     total cpu time spent up to now is     1497.0 secs

     total energy              =  -14946.05269121 Ry
     estimated scf accuracy    <       0.00001876 Ry

     iteration # 18     ecut=    50.00 Ry     beta= 0.70
     Davidson diagonalization with overlap

---- Real-time Memory Report at c_bands before calling an iterative solver
           188 MiB given to the printing process from OS
             0 MiB allocation reported by mallinfo(arena+hblkhd)
         99833 MiB available memory on the node where the printing process lives
------------------
     ethr =  2.74E-09,  avg # of iterations =  2.0

     negative rho (up, down):  5.721E-04 0.000E+00

     total cpu time spent up to now is     1564.2 secs

     total energy              =  -14946.05269385 Ry
     estimated scf accuracy    <       0.00000161 Ry

     iteration # 19     ecut=    50.00 Ry     beta= 0.70
     Davidson diagonalization with overlap

---- Real-time Memory Report at c_bands before calling an iterative solver
           188 MiB given to the printing process from OS
             0 MiB allocation reported by mallinfo(arena+hblkhd)
         99832 MiB available memory on the node where the printing process lives
------------------
     ethr =  2.35E-10,  avg # of iterations =  2.4

     negative rho (up, down):  5.714E-04 0.000E+00

     total cpu time spent up to now is     1632.6 secs

     total energy              =  -14946.05269407 Ry
     estimated scf accuracy    <       0.00000108 Ry

     iteration # 20     ecut=    50.00 Ry     beta= 0.70
     Davidson diagonalization with overlap

---- Real-time Memory Report at c_bands before calling an iterative solver
           188 MiB given to the printing process from OS
             0 MiB allocation reported by mallinfo(arena+hblkhd)
         99830 MiB available memory on the node where the printing process lives
------------------
     ethr =  1.58E-10,  avg # of iterations =  2.0

     negative rho (up, down):  5.710E-04 0.000E+00

     total cpu time spent up to now is     1700.1 secs

     End of self-consistent calculation

          k = 0.0000 0.0000 0.0000 ( 45257 PWs)   bands (ev):

  -122.4416-122.4398-122.4394-122.4387-122.4379-122.4378-122.4373-122.4371
  -122.3635-122.3621-122.3601-122.3570-122.3562-122.3548-122.3537-122.3534
  -122.2232-122.2215-122.2204-122.2203-122.2199-122.2187-122.2179-122.2167
  -122.2054-122.1888-122.1811-122.1801-122.1777-122.1740-122.1716-122.1710
   -76.6060 -76.6055 -76.6015 -76.6005 -76.6000 -76.5958 -76.5938 -76.5935
   -76.5926 -76.5917 -76.5916 -76.5911 -76.5909 -76.5840 -76.5836 -76.5820
   -76.5817 -76.5806 -76.5764 -76.5762 -76.5762 -76.5756 -76.5713 -76.5660
   -76.5264 -76.5252 -76.5208 -76.5184 -76.5178 -76.5177 -76.5162 -76.5142
   -76.5112 -76.5104 -76.5089 -76.5078 -76.5076 -76.5041 -76.5030 -76.5017
   -76.5008 -76.4995 -76.4961 -76.4941 -76.4938 -76.4932 -76.4887 -76.4842
   -76.3856 -76.3841 -76.3840 -76.3837 -76.3826 -76.3824 -76.3819 -76.3809
   -76.3800 -76.3794 -76.3787 -76.3785 -76.3782 -76.3694 -76.3620 -76.3616
   -76.3598 -76.3598 -76.3591 -76.3570 -76.3545 -76.3543 -76.3539 -76.3537
   -76.3535 -76.3505 -76.3493 -76.3461 -76.3449 -76.3438 -76.3427 -76.3426
   -76.3385 -76.3364 -76.3362 -76.3359 -76.3342 -76.3293 -76.3240 -76.3226
   -76.3173 -76.3156 -76.3147 -76.3110 -76.3096 -76.3084 -76.3039 -76.3002
   -15.0907 -13.6169 -12.8424 -10.4591 -10.3930  -7.4490  -7.1835  -5.9726
    -5.2999  -5.2202  -4.7095  -4.6678  -4.5281  -4.4303  -4.3967  -4.3952
    -4.2652  -4.2636  -4.2634  -4.1714  -4.1698  -4.1693  -4.0671  -4.0641
    -4.0586  -4.0581  -4.0578  -3.9724  -3.9698  -3.9674  -3.9337  -3.9332
    -3.8950  -3.8946  -3.8943  -3.8273  -3.8264  -3.8264  -3.8227  -3.7964
    -3.7948  -3.7927  -3.7892  -3.7890  -3.7217  -3.7216  -3.6792  -3.6449
    -3.6444  -3.6422  -3.6399  -3.5931  -3.5928  -3.5889  -3.5865  -3.5836
    -3.5825  -3.5814  -3.5372  -3.5344  -3.4988  -3.4966  -3.4839  -3.4837
    -3.4623  -3.4608  -3.4602  -3.4579  -3.4543  -3.4470  -3.4452  -3.4347
    -3.3973  -3.3971  -3.3847  -3.3841  -3.3809  -3.3807  -3.3310  -3.3279
    -3.3026  -3.3013  -3.2601  -3.2599  -3.2384  -3.2376  -3.2121  -3.2119
    -3.1972  -3.1949  -3.1946  -3.1880  -3.1865  -3.1616  -3.1605  -3.1412
    -3.1378  -3.1373  -3.1341  -3.1137  -3.1121  -3.1110  -3.1107  -3.1104
    -3.1057  -3.1002  -3.0925  -3.0917  -3.0911  -3.0909  -3.0326  -3.0295
    -3.0277  -3.0250  -3.0243  -3.0008  -2.9998  -2.9863  -2.9829  -2.9672
    -2.9652  -2.9647  -2.9611  -2.9496  -2.9486  -2.9464  -2.9460  -2.8871
    -2.8853  -2.8816  -2.8753  -2.8729  -2.8468  -2.8467  -2.8392  -2.8361
    -2.8360  -2.8198  -2.8183  -2.8157  -2.8103  -2.8082  -2.8041  -2.8018
    -2.8018  -2.8005  -2.7997  -2.7793  -2.7788  -2.7536  -2.7512  -2.7476
    -2.7450  -2.7431  -2.7346  -2.7308  -2.7010  -2.6971  -2.6714  -2.6707
    -2.6696  -2.6467  -2.6466  -2.6466  -2.6464  -2.6442  -2.5804  -2.5658
    -2.5650  -2.5645  -2.5287  -2.4237  -2.4235  -2.4232  -2.4149  -2.4139
    -2.3857  -2.3834  -2.3798  -2.1595  -1.6216  -1.3469  -1.0296  -1.0239
    -0.6495  -0.4290  -0.2947   0.3853   0.5016   0.5018   0.7517   0.7540
     0.8133   1.0220   1.3052   1.3060   1.5505   1.5717   1.7911   1.7943
     1.7960   2.3456   2.3566   2.3625   2.6538   2.6569   2.6597   2.7001
     2.7020   2.9198   2.9291   2.9337   3.0388   3.8629   3.8644   4.2891
     4.2938   4.3828   4.9572   4.9700   4.9819   5.2589   5.2622   5.2785
     5.9863   5.9908   5.9950   6.2531   6.2857   6.6327   6.6635   6.7681
     6.9168   6.9181   6.9250   7.5029   7.7114   7.7132   7.9055   8.0460
     8.0478   8.2247   8.2251   8.3570   8.5536   8.6144   8.8768   8.8861
     8.8978   8.9002   8.9028   8.9712   8.9762   9.1798   9.2903   9.4074
     9.4525   9.6601   9.6977   9.8735   9.8943   9.9075  10.3920  10.3999
    10.4391  10.4446  10.4522  10.4605  10.4904  10.6267  10.8656  11.0526
    11.1624  11.2861  11.4568  11.4621  11.5072  11.5717  11.6637  11.7523
    11.8253  11.8950

     occupation numbers 
     1.0000   1.0000   1.0000   1.0000   1.0000   1.0000   1.0000   1.0000
     1.0000   1.0000   1.0000   1.0000   1.0000   1.0000   1.0000   1.0000
     1.0000   1.0000   1.0000   1.0000   1.0000   1.0000   1.0000   1.0000
     1.0000   1.0000   1.0000   1.0000   1.0000   1.0000   1.0000   1.0000
     1.0000   1.0000   1.0000   1.0000   1.0000   1.0000   1.0000   1.0000
     1.0000   1.0000   1.0000   1.0000   1.0000   1.0000   1.0000   1.0000
     1.0000   1.0000   1.0000   1.0000   1.0000   1.0000   1.0000   1.0000
     1.0000   1.0000   1.0000   1.0000   1.0000   1.0000   1.0000   1.0000
     1.0000   1.0000   1.0000   1.0000   1.0000   1.0000   1.0000   1.0000
     1.0000   1.0000   1.0000   1.0000   1.0000   1.0000   1.0000   1.0000
     1.0000   1.0000   1.0000   1.0000   1.0000   1.0000   1.0000   1.0000
     1.0000   1.0000   1.0000   1.0000   1.0000   1.0000   1.0000   1.0000
     1.0000   1.0000   1.0000   1.0000   1.0000   1.0000   1.0000   1.0000
     1.0000   1.0000   1.0000   1.0000   1.0000   1.0000   1.0000   1.0000
     1.0000   1.0000   1.0000   1.0000   1.0000   1.0000   1.0000   1.0000
     1.0000   1.0000   1.0000   1.0000   1.0000   1.0000   1.0000   1.0000
     1.0000   1.0000   1.0000   1.0000   1.0000   1.0000   1.0000   1.0000
     1.0000   1.0000   1.0000   1.0000   1.0000   1.0000   1.0000   1.0000
     1.0000   1.0000   1.0000   1.0000   1.0000   1.0000   1.0000   1.0000
     1.0000   1.0000   1.0000   1.0000   1.0000   1.0000   1.0000   1.0000
     1.0000   1.0000   1.0000   1.0000   1.0000   1.0000   1.0000   1.0000
     1.0000   1.0000   1.0000   1.0000   1.0000   1.0000   1.0000   1.0000
     1.0000   1.0000   1.0000   1.0000   1.0000   1.0000   1.0000   1.0000
     1.0000   1.0000   1.0000   1.0000   1.0000   1.0000   1.0000   1.0000
     1.0000   1.0000   1.0000   1.0000   1.0000   1.0000   1.0000   1.0000
     1.0000   1.0000   1.0000   1.0000   1.0000   1.0000   1.0000   1.0000
     1.0000   1.0000   1.0000   1.0000   1.0000   1.0000   1.0000   1.0000
     1.0000   1.0000   1.0000   1.0000   1.0000   1.0000   1.0000   1.0000
     1.0000   1.0000   1.0000   1.0000   1.0000   1.0000   1.0000   1.0000
     1.0000   1.0000   1.0000   1.0000   1.0000   1.0000   1.0000   1.0000
     1.0000   1.0000   1.0000   1.0000   1.0000   1.0000   1.0000   1.0000
     1.0000   1.0000   1.0000   1.0000   1.0000   1.0000   1.0000   1.0000
     1.0000   1.0000   1.0000   1.0000   1.0000   1.0000   1.0000   1.0000
     1.0000   1.0000   1.0000   1.0000   1.0000   1.0000   1.0000   1.0000
     1.0000   1.0000   1.0000   1.0000   1.0000   1.0000   1.0000   1.0000
     1.0000   1.0000   1.0000   1.0000   1.0000   1.0000   1.0000   1.0000
     1.0000   1.0000   1.0000   1.0000   1.0000   1.0000   1.0000   1.0000
     1.0000   1.0000   1.0000   1.0000   1.0000   1.0000   1.0000   1.0000
     1.0000   1.0000   1.0000   1.0000   1.0000   1.0000   1.0000   1.0000
     1.0000   1.0000   1.0000   1.0000   1.0000   1.0000   1.0000   1.0000
     1.0000   1.0000   1.0000   1.0000   1.0000   1.0000   1.0000   1.0000
     1.0000   1.0000   1.0000   1.0000   1.0000   1.0000   1.0000   1.0000
     1.0000   1.0000   1.0000   1.0000   1.0000   1.0321   1.0325   0.7973
     0.7855   0.5450   0.0005   0.0004   0.0003   0.0000   0.0000   0.0000
     0.0000   0.0000   0.0000   0.0000   0.0000   0.0000   0.0000   0.0000
     0.0000   0.0000   0.0000   0.0000   0.0000   0.0000   0.0000   0.0000
     0.0000   0.0000   0.0000   0.0000   0.0000   0.0000   0.0000   0.0000
     0.0000   0.0000   0.0000   0.0000   0.0000   0.0000   0.0000   0.0000
     0.0000   0.0000   0.0000   0.0000   0.0000   0.0000   0.0000   0.0000
     0.0000   0.0000   0.0000   0.0000   0.0000   0.0000   0.0000   0.0000
     0.0000   0.0000   0.0000   0.0000   0.0000   0.0000   0.0000   0.0000
     0.0000   0.0000

          k = 0.0000 0.1925 0.0000 ( 45262 PWs)   bands (ev):

  -122.4414-122.4404-122.4388-122.4387-122.4380-122.4378-122.4373-122.4371
  -122.3635-122.3621-122.3601-122.3570-122.3561-122.3548-122.3537-122.3534
  -122.2232-122.2217-122.2204-122.2202-122.2198-122.2188-122.2179-122.2167
  -122.2054-122.1888-122.1811-122.1801-122.1777-122.1740-122.1716-122.1710
   -76.6049 -76.6044 -76.6021 -76.6017 -76.5992 -76.5956 -76.5945 -76.5928
   -76.5927 -76.5926 -76.5918 -76.5916 -76.5911 -76.5909 -76.5805 -76.5801
   -76.5800 -76.5781 -76.5774 -76.5773 -76.5749 -76.5737 -76.5719 -76.5684
   -76.5259 -76.5245 -76.5196 -76.5191 -76.5185 -76.5177 -76.5162 -76.5142
   -76.5113 -76.5112 -76.5103 -76.5089 -76.5078 -76.5076 -76.5013 -76.5006
   -76.4998 -76.4967 -76.4947 -76.4945 -76.4936 -76.4924 -76.4889 -76.4863
   -76.3855 -76.3840 -76.3832 -76.3831 -76.3825 -76.3824 -76.3818 -76.3809
   -76.3800 -76.3800 -76.3796 -76.3787 -76.3771 -76.3705 -76.3694 -76.3586
   -76.3585 -76.3584 -76.3569 -76.3563 -76.3553 -76.3548 -76.3535 -76.3527
   -76.3521 -76.3501 -76.3498 -76.3461 -76.3461 -76.3449 -76.3427 -76.3424
   -76.3385 -76.3367 -76.3364 -76.3359 -76.3348 -76.3300 -76.3246 -76.3229
   -76.3176 -76.3152 -76.3125 -76.3102 -76.3091 -76.3083 -76.3040 -76.3017
   -15.0907 -13.6169 -12.8424 -10.4591 -10.3930  -7.4489  -7.1835  -5.7604
    -5.2996  -5.1547  -5.0219  -4.7096  -4.6668  -4.4887  -4.3929  -4.3143
    -4.2362  -4.1892  -4.1890  -4.1848  -4.1403  -4.1007  -4.0965  -4.0958
    -4.0699  -4.0279  -4.0164  -3.9979  -3.9974  -3.9837  -3.9835  -3.9560
    -3.9395  -3.9123  -3.9118  -3.9001  -3.8987  -3.8642  -3.8615  -3.8570
    -3.8561  -3.8468  -3.8464  -3.7742  -3.7653  -3.7636  -3.7623  -3.7402
    -3.7397  -3.6988  -3.6977  -3.6865  -3.6561  -3.6440  -3.6427  -3.6117
    -3.5694  -3.5682  -3.5631  -3.5543  -3.5371  -3.5353  -3.5221  -3.5112
    -3.5076  -3.4588  -3.4489  -3.4403  -3.4388  -3.4323  -3.4294  -3.4235
    -3.3973  -3.3968  -3.3580  -3.3485  -3.3462  -3.2981  -3.2897  -3.2887
    -3.2873  -3.2865  -3.2598  -3.2479  -3.2473  -3.2390  -3.2260  -3.2256
    -3.2108  -3.2058  -3.1990  -3.1849  -3.1617  -3.1516  -3.1418  -3.1401
    -3.1368  -3.1137  -3.1129  -3.0950  -3.0742  -3.0619  -3.0610  -3.0430
    -3.0418  -3.0319  -3.0285  -3.0280  -3.0187  -3.0105  -3.0090  -3.0021
    -3.0007  -2.9984  -2.9966  -2.9612  -2.9407  -2.9396  -2.9216  -2.9192
    -2.9184  -2.9152  -2.9094  -2.9044  -2.9037  -2.9027  -2.8986  -2.8986
    -2.8832  -2.8767  -2.8758  -2.8742  -2.8696  -2.8689  -2.8642  -2.8510
    -2.8506  -2.8339  -2.8289  -2.8279  -2.8105  -2.7990  -2.7890  -2.7888
    -2.7868  -2.7841  -2.7833  -2.7738  -2.7672  -2.7670  -2.7642  -2.7572
    -2.7505  -2.7406  -2.7286  -2.7167  -2.7165  -2.7073  -2.7042  -2.6681
    -2.6511  -2.6509  -2.6500  -2.6496  -2.6409  -2.6240  -2.6228  -2.6201
    -2.6010  -2.5786  -2.5187  -2.5186  -2.4828  -2.4803  -2.4784  -2.4420
    -2.3035  -2.1605  -1.9836  -1.8391  -1.6213  -1.3436  -1.1822  -0.5041
    -0.4289  -0.2955  -0.1376  -0.0541   0.2918   0.3857   0.6525   0.6530
     0.6650   0.8130   1.0207   1.1466   1.1474   1.4538   1.4545   1.5527
     1.8536   1.9135   1.9151   2.0017   2.0453   2.6493   2.8248   2.8282
     3.0255   3.0844   3.0934   3.4848   3.5383   3.5406   4.2932   4.2976
     4.5981   5.2068   5.2111   5.2390   5.4167   5.5279   5.5359   5.5927
     6.0805   6.0806   6.2211   6.3162   6.3187   6.6090   6.6620   6.7791
     6.7815   6.9787   7.0592   7.5183   7.6207   7.7143   7.7233   7.7848
     7.8083   7.8798   7.8859   8.1195   8.3525   8.3647   8.4179   8.4482
     8.4988   8.5089   8.5243   8.7642   8.8675   9.2421   9.3748   9.4709
     9.5049   9.5433   9.5924   9.8115   9.8937  10.1218  10.2137  10.3065
    10.4060  10.4510  10.6279  10.6943  10.7109  10.7172  10.8280  11.0006
    11.1718  11.3705  11.4420  11.5070  11.5343  11.5780  11.6073  11.6974
    11.8246  11.9542

     occupation numbers 
     1.0000   1.0000   1.0000   1.0000   1.0000   1.0000   1.0000   1.0000
     1.0000   1.0000   1.0000   1.0000   1.0000   1.0000   1.0000   1.0000
     1.0000   1.0000   1.0000   1.0000   1.0000   1.0000   1.0000   1.0000
     1.0000   1.0000   1.0000   1.0000   1.0000   1.0000   1.0000   1.0000
     1.0000   1.0000   1.0000   1.0000   1.0000   1.0000   1.0000   1.0000
     1.0000   1.0000   1.0000   1.0000   1.0000   1.0000   1.0000   1.0000
     1.0000   1.0000   1.0000   1.0000   1.0000   1.0000   1.0000   1.0000
     1.0000   1.0000   1.0000   1.0000   1.0000   1.0000   1.0000   1.0000
     1.0000   1.0000   1.0000   1.0000   1.0000   1.0000   1.0000   1.0000
     1.0000   1.0000   1.0000   1.0000   1.0000   1.0000   1.0000   1.0000
     1.0000   1.0000   1.0000   1.0000   1.0000   1.0000   1.0000   1.0000
     1.0000   1.0000   1.0000   1.0000   1.0000   1.0000   1.0000   1.0000
     1.0000   1.0000   1.0000   1.0000   1.0000   1.0000   1.0000   1.0000
     1.0000   1.0000   1.0000   1.0000   1.0000   1.0000   1.0000   1.0000
     1.0000   1.0000   1.0000   1.0000   1.0000   1.0000   1.0000   1.0000
     1.0000   1.0000   1.0000   1.0000   1.0000   1.0000   1.0000   1.0000
     1.0000   1.0000   1.0000   1.0000   1.0000   1.0000   1.0000   1.0000
     1.0000   1.0000   1.0000   1.0000   1.0000   1.0000   1.0000   1.0000
     1.0000   1.0000   1.0000   1.0000   1.0000   1.0000   1.0000   1.0000
     1.0000   1.0000   1.0000   1.0000   1.0000   1.0000   1.0000   1.0000
     1.0000   1.0000   1.0000   1.0000   1.0000   1.0000   1.0000   1.0000
     1.0000   1.0000   1.0000   1.0000   1.0000   1.0000   1.0000   1.0000
     1.0000   1.0000   1.0000   1.0000   1.0000   1.0000   1.0000   1.0000
     1.0000   1.0000   1.0000   1.0000   1.0000   1.0000   1.0000   1.0000
     1.0000   1.0000   1.0000   1.0000   1.0000   1.0000   1.0000   1.0000
     1.0000   1.0000   1.0000   1.0000   1.0000   1.0000   1.0000   1.0000
     1.0000   1.0000   1.0000   1.0000   1.0000   1.0000   1.0000   1.0000
     1.0000   1.0000   1.0000   1.0000   1.0000   1.0000   1.0000   1.0000
     1.0000   1.0000   1.0000   1.0000   1.0000   1.0000   1.0000   1.0000
     1.0000   1.0000   1.0000   1.0000   1.0000   1.0000   1.0000   1.0000
     1.0000   1.0000   1.0000   1.0000   1.0000   1.0000   1.0000   1.0000
     1.0000   1.0000   1.0000   1.0000   1.0000   1.0000   1.0000   1.0000
     1.0000   1.0000   1.0000   1.0000   1.0000   1.0000   1.0000   1.0000
     1.0000   1.0000   1.0000   1.0000   1.0000   1.0000   1.0000   1.0000
     1.0000   1.0000   1.0000   1.0000   1.0000   1.0000   1.0000   1.0000
     1.0000   1.0000   1.0000   1.0000   1.0000   1.0000   1.0000   1.0000
     1.0000   1.0000   1.0000   1.0000   1.0000   1.0000   1.0000   1.0000
     1.0000   1.0000   1.0000   1.0000   1.0000   1.0000   1.0000   1.0000
     1.0000   1.0000   1.0000   1.0000   1.0000   1.0000   1.0000   1.0000
     1.0000   1.0000   1.0000   1.0000   1.0000   1.0000   1.0000   1.0000
     1.0000   1.0000   1.0000   1.0000   1.0000   1.0000   1.0000   1.0000
     1.0000   1.0000   1.0000   1.0000   1.0000   1.0000   1.0000   1.0000
     1.0000   1.0000   1.0000   1.0001   1.0004   1.0004   0.7871   0.7761
     0.1071   0.0000   0.0000   0.0000   0.0000   0.0000   0.0000   0.0000
     0.0000   0.0000   0.0000   0.0000   0.0000   0.0000   0.0000   0.0000
     0.0000   0.0000   0.0000   0.0000   0.0000   0.0000   0.0000   0.0000
     0.0000   0.0000   0.0000   0.0000   0.0000   0.0000   0.0000   0.0000
     0.0000   0.0000   0.0000   0.0000   0.0000   0.0000   0.0000   0.0000
     0.0000   0.0000   0.0000   0.0000   0.0000   0.0000   0.0000   0.0000
     0.0000   0.0000   0.0000   0.0000   0.0000   0.0000   0.0000   0.0000
     0.0000   0.0000   0.0000   0.0000   0.0000   0.0000   0.0000   0.0000
     0.0000   0.0000

          k = 0.3333 0.1925 0.0000 ( 45348 PWs)   bands (ev):

  -122.4408-122.4399-122.4394-122.4386-122.4385-122.4379-122.4376-122.4371
  -122.3631-122.3621-122.3603-122.3570-122.3559-122.3549-122.3541-122.3534
  -122.2226-122.2215-122.2210-122.2203-122.2196-122.2189-122.2181-122.2168
  -122.2054-122.1887-122.1811-122.1801-122.1777-122.1738-122.1720-122.1710
   -76.6008 -76.5990 -76.5974 -76.5968 -76.5949 -76.5939 -76.5936 -76.5934
   -76.5934 -76.5926 -76.5922 -76.5917 -76.5913 -76.5908 -76.5874 -76.5849
   -76.5833 -76.5815 -76.5815 -76.5794 -76.5741 -76.5733 -76.5723 -76.5691
   -76.5211 -76.5192 -76.5173 -76.5170 -76.5162 -76.5149 -76.5145 -76.5122
   -76.5114 -76.5112 -76.5100 -76.5090 -76.5082 -76.5076 -76.5066 -76.5050
   -76.5020 -76.5004 -76.4994 -76.4972 -76.4935 -76.4909 -76.4903 -76.4868
   -76.3848 -76.3837 -76.3831 -76.3824 -76.3817 -76.3810 -76.3802 -76.3791
   -76.3788 -76.3774 -76.3753 -76.3749 -76.3716 -76.3714 -76.3694 -76.3654
   -76.3634 -76.3613 -76.3597 -76.3594 -76.3574 -76.3534 -76.3533 -76.3523
   -76.3507 -76.3503 -76.3490 -76.3467 -76.3461 -76.3448 -76.3427 -76.3382
   -76.3378 -76.3368 -76.3359 -76.3329 -76.3311 -76.3290 -76.3270 -76.3238
   -76.3201 -76.3175 -76.3153 -76.3136 -76.3115 -76.3080 -76.3056 -76.3017
   -15.0878 -13.6141 -12.8346 -10.4770 -10.3874  -7.4458  -7.1971  -5.2950
    -5.1544  -4.7166  -4.6642  -4.6143  -4.4882  -4.1833  -4.1072  -4.1001
    -4.0989  -4.0683  -4.0157  -3.9850  -3.9836  -3.9608  -3.9549  -3.9170
    -3.9122  -3.9107  -3.8950  -3.8661  -3.8620  -3.8566  -3.8559  -3.8423
    -3.8036  -3.8009  -3.7838  -3.7782  -3.7744  -3.7581  -3.7401  -3.7390
    -3.7069  -3.7042  -3.7035  -3.6977  -3.6967  -3.6878  -3.6466  -3.6420
    -3.6350  -3.6291  -3.6221  -3.6178  -3.6113  -3.5821  -3.5707  -3.5676
    -3.5550  -3.5510  -3.5387  -3.5332  -3.5269  -3.5245  -3.5219  -3.5090
    -3.5065  -3.5018  -3.4585  -3.4519  -3.4351  -3.4323  -3.4317  -3.4001
    -3.3957  -3.3849  -3.3687  -3.3579  -3.3520  -3.3487  -3.3428  -3.3198
    -3.3154  -3.3120  -3.2998  -3.2898  -3.2884  -3.2876  -3.2760  -3.2607
    -3.2502  -3.2483  -3.2473  -3.2152  -3.2070  -3.2058  -3.2021  -3.1724
    -3.1517  -3.1492  -3.1488  -3.1429  -3.1248  -3.1212  -3.1157  -3.1137
    -3.1127  -3.0943  -3.0938  -3.0906  -3.0861  -3.0706  -3.0638  -3.0610
    -3.0493  -3.0364  -3.0325  -3.0300  -3.0280  -3.0267  -3.0250  -3.0094
    -3.0075  -3.0027  -3.0016  -3.0007  -2.9979  -2.9947  -2.9750  -2.9666
    -2.9442  -2.9419  -2.9405  -2.9254  -2.9207  -2.9083  -2.9072  -2.9060
    -2.9047  -2.9022  -2.9013  -2.8999  -2.8873  -2.8817  -2.8790  -2.8748
    -2.8738  -2.8707  -2.8429  -2.8301  -2.8170  -2.8082  -2.7873  -2.7858
    -2.7844  -2.7835  -2.7816  -2.7803  -2.7762  -2.7633  -2.7599  -2.7555
    -2.7544  -2.7509  -2.7285  -2.7240  -2.7214  -2.6746  -2.6717  -2.6485
    -2.6473  -2.6410  -2.6347  -2.6219  -2.6152  -2.6007  -2.5771  -2.5661
    -2.3440  -2.1636  -1.9848  -1.8403  -1.7155  -1.6903  -1.3749  -1.3352
    -1.1829  -1.1655  -0.4764  -0.4112  -0.3003  -0.2589  -0.0548   0.2911
     0.3920   0.4275   0.6533   0.6539   0.7989   0.9505   1.0013   1.4540
     1.4555   1.4753   1.7603   2.0005   2.5966   2.6417   2.6601   2.8270
     2.8288   2.9784   3.3885   3.4093   4.2912   4.2998   4.6849   4.7720
     5.0288   5.2363   5.4150   5.8671   6.0754   6.0816   6.0829   6.2141
     6.5599   6.6052   6.7775   6.7830   6.8878   7.0941   7.4748   7.5213
     7.6361   7.6875   7.7159   7.7250   7.9718   8.2276   8.3414   8.3618
     8.3727   8.4506   8.4962   8.5615   8.6601   8.8423   8.9985   9.0851
     9.1347   9.2165   9.3530   9.3829   9.5027   9.5376   9.6555   9.7533
     9.8430   9.9065  10.0285  10.0509  10.1291  10.2571  10.3374  10.4183
    10.4595  10.5228  10.6780  10.7009  10.7076  10.7525  10.7907  10.9065
    11.0612  11.1473  11.2203  11.3480  11.3634  11.4395  11.5581  11.5673
    11.6185  11.6646

     occupation numbers 
     1.0000   1.0000   1.0000   1.0000   1.0000   1.0000   1.0000   1.0000
     1.0000   1.0000   1.0000   1.0000   1.0000   1.0000   1.0000   1.0000
     1.0000   1.0000   1.0000   1.0000   1.0000   1.0000   1.0000   1.0000
     1.0000   1.0000   1.0000   1.0000   1.0000   1.0000   1.0000   1.0000
     1.0000   1.0000   1.0000   1.0000   1.0000   1.0000   1.0000   1.0000
     1.0000   1.0000   1.0000   1.0000   1.0000   1.0000   1.0000   1.0000
     1.0000   1.0000   1.0000   1.0000   1.0000   1.0000   1.0000   1.0000
     1.0000   1.0000   1.0000   1.0000   1.0000   1.0000   1.0000   1.0000
     1.0000   1.0000   1.0000   1.0000   1.0000   1.0000   1.0000   1.0000
     1.0000   1.0000   1.0000   1.0000   1.0000   1.0000   1.0000   1.0000
     1.0000   1.0000   1.0000   1.0000   1.0000   1.0000   1.0000   1.0000
     1.0000   1.0000   1.0000   1.0000   1.0000   1.0000   1.0000   1.0000
     1.0000   1.0000   1.0000   1.0000   1.0000   1.0000   1.0000   1.0000
     1.0000   1.0000   1.0000   1.0000   1.0000   1.0000   1.0000   1.0000
     1.0000   1.0000   1.0000   1.0000   1.0000   1.0000   1.0000   1.0000
     1.0000   1.0000   1.0000   1.0000   1.0000   1.0000   1.0000   1.0000
     1.0000   1.0000   1.0000   1.0000   1.0000   1.0000   1.0000   1.0000
     1.0000   1.0000   1.0000   1.0000   1.0000   1.0000   1.0000   1.0000
     1.0000   1.0000   1.0000   1.0000   1.0000   1.0000   1.0000   1.0000
     1.0000   1.0000   1.0000   1.0000   1.0000   1.0000   1.0000   1.0000
     1.0000   1.0000   1.0000   1.0000   1.0000   1.0000   1.0000   1.0000
     1.0000   1.0000   1.0000   1.0000   1.0000   1.0000   1.0000   1.0000
     1.0000   1.0000   1.0000   1.0000   1.0000   1.0000   1.0000   1.0000
     1.0000   1.0000   1.0000   1.0000   1.0000   1.0000   1.0000   1.0000
     1.0000   1.0000   1.0000   1.0000   1.0000   1.0000   1.0000   1.0000
     1.0000   1.0000   1.0000   1.0000   1.0000   1.0000   1.0000   1.0000
     1.0000   1.0000   1.0000   1.0000   1.0000   1.0000   1.0000   1.0000
     1.0000   1.0000   1.0000   1.0000   1.0000   1.0000   1.0000   1.0000
     1.0000   1.0000   1.0000   1.0000   1.0000   1.0000   1.0000   1.0000
     1.0000   1.0000   1.0000   1.0000   1.0000   1.0000   1.0000   1.0000
     1.0000   1.0000   1.0000   1.0000   1.0000   1.0000   1.0000   1.0000
     1.0000   1.0000   1.0000   1.0000   1.0000   1.0000   1.0000   1.0000
     1.0000   1.0000   1.0000   1.0000   1.0000   1.0000   1.0000   1.0000
     1.0000   1.0000   1.0000   1.0000   1.0000   1.0000   1.0000   1.0000
     1.0000   1.0000   1.0000   1.0000   1.0000   1.0000   1.0000   1.0000
     1.0000   1.0000   1.0000   1.0000   1.0000   1.0000   1.0000   1.0000
     1.0000   1.0000   1.0000   1.0000   1.0000   1.0000   1.0000   1.0000
     1.0000   1.0000   1.0000   1.0000   1.0000   1.0000   1.0000   1.0000
     1.0000   1.0000   1.0000   1.0000   1.0000   1.0000   1.0000   1.0000
     1.0000   1.0000   1.0000   1.0000   1.0000   1.0000   1.0000   1.0000
     1.0000   1.0000   1.0000   1.0000   1.0000   1.0000   1.0000   1.0000
     1.0000   1.0000   1.0000   1.0000   1.0000   1.0000   1.0000   1.0000
     1.0000   1.0000   1.0000   1.0000   0.7922   0.7704   0.0402   0.0124
     0.0001   0.0000   0.0000   0.0000   0.0000   0.0000   0.0000   0.0000
     0.0000   0.0000   0.0000   0.0000   0.0000   0.0000   0.0000   0.0000
     0.0000   0.0000   0.0000   0.0000   0.0000   0.0000   0.0000   0.0000
     0.0000   0.0000   0.0000   0.0000   0.0000   0.0000   0.0000   0.0000
     0.0000   0.0000   0.0000   0.0000   0.0000   0.0000   0.0000   0.0000
     0.0000   0.0000   0.0000   0.0000   0.0000   0.0000   0.0000   0.0000
     0.0000   0.0000   0.0000   0.0000   0.0000   0.0000   0.0000   0.0000
     0.0000   0.0000   0.0000   0.0000   0.0000   0.0000   0.0000   0.0000
     0.0000   0.0000

          k = 0.3333 0.3849 0.0000 ( 45348 PWs)   bands (ev):

  -122.4408-122.4398-122.4395-122.4387-122.4384-122.4379-122.4375-122.4371
  -122.3631-122.3621-122.3603-122.3570-122.3559-122.3549-122.3541-122.3535
  -122.2226-122.2215-122.2210-122.2202-122.2197-122.2189-122.2181-122.2168
  -122.2054-122.1887-122.1811-122.1801-122.1777-122.1738-122.1720-122.1710
   -76.6007 -76.5991 -76.5973 -76.5969 -76.5949 -76.5939 -76.5936 -76.5935
   -76.5934 -76.5926 -76.5922 -76.5918 -76.5913 -76.5908 -76.5873 -76.5849
   -76.5832 -76.5815 -76.5814 -76.5794 -76.5740 -76.5732 -76.5724 -76.5690
   -76.5210 -76.5193 -76.5173 -76.5170 -76.5162 -76.5151 -76.5145 -76.5121
   -76.5114 -76.5112 -76.5100 -76.5090 -76.5082 -76.5076 -76.5064 -76.5048
   -76.5021 -76.5009 -76.4994 -76.4971 -76.4935 -76.4911 -76.4899 -76.4869
   -76.3848 -76.3837 -76.3831 -76.3823 -76.3818 -76.3810 -76.3802 -76.3791
   -76.3788 -76.3774 -76.3754 -76.3749 -76.3716 -76.3714 -76.3694 -76.3653
   -76.3633 -76.3613 -76.3597 -76.3595 -76.3574 -76.3534 -76.3533 -76.3522
   -76.3511 -76.3500 -76.3490 -76.3468 -76.3461 -76.3449 -76.3427 -76.3383
   -76.3382 -76.3368 -76.3359 -76.3344 -76.3299 -76.3277 -76.3258 -76.3238
   -76.3218 -76.3195 -76.3150 -76.3126 -76.3113 -76.3081 -76.3048 -76.3023
   -15.0878 -13.6141 -12.8346 -10.4770 -10.3874  -7.4458  -7.1971  -5.2949
    -5.1544  -4.7167  -4.6643  -4.6142  -4.4881  -4.1835  -4.1071  -4.0999
    -4.0989  -4.0686  -4.0153  -3.9849  -3.9835  -3.9604  -3.9548  -3.9171
    -3.9116  -3.9109  -3.8951  -3.8663  -3.8619  -3.8567  -3.8559  -3.8426
    -3.8037  -3.8019  -3.7831  -3.7782  -3.7745  -3.7578  -3.7404  -3.7398
    -3.7063  -3.7040  -3.7035  -3.6981  -3.6969  -3.6869  -3.6450  -3.6435
    -3.6351  -3.6292  -3.6212  -3.6179  -3.6111  -3.5824  -3.5718  -3.5679
    -3.5548  -3.5512  -3.5365  -3.5353  -3.5283  -3.5234  -3.5213  -3.5089
    -3.5073  -3.5019  -3.4588  -3.4519  -3.4354  -3.4328  -3.4303  -3.3977
    -3.3969  -3.3850  -3.3680  -3.3584  -3.3521  -3.3499  -3.3431  -3.3195
    -3.3150  -3.3136  -3.3000  -3.2898  -3.2888  -3.2875  -3.2753  -3.2607
    -3.2500  -3.2483  -3.2473  -3.2162  -3.2063  -3.2055  -3.2020  -3.1713
    -3.1512  -3.1492  -3.1489  -3.1432  -3.1247  -3.1213  -3.1157  -3.1142
    -3.1136  -3.0945  -3.0940  -3.0923  -3.0839  -3.0707  -3.0639  -3.0612
    -3.0485  -3.0358  -3.0338  -3.0300  -3.0283  -3.0276  -3.0229  -3.0087
    -3.0071  -3.0025  -3.0014  -3.0006  -2.9985  -2.9947  -2.9751  -2.9663
    -2.9437  -2.9419  -2.9413  -2.9254  -2.9189  -2.9119  -2.9072  -2.9059
    -2.9045  -2.9009  -2.9004  -2.8990  -2.8870  -2.8819  -2.8791  -2.8763
    -2.8740  -2.8703  -2.8432  -2.8293  -2.8170  -2.8082  -2.7872  -2.7857
    -2.7845  -2.7835  -2.7816  -2.7806  -2.7761  -2.7632  -2.7599  -2.7545
    -2.7541  -2.7514  -2.7294  -2.7243  -2.7208  -2.6748  -2.6697  -2.6484
    -2.6477  -2.6410  -2.6340  -2.6195  -2.6183  -2.6007  -2.5770  -2.5681
    -2.3441  -2.1641  -1.9847  -1.8395  -1.7171  -1.6900  -1.3771  -1.3324
    -1.1826  -1.1654  -0.4757  -0.4120  -0.2988  -0.2607  -0.0540   0.2915
     0.3917   0.4265   0.6533   0.6537   0.7988   0.9554   0.9961   1.4544
     1.4550   1.4750   1.7603   2.0011   2.5966   2.6468   2.6606   2.8218
     2.8283   2.9742   3.3947   3.4080   4.2930   4.2984   4.6843   4.7727
     5.0285   5.2378   5.4145   5.8615   6.0772   6.0804   6.0828   6.2167
     6.5750   6.5909   6.7803   6.7817   6.8866   7.0990   7.4729   7.5169
     7.6339   7.6875   7.7206   7.7290   8.0134   8.2406   8.3510   8.3604
     8.3701   8.4469   8.4754   8.5612   8.7507   8.8440   8.9754   9.0018
     9.0907   9.2003   9.2639   9.4798   9.5059   9.5378   9.6520   9.7822
     9.8583   9.9302  10.0423  10.1111  10.2006  10.2317  10.3005  10.3708
    10.4329  10.4761  10.5666  10.6217  10.7043  10.7111  10.8405  10.8560
    11.0314  11.1655  11.2267  11.3622  11.4023  11.4753  11.5581  11.5638
    11.5869  11.7186

     occupation numbers 
     1.0000   1.0000   1.0000   1.0000   1.0000   1.0000   1.0000   1.0000
     1.0000   1.0000   1.0000   1.0000   1.0000   1.0000   1.0000   1.0000
     1.0000   1.0000   1.0000   1.0000   1.0000   1.0000   1.0000   1.0000
     1.0000   1.0000   1.0000   1.0000   1.0000   1.0000   1.0000   1.0000
     1.0000   1.0000   1.0000   1.0000   1.0000   1.0000   1.0000   1.0000
     1.0000   1.0000   1.0000   1.0000   1.0000   1.0000   1.0000   1.0000
     1.0000   1.0000   1.0000   1.0000   1.0000   1.0000   1.0000   1.0000
     1.0000   1.0000   1.0000   1.0000   1.0000   1.0000   1.0000   1.0000
     1.0000   1.0000   1.0000   1.0000   1.0000   1.0000   1.0000   1.0000
     1.0000   1.0000   1.0000   1.0000   1.0000   1.0000   1.0000   1.0000
     1.0000   1.0000   1.0000   1.0000   1.0000   1.0000   1.0000   1.0000
     1.0000   1.0000   1.0000   1.0000   1.0000   1.0000   1.0000   1.0000
     1.0000   1.0000   1.0000   1.0000   1.0000   1.0000   1.0000   1.0000
     1.0000   1.0000   1.0000   1.0000   1.0000   1.0000   1.0000   1.0000
     1.0000   1.0000   1.0000   1.0000   1.0000   1.0000   1.0000   1.0000
     1.0000   1.0000   1.0000   1.0000   1.0000   1.0000   1.0000   1.0000
     1.0000   1.0000   1.0000   1.0000   1.0000   1.0000   1.0000   1.0000
     1.0000   1.0000   1.0000   1.0000   1.0000   1.0000   1.0000   1.0000
     1.0000   1.0000   1.0000   1.0000   1.0000   1.0000   1.0000   1.0000
     1.0000   1.0000   1.0000   1.0000   1.0000   1.0000   1.0000   1.0000
     1.0000   1.0000   1.0000   1.0000   1.0000   1.0000   1.0000   1.0000
     1.0000   1.0000   1.0000   1.0000   1.0000   1.0000   1.0000   1.0000
     1.0000   1.0000   1.0000   1.0000   1.0000   1.0000   1.0000   1.0000
     1.0000   1.0000   1.0000   1.0000   1.0000   1.0000   1.0000   1.0000
     1.0000   1.0000   1.0000   1.0000   1.0000   1.0000   1.0000   1.0000
     1.0000   1.0000   1.0000   1.0000   1.0000   1.0000   1.0000   1.0000
     1.0000   1.0000   1.0000   1.0000   1.0000   1.0000   1.0000   1.0000
     1.0000   1.0000   1.0000   1.0000   1.0000   1.0000   1.0000   1.0000
     1.0000   1.0000   1.0000   1.0000   1.0000   1.0000   1.0000   1.0000
     1.0000   1.0000   1.0000   1.0000   1.0000   1.0000   1.0000   1.0000
     1.0000   1.0000   1.0000   1.0000   1.0000   1.0000   1.0000   1.0000
     1.0000   1.0000   1.0000   1.0000   1.0000   1.0000   1.0000   1.0000
     1.0000   1.0000   1.0000   1.0000   1.0000   1.0000   1.0000   1.0000
     1.0000   1.0000   1.0000   1.0000   1.0000   1.0000   1.0000   1.0000
     1.0000   1.0000   1.0000   1.0000   1.0000   1.0000   1.0000   1.0000
     1.0000   1.0000   1.0000   1.0000   1.0000   1.0000   1.0000   1.0000
     1.0000   1.0000   1.0000   1.0000   1.0000   1.0000   1.0000   1.0000
     1.0000   1.0000   1.0000   1.0000   1.0000   1.0000   1.0000   1.0000
     1.0000   1.0000   1.0000   1.0000   1.0000   1.0000   1.0000   1.0000
     1.0000   1.0000   1.0000   1.0000   1.0000   1.0000   1.0000   1.0000
     1.0000   1.0000   1.0000   1.0000   1.0000   1.0000   1.0000   1.0000
     1.0000   1.0000   1.0000   1.0000   1.0000   1.0000   1.0000   1.0000
     1.0000   1.0000   1.0000   1.0000   0.7876   0.7740   0.0405   0.0123
     0.0001   0.0000   0.0000   0.0000   0.0000   0.0000   0.0000   0.0000
     0.0000   0.0000   0.0000   0.0000   0.0000   0.0000   0.0000   0.0000
     0.0000   0.0000   0.0000   0.0000   0.0000   0.0000   0.0000   0.0000
     0.0000   0.0000   0.0000   0.0000   0.0000   0.0000   0.0000   0.0000
     0.0000   0.0000   0.0000   0.0000   0.0000   0.0000   0.0000   0.0000
     0.0000   0.0000   0.0000   0.0000   0.0000   0.0000   0.0000   0.0000
     0.0000   0.0000   0.0000   0.0000   0.0000   0.0000   0.0000   0.0000
     0.0000   0.0000   0.0000   0.0000   0.0000   0.0000   0.0000   0.0000
     0.0000   0.0000

          k = 0.3333-0.0000 0.0000 ( 45368 PWs)   bands (ev):

  -122.4409-122.4395-122.4393-122.4390-122.4384-122.4380-122.4375-122.4370
  -122.3631-122.3621-122.3603-122.3569-122.3559-122.3549-122.3540-122.3534
  -122.2226-122.2214-122.2209-122.2201-122.2199-122.2188-122.2181-122.2168
  -122.2054-122.1887-122.1811-122.1801-122.1777-122.1738-122.1720-122.1710
   -76.6001 -76.5997 -76.5987 -76.5966 -76.5951 -76.5935 -76.5933 -76.5930
   -76.5922 -76.5919 -76.5919 -76.5913 -76.5912 -76.5908 -76.5885 -76.5883
   -76.5860 -76.5782 -76.5770 -76.5769 -76.5767 -76.5765 -76.5734 -76.5679
   -76.5208 -76.5196 -76.5180 -76.5173 -76.5162 -76.5145 -76.5142 -76.5111
   -76.5111 -76.5101 -76.5098 -76.5090 -76.5083 -76.5082 -76.5076 -76.5069
   -76.5041 -76.4985 -76.4965 -76.4955 -76.4946 -76.4937 -76.4907 -76.4859
   -76.3849 -76.3836 -76.3830 -76.3822 -76.3821 -76.3810 -76.3802 -76.3788
   -76.3784 -76.3782 -76.3766 -76.3746 -76.3701 -76.3694 -76.3692 -76.3667
   -76.3663 -76.3640 -76.3568 -76.3552 -76.3550 -76.3545 -76.3544 -76.3535
   -76.3533 -76.3509 -76.3491 -76.3461 -76.3456 -76.3448 -76.3428 -76.3382
   -76.3381 -76.3368 -76.3359 -76.3334 -76.3306 -76.3287 -76.3258 -76.3244
   -76.3212 -76.3186 -76.3147 -76.3122 -76.3108 -76.3093 -76.3056 -76.3016
   -15.0878 -13.6141 -12.8346 -10.4770 -10.3874  -7.4458  -7.1971  -5.3484
    -5.2950  -4.7170  -4.6756  -4.6342  -4.1719  -4.1317  -4.1314  -4.0978
    -4.0364  -4.0353  -4.0193  -3.9671  -3.9667  -3.9658  -3.9390  -3.9388
    -3.9381  -3.8829  -3.8407  -3.8398  -3.7921  -3.7916  -3.7775  -3.7750
    -3.7739  -3.7696  -3.7691  -3.7683  -3.7587  -3.7217  -3.7206  -3.7197
    -3.7196  -3.7157  -3.7111  -3.7094  -3.6722  -3.6414  -3.6409  -3.6380
    -3.6358  -3.6231  -3.6139  -3.6100  -3.6097  -3.6091  -3.5779  -3.5715
    -3.5681  -3.5660  -3.5649  -3.5573  -3.5435  -3.5395  -3.5376  -3.4898
    -3.4870  -3.4722  -3.4674  -3.4628  -3.4623  -3.4619  -3.4386  -3.4379
    -3.4367  -3.4183  -3.4166  -3.4134  -3.4104  -3.3904  -3.3889  -3.3740
    -3.3728  -3.3688  -3.3651  -3.3492  -3.3225  -3.3214  -3.3124  -3.2977
    -3.2774  -3.2484  -3.2453  -3.2406  -3.2396  -3.2351  -3.2225  -3.2114
    -3.2109  -3.2071  -3.2057  -3.1842  -3.1838  -3.1724  -3.1707  -3.1448
    -3.1443  -3.1433  -3.1194  -3.1023  -3.0784  -3.0589  -3.0449  -3.0389
    -3.0381  -3.0358  -3.0343  -3.0339  -3.0268  -3.0235  -3.0225  -3.0210
    -3.0165  -3.0162  -3.0110  -2.9907  -2.9856  -2.9738  -2.9724  -2.9187
    -2.8967  -2.8943  -2.8897  -2.8881  -2.8872  -2.8861  -2.8847  -2.8786
    -2.8669  -2.8645  -2.8621  -2.8611  -2.8576  -2.8424  -2.8415  -2.8398
    -2.8211  -2.8196  -2.8115  -2.8107  -2.8027  -2.8023  -2.8004  -2.8001
    -2.7933  -2.7901  -2.7875  -2.7849  -2.7836  -2.7562  -2.7509  -2.7463
    -2.7452  -2.7429  -2.7363  -2.7299  -2.7293  -2.7204  -2.6991  -2.6701
    -2.6648  -2.6056  -2.6055  -2.5742  -2.5649  -2.5643  -2.3617  -2.3602
    -2.3600  -2.1638  -1.9865  -1.8000  -1.7946  -1.7934  -1.7146  -1.3554
    -0.8957  -0.8935  -0.4819  -0.4286  -0.4222  -0.4178  -0.2963  -0.2045
    -0.1012  -0.0965   0.3930   0.7989   0.9542   1.3089   1.3126   1.3131
     1.3266   1.3285   1.7580   2.3918   2.6902   2.9336   2.9547   2.9939
     3.1042   3.4917   3.7370   4.5445   4.5549   4.5664   4.8199   4.9263
     4.9749   5.0276   5.5060   5.5907   5.7219   5.7375   5.8464   6.4313
     6.4460   6.5768   6.6570   6.8330   6.8755   6.9249   6.9623   7.0110
     7.0135   7.1840   7.3703   7.4274   7.4401   7.4534   7.7460   7.7537
     8.1270   8.4259   8.4461   8.4975   8.5879   8.6855   8.7370   9.0333
     9.0827   9.0959   9.1281   9.2275   9.2412   9.4188   9.5059   9.5866
     9.7416   9.8975  10.0118  10.0455  10.3414  10.4676  10.4741  10.6141
    10.6497  10.7487  10.9478  10.9838  11.0312  11.1102  11.3239  11.3559
    11.4462  11.5186  11.5402  11.5928  11.7368  11.7950  11.8816  11.9849
    12.0150  12.1549

     occupation numbers 
     1.0000   1.0000   1.0000   1.0000   1.0000   1.0000   1.0000   1.0000
     1.0000   1.0000   1.0000   1.0000   1.0000   1.0000   1.0000   1.0000
     1.0000   1.0000   1.0000   1.0000   1.0000   1.0000   1.0000   1.0000
     1.0000   1.0000   1.0000   1.0000   1.0000   1.0000   1.0000   1.0000
     1.0000   1.0000   1.0000   1.0000   1.0000   1.0000   1.0000   1.0000
     1.0000   1.0000   1.0000   1.0000   1.0000   1.0000   1.0000   1.0000
     1.0000   1.0000   1.0000   1.0000   1.0000   1.0000   1.0000   1.0000
     1.0000   1.0000   1.0000   1.0000   1.0000   1.0000   1.0000   1.0000
     1.0000   1.0000   1.0000   1.0000   1.0000   1.0000   1.0000   1.0000
     1.0000   1.0000   1.0000   1.0000   1.0000   1.0000   1.0000   1.0000
     1.0000   1.0000   1.0000   1.0000   1.0000   1.0000   1.0000   1.0000
     1.0000   1.0000   1.0000   1.0000   1.0000   1.0000   1.0000   1.0000
     1.0000   1.0000   1.0000   1.0000   1.0000   1.0000   1.0000   1.0000
     1.0000   1.0000   1.0000   1.0000   1.0000   1.0000   1.0000   1.0000
     1.0000   1.0000   1.0000   1.0000   1.0000   1.0000   1.0000   1.0000
     1.0000   1.0000   1.0000   1.0000   1.0000   1.0000   1.0000   1.0000
     1.0000   1.0000   1.0000   1.0000   1.0000   1.0000   1.0000   1.0000
     1.0000   1.0000   1.0000   1.0000   1.0000   1.0000   1.0000   1.0000
     1.0000   1.0000   1.0000   1.0000   1.0000   1.0000   1.0000   1.0000
     1.0000   1.0000   1.0000   1.0000   1.0000   1.0000   1.0000   1.0000
     1.0000   1.0000   1.0000   1.0000   1.0000   1.0000   1.0000   1.0000
     1.0000   1.0000   1.0000   1.0000   1.0000   1.0000   1.0000   1.0000
     1.0000   1.0000   1.0000   1.0000   1.0000   1.0000   1.0000   1.0000
     1.0000   1.0000   1.0000   1.0000   1.0000   1.0000   1.0000   1.0000
     1.0000   1.0000   1.0000   1.0000   1.0000   1.0000   1.0000   1.0000
     1.0000   1.0000   1.0000   1.0000   1.0000   1.0000   1.0000   1.0000
     1.0000   1.0000   1.0000   1.0000   1.0000   1.0000   1.0000   1.0000
     1.0000   1.0000   1.0000   1.0000   1.0000   1.0000   1.0000   1.0000
     1.0000   1.0000   1.0000   1.0000   1.0000   1.0000   1.0000   1.0000
     1.0000   1.0000   1.0000   1.0000   1.0000   1.0000   1.0000   1.0000
     1.0000   1.0000   1.0000   1.0000   1.0000   1.0000   1.0000   1.0000
     1.0000   1.0000   1.0000   1.0000   1.0000   1.0000   1.0000   1.0000
     1.0000   1.0000   1.0000   1.0000   1.0000   1.0000   1.0000   1.0000
     1.0000   1.0000   1.0000   1.0000   1.0000   1.0000   1.0000   1.0000
     1.0000   1.0000   1.0000   1.0000   1.0000   1.0000   1.0000   1.0000
     1.0000   1.0000   1.0000   1.0000   1.0000   1.0000   1.0000   1.0000
     1.0000   1.0000   1.0000   1.0000   1.0000   1.0000   1.0000   1.0000
     1.0000   1.0000   1.0000   1.0000   1.0000   1.0000   1.0000   1.0000
     1.0000   1.0000   1.0000   1.0000   1.0000   1.0000   1.0000   1.0000
     1.0000   1.0000   1.0000   1.0000   1.0000   1.0000   1.0000   1.0000
     1.0000   1.0000   1.0000   1.0000   1.0000   1.0000   1.0000   1.0000
     1.0000   1.0000   1.0000   1.0000   1.0000   1.0000   1.0000   1.0000
     1.0000   1.0001   1.0081   0.1782   0.1623   0.1460   0.0060   0.0010
     0.0004   0.0001   0.0000   0.0000   0.0000   0.0000   0.0000   0.0000
     0.0000   0.0000   0.0000   0.0000   0.0000   0.0000   0.0000   0.0000
     0.0000   0.0000   0.0000   0.0000   0.0000   0.0000   0.0000   0.0000
     0.0000   0.0000   0.0000   0.0000   0.0000   0.0000   0.0000   0.0000
     0.0000   0.0000   0.0000   0.0000   0.0000   0.0000   0.0000   0.0000
     0.0000   0.0000   0.0000   0.0000   0.0000   0.0000   0.0000   0.0000
     0.0000   0.0000   0.0000   0.0000   0.0000   0.0000   0.0000   0.0000
     0.0000   0.0000   0.0000   0.0000   0.0000   0.0000   0.0000   0.0000
     0.0000   0.0000

     the Fermi energy is     4.4372 ev

!    total energy              =  -14946.05269408 Ry
     estimated scf accuracy    <       0.00000022 Ry
     smearing contrib. (-TS)   =      -0.00962635 Ry
     internal energy E=F+TS    =  -14946.04306772 Ry

     The total energy is F=E-TS. E is the sum of the following terms:
     one-electron contribution =  -78984.64157610 Ry
     hartree contribution      =   39528.69211534 Ry
     xc contribution           =   -1396.59724174 Ry
     ewald contribution        =   25949.68117868 Ry
     one-center paw contrib.   =     -43.17754390 Ry
      -> PAW hartree energy AE =       0.00000000 Ry
      -> PAW hartree energy PS =       0.00000000 Ry
      -> PAW xc energy AE      =       0.00000000 Ry
      -> PAW xc energy PS      =       0.00000000 Ry
      -> total E_H with PAW    =   39528.69211534 Ry
      -> total E_XC with PAW   =   -1396.59724174 Ry

     convergence has been achieved in  20 iterations

     negative rho (up, down):  5.710E-04 0.000E+00

     Forces acting on atoms (cartesian axes, Ry/au):

     atom    1 type  1   force =    -0.00009038    0.00000331   -0.00942206
     atom    2 type  1   force =    -0.00009378    0.00010864    0.00012692
     atom    3 type  1   force =    -0.00010265    0.00022984   -0.00922685
     atom    4 type  1   force =     0.00005368    0.00059672    0.00000907
     atom    5 type  1   force =    -0.00015190   -0.00002413   -0.00914955
     atom    6 type  1   force =     0.00008067   -0.00023477    0.00003622
     atom    7 type  1   force =    -0.00016088   -0.00013744   -0.00923787
     atom    8 type  1   force =     0.00000165   -0.00059193   -0.00005909
     atom    9 type  1   force =     0.00000239    0.00011081   -0.00933785
     atom   10 type  1   force =     0.00012090    0.00011072    0.00011005
     atom   11 type  1   force =     0.00001605    0.00029432   -0.00934293
     atom   12 type  1   force =    -0.00001102    0.00072398    0.00003746
     atom   13 type  1   force =     0.00005054    0.00008783   -0.00918203
     atom   14 type  1   force =    -0.00001963   -0.00025907    0.00008986
     atom   15 type  1   force =     0.00007466   -0.00002976   -0.00932407
     atom   16 type  1   force =     0.00003977   -0.00067259    0.00008735
     atom   17 type  1   force =    -0.00006009   -0.00013471    0.00845815
     atom   18 type  1   force =    -0.00003012   -0.00025164    0.00036693
     atom   19 type  1   force =    -0.00011278    0.00047220    0.00882450
     atom   20 type  1   force =     0.00008273    0.00033397    0.00016934
     atom   21 type  1   force =    -0.00014836   -0.00009631    0.00903374
     atom   22 type  1   force =    -0.00013284    0.00007265   -0.00015389
     atom   23 type  1   force =    -0.00016806   -0.00053026    0.00864537
     atom   24 type  1   force =    -0.00003408   -0.00043860    0.00029288
     atom   25 type  1   force =    -0.00017155   -0.00009069    0.00853807
     atom   26 type  1   force =     0.00000454   -0.00019207    0.00068495
     atom   27 type  1   force =    -0.00011221    0.00040872    0.00896251
     atom   28 type  1   force =    -0.00004494    0.00039397    0.00021279
     atom   29 type  1   force =    -0.00007712   -0.00007409    0.00912239
     atom   30 type  1   force =     0.00012442   -0.00001520    0.00010256
     atom   31 type  1   force =    -0.00005893   -0.00050817    0.00878121
     atom   32 type  1   force =     0.00015657   -0.00034362    0.00028555
     atom   33 type  2   force =    -0.00122002   -0.00324173    0.02636469
     atom   34 type  2   force =    -0.00212872   -0.00228523   -0.00260859
     atom   35 type  2   force =     0.00324523   -0.00014755    0.00317202
     atom   36 type  2   force =    -0.00153051    0.00146618    0.00170591
     atom   37 type  2   force =    -0.00194845    0.00169111    0.00060092
     atom   38 type  2   force =     0.00173923   -0.00237830   -0.00046111
     atom   39 type  2   force =     0.00052091    0.00019991   -0.00151300
     atom   40 type  3   force =     0.00240678    0.00437518   -0.02759615
     atom   41 type  3   force =    -0.00388094   -0.00188987   -0.00799491
     atom   42 type  4   force =     0.00698891   -0.00532109    0.00446780
     atom   43 type  4   force =    -0.00350181    0.00747955    0.00536706
     atom   44 type  4   force =    -0.00286683    0.00363563   -0.00228404
     atom   45 type  4   force =     0.00298972   -0.00331036    0.00215010
     atom   46 type  4   force =    -0.00315854    0.00320608    0.00293026
     atom   47 type  4   force =     0.00331780   -0.00280214   -0.00284260
     The non-local contrib.  to forces
     atom    1 type  1   force =    -0.00000557    0.00912737    0.08745946
     atom    2 type  1   force =    -0.00035405    0.00462701   -0.08070705
     atom    3 type  1   force =    -0.00012674    0.00925465    0.08618484
     atom    4 type  1   force =    -0.00111923    0.00800892   -0.07766941
     atom    5 type  1   force =     0.00016082    0.01080222    0.08771253
     atom    6 type  1   force =    -0.00394036    0.00146101   -0.08063134
     atom    7 type  1   force =     0.00038593    0.01028341    0.09136820
     atom    8 type  1   force =    -0.00151137    0.00229510   -0.08067913
     atom    9 type  1   force =    -0.00052481    0.00870871    0.08856367
     atom   10 type  1   force =     0.00156816    0.00732454   -0.08188522
     atom   11 type  1   force =    -0.00048686    0.00914626    0.08543538
     atom   12 type  1   force =     0.00240153    0.01312517   -0.08115559
     atom   13 type  1   force =    -0.00071504    0.01040126    0.08820337
     atom   14 type  1   force =     0.00537615    0.00338997   -0.08372095
     atom   15 type  1   force =    -0.00102104    0.00973833    0.09073891
     atom   16 type  1   force =     0.00264073    0.00393080   -0.08357448
     atom   17 type  1   force =    -0.00148091   -0.00596852    0.07081094
     atom   18 type  1   force =     0.00083211   -0.00876933   -0.08308118
     atom   19 type  1   force =    -0.00084173   -0.00541892    0.07268499
     atom   20 type  1   force =     0.00204755   -0.00238443   -0.08110965
     atom   21 type  1   force =    -0.00034926   -0.00563549    0.07262650
     atom   22 type  1   force =     0.00137141   -0.01177975   -0.08364541
     atom   23 type  1   force =    -0.00084298   -0.00655458    0.07143792
     atom   24 type  1   force =    -0.00126642   -0.01290188   -0.07916834
     atom   25 type  1   force =    -0.00057038   -0.00622930    0.07332177
     atom   26 type  1   force =     0.00002760   -0.00800790   -0.08687051
     atom   27 type  1   force =    -0.00111564   -0.00501974    0.07251207
     atom   28 type  1   force =    -0.00041954   -0.00335485   -0.10188700
     atom   29 type  1   force =    -0.00169714   -0.00559004    0.07183660
     atom   30 type  1   force =     0.00080200   -0.01281679   -0.11395844
     atom   31 type  1   force =    -0.00106706   -0.00747299    0.07217372
     atom   32 type  1   force =     0.00309165   -0.01457143   -0.09419094
     atom   33 type  2   force =     0.02212468    0.03800711   -0.24126547
     atom   34 type  2   force =    -0.02572393   -0.04395114    0.25696075
     atom   35 type  2   force =    -0.02510439    0.02634564    0.02037039
     atom   36 type  2   force =     0.02662894   -0.02992015    0.01554412
     atom   37 type  2   force =     0.02428818   -0.01618196   -0.05009262
     atom   38 type  2   force =    -0.01906584    0.02331686   -0.04891224
     atom   39 type  2   force =     0.05346903    0.06756796   -0.31651862
     atom   40 type  3   force =     0.15770907    0.27729181   -1.79141278
     atom   41 type  3   force =    -0.65150682   -0.53542463    0.07961756
     atom   42 type  4   force =     0.06659679   -0.05418691    0.04560303
     atom   43 type  4   force =    -0.03578961    0.07103953    0.05571757
     atom   44 type  4   force =    -0.04030574    0.05707161   -0.03450719
     atom   45 type  4   force =     0.04067175   -0.05558798    0.03235171
     atom   46 type  4   force =    -0.04560773    0.04546403    0.04017371
     atom   47 type  4   force =     0.04689132   -0.04555967   -0.04249240
     The ionic contribution  to forces
     atom    1 type  1   force =    -0.01490083   -0.43384731 -397.60969186
     atom    2 type  1   force =    -0.00442175   -0.43696494  123.11508174
     atom    3 type  1   force =    -0.00550505   -0.22414136 -397.04490540
     atom    4 type  1   force =     0.10137870   -0.48313552  122.51533762
     atom    5 type  1   force =     0.02161016    0.43935520 -397.27705531
     atom    6 type  1   force =     0.32961490    0.60149737  121.83970962
     atom    7 type  1   force =     0.00250948    0.22081019 -397.84256596
     atom    8 type  1   force =     0.05222968    0.55721675  122.93433422
     atom    9 type  1   force =     0.01492292   -0.43223238 -397.61129905
     atom   10 type  1   force =     0.00949175   -0.53426025  123.25965001
     atom   11 type  1   force =     0.00555746   -0.22880015 -396.98635467
     atom   12 type  1   force =    -0.09189732   -0.74766623  121.94199263
     atom   13 type  1   force =    -0.02159301    0.44123198 -397.27261457
     atom   14 type  1   force =    -0.32049473    0.52666137  121.49498274
     atom   15 type  1   force =    -0.00247972    0.21763067 -397.85752688
     atom   16 type  1   force =    -0.04814948    0.45160730  122.94967501
     atom   17 type  1   force =     0.01794945   -0.02753346 -131.48052804
     atom   18 type  1   force =    -0.06426716   -0.52212765  379.43915542
     atom   19 type  1   force =    -0.02545871   -0.20840205 -131.50016970
     atom   20 type  1   force =    -0.21150736   -2.55036335  377.58861895
     atom   21 type  1   force =    -0.03258154   -0.00302090 -131.63801206
     atom   22 type  1   force =     0.22178818    0.48818207  375.37897571
     atom   23 type  1   force =    -0.00098541    0.22320978 -131.61172405
     atom   24 type  1   force =     0.17595664    2.67505298  377.57906507
     atom   25 type  1   force =    -0.02974054   -0.02274589 -131.47051740
     atom   26 type  1   force =     0.06205349   -0.48405619  378.75208484
     atom   27 type  1   force =     0.01314035   -0.22281758 -131.47420646
     atom   28 type  1   force =     0.21422060   -2.61951409  375.98353220
     atom   29 type  1   force =     0.01996160    0.00836441 -131.64523261
     atom   30 type  1   force =    -0.20679441    0.48882859  369.65080976
     atom   31 type  1   force =    -0.01095190    0.24050033 -131.64246721
     atom   32 type  1   force =    -0.15902563    2.56689202  376.83389807
[...]
     atom   23 type  1   force =     0.00168916   -0.21604009  131.54886535
     atom   24 type  1   force =    -0.17470521   -2.66143537 -377.49994345
     atom   25 type  1   force =     0.03016831    0.02891989  131.40611187
     atom   26 type  1   force =    -0.06205671    0.49179011 -378.66535481
     atom   27 type  1   force =    -0.01211050    0.22711409  131.41055238
     atom   28 type  1   force =    -0.21382645    2.62212649 -375.88172697
     atom   29 type  1   force =    -0.01832147   -0.00283058  131.58198941
     atom   30 type  1   force =     0.20614382   -0.47590063 -369.53657155
     atom   31 type  1   force =     0.01198527   -0.23239310  131.57900941
     atom   32 type  1   force =     0.15612553   -2.55151199 -376.73976258
     atom   33 type  2   force =    -0.16420235    0.07052561   14.69900801
     atom   34 type  2   force =     0.04577325    0.38706084   -8.74400158
     atom   35 type  2   force =    -2.72629727    5.85073135  -18.76282683
     atom   36 type  2   force =     3.01391222   -5.14897012  -17.61370401
     atom   37 type  2   force =     2.85022415   -5.89029711  -32.25031412
     atom   38 type  2   force =    -3.06684266    5.21083995  -33.39579426
     atom   39 type  2   force =     0.00114824   -0.34943640  -42.99488515
     atom   40 type  3   force =     0.68705913    1.66375534   30.60646660
     atom   41 type  3   force =    -1.13152544   -1.94444257  -73.38230906
     atom   42 type  4   force =     1.96898342   -1.96615987  -15.69732085
     atom   43 type  4   force =    -1.10639896    2.22752330  -15.76028861
     atom   44 type  4   force =    -1.38763184    2.69048975   -3.59337670
     atom   45 type  4   force =     1.43253276   -2.68319596   -9.12934204
     atom   46 type  4   force =    -1.57532680    2.32942427   -9.64417878
     atom   47 type  4   force =     1.57300106   -2.30707142   -3.09239449
     The core correction contribution to forces
     atom    1 type  1   force =     0.00000000    0.00000000    0.00000000
     atom    2 type  1   force =     0.00000000    0.00000000    0.00000000
     atom    3 type  1   force =     0.00000000    0.00000000    0.00000000
     atom    4 type  1   force =     0.00000000    0.00000000    0.00000000
     atom    5 type  1   force =     0.00000000    0.00000000    0.00000000
     atom    6 type  1   force =     0.00000000    0.00000000    0.00000000
     atom    7 type  1   force =     0.00000000    0.00000000    0.00000000
     atom    8 type  1   force =     0.00000000    0.00000000    0.00000000
     atom    9 type  1   force =     0.00000000    0.00000000    0.00000000
     atom   10 type  1   force =     0.00000000    0.00000000    0.00000000
     atom   11 type  1   force =     0.00000000    0.00000000    0.00000000
     atom   12 type  1   force =     0.00000000    0.00000000    0.00000000
     atom   13 type  1   force =     0.00000000    0.00000000    0.00000000
     atom   14 type  1   force =     0.00000000    0.00000000    0.00000000
     atom   15 type  1   force =     0.00000000    0.00000000    0.00000000
     atom   16 type  1   force =     0.00000000    0.00000000    0.00000000
     atom   17 type  1   force =     0.00000000    0.00000000    0.00000000
     atom   18 type  1   force =     0.00000000    0.00000000    0.00000000
     atom   19 type  1   force =     0.00000000    0.00000000    0.00000000
     atom   20 type  1   force =     0.00000000    0.00000000    0.00000000
     atom   21 type  1   force =     0.00000000    0.00000000    0.00000000
     atom   22 type  1   force =     0.00000000    0.00000000    0.00000000
     atom   23 type  1   force =     0.00000000    0.00000000    0.00000000
     atom   24 type  1   force =     0.00000000    0.00000000    0.00000000
     atom   25 type  1   force =     0.00000000    0.00000000    0.00000000
     atom   26 type  1   force =     0.00000000    0.00000000    0.00000000
     atom   27 type  1   force =     0.00000000    0.00000000    0.00000000
     atom   28 type  1   force =     0.00000000    0.00000000    0.00000000
     atom   29 type  1   force =     0.00000000    0.00000000    0.00000000
     atom   30 type  1   force =     0.00000000    0.00000000    0.00000000
     atom   31 type  1   force =     0.00000000    0.00000000    0.00000000
     atom   32 type  1   force =     0.00000000    0.00000000    0.00000000
     atom   33 type  2   force =    -0.00099209   -0.00245905    0.01676147
     atom   34 type  2   force =     0.00030592    0.00092179   -0.00479884
     atom   35 type  2   force =     0.00009708    0.00097968   -0.00117638
     atom   36 type  2   force =     0.00071854   -0.00018965   -0.00219357
     atom   37 type  2   force =     0.00035945   -0.00119709    0.00213356
     atom   38 type  2   force =    -0.00053077    0.00069686    0.00154139
     atom   39 type  2   force =    -0.00082952   -0.00113036    0.00698398
     atom   40 type  3   force =    -0.00081326   -0.00143417    0.00930704
     atom   41 type  3   force =     0.00499431    0.00409888   -0.00068957
     atom   42 type  4   force =     0.00000000    0.00000000    0.00000000
     atom   43 type  4   force =     0.00000000    0.00000000    0.00000000
     atom   44 type  4   force =     0.00000000    0.00000000    0.00000000
     atom   45 type  4   force =     0.00000000    0.00000000    0.00000000
     atom   46 type  4   force =     0.00000000    0.00000000    0.00000000
     atom   47 type  4   force =     0.00000000    0.00000000    0.00000000
     The Hubbard contrib.    to forces
     atom    1 type  1   force =     0.00000000    0.00000000    0.00000000
     atom    2 type  1   force =     0.00000000    0.00000000    0.00000000
     atom    3 type  1   force =     0.00000000    0.00000000    0.00000000
     atom    4 type  1   force =     0.00000000    0.00000000    0.00000000
     atom    5 type  1   force =     0.00000000    0.00000000    0.00000000
     atom    6 type  1   force =     0.00000000    0.00000000    0.00000000
     atom    7 type  1   force =     0.00000000    0.00000000    0.00000000
     atom    8 type  1   force =     0.00000000    0.00000000    0.00000000
     atom    9 type  1   force =     0.00000000    0.00000000    0.00000000
     atom   10 type  1   force =     0.00000000    0.00000000    0.00000000
     atom   11 type  1   force =     0.00000000    0.00000000    0.00000000
     atom   12 type  1   force =     0.00000000    0.00000000    0.00000000
     atom   13 type  1   force =     0.00000000    0.00000000    0.00000000
     atom   14 type  1   force =     0.00000000    0.00000000    0.00000000
     atom   15 type  1   force =     0.00000000    0.00000000    0.00000000
     atom   16 type  1   force =     0.00000000    0.00000000    0.00000000
     atom   17 type  1   force =     0.00000000    0.00000000    0.00000000
     atom   18 type  1   force =     0.00000000    0.00000000    0.00000000
     atom   19 type  1   force =     0.00000000    0.00000000    0.00000000
     atom   20 type  1   force =     0.00000000    0.00000000    0.00000000
     atom   21 type  1   force =     0.00000000    0.00000000    0.00000000
     atom   22 type  1   force =     0.00000000    0.00000000    0.00000000
     atom   23 type  1   force =     0.00000000    0.00000000    0.00000000
     atom   24 type  1   force =     0.00000000    0.00000000    0.00000000
     atom   25 type  1   force =     0.00000000    0.00000000    0.00000000
     atom   26 type  1   force =     0.00000000    0.00000000    0.00000000
     atom   27 type  1   force =     0.00000000    0.00000000    0.00000000
     atom   28 type  1   force =     0.00000000    0.00000000    0.00000000
     atom   29 type  1   force =     0.00000000    0.00000000    0.00000000
     atom   30 type  1   force =     0.00000000    0.00000000    0.00000000
     atom   31 type  1   force =     0.00000000    0.00000000    0.00000000
     atom   32 type  1   force =     0.00000000    0.00000000    0.00000000
     atom   33 type  2   force =     0.00000000    0.00000000    0.00000000
     atom   34 type  2   force =     0.00000000    0.00000000    0.00000000
     atom   35 type  2   force =     0.00000000    0.00000000    0.00000000
     atom   36 type  2   force =     0.00000000    0.00000000    0.00000000
     atom   37 type  2   force =     0.00000000    0.00000000    0.00000000
     atom   38 type  2   force =     0.00000000    0.00000000    0.00000000
     atom   39 type  2   force =     0.00000000    0.00000000    0.00000000
     atom   40 type  3   force =     0.00000000    0.00000000    0.00000000
     atom   41 type  3   force =     0.00000000    0.00000000    0.00000000
     atom   42 type  4   force =     0.00000000    0.00000000    0.00000000
     atom   43 type  4   force =     0.00000000    0.00000000    0.00000000
     atom   44 type  4   force =     0.00000000    0.00000000    0.00000000
     atom   45 type  4   force =     0.00000000    0.00000000    0.00000000
     atom   46 type  4   force =     0.00000000    0.00000000    0.00000000
     atom   47 type  4   force =     0.00000000    0.00000000    0.00000000
     The SCF correction term to forces
     atom    1 type  1   force =    -0.00000000    0.00000000   -0.00000000
     atom    2 type  1   force =     0.00000342    0.00083755   -0.00011206
     atom    3 type  1   force =     0.00000000    0.00000000    0.00000000
     atom    4 type  1   force =     0.00000509    0.00136546   -0.00006798
     atom    5 type  1   force =     0.00000000   -0.00000000    0.00000000
     atom    6 type  1   force =     0.00000471   -0.00085857   -0.00015260
     atom    7 type  1   force =     0.00000000   -0.00000000   -0.00000000
     atom    8 type  1   force =     0.00000116   -0.00133906   -0.00020729
     atom    9 type  1   force =     0.00000000    0.00000000   -0.00000000
     atom   10 type  1   force =    -0.00000380    0.00083336   -0.00012001
     atom   11 type  1   force =    -0.00000000    0.00000000    0.00000000
     atom   12 type  1   force =    -0.00000508    0.00136217   -0.00007600
     atom   13 type  1   force =    -0.00000000   -0.00000000    0.00000000
     atom   14 type  1   force =    -0.00000472   -0.00086127   -0.00014716
     atom   15 type  1   force =    -0.00000000   -0.00000000   -0.00000000
     atom   16 type  1   force =    -0.00000128   -0.00134314   -0.00019975
     atom   17 type  1   force =     0.00000000   -0.00000000   -0.00000000
     atom   18 type  1   force =    -0.00000781    0.00010105    0.00083821
     atom   19 type  1   force =    -0.00000000    0.00000000    0.00000000
     atom   20 type  1   force =    -0.00000705    0.00114770    0.00030719
     atom   21 type  1   force =    -0.00000000   -0.00000000    0.00000000
     atom   22 type  1   force =     0.00000083   -0.00010512   -0.00016370
     atom   23 type  1   force =    -0.00000000   -0.00000000    0.00000000
     atom   24 type  1   force =     0.00000803   -0.00113520    0.00035420
     atom   25 type  1   force =    -0.00000000   -0.00000000   -0.00000000
     atom   26 type  1   force =     0.00000727    0.00010103    0.00084004
     atom   27 type  1   force =     0.00000000    0.00000000    0.00000000
     atom   28 type  1   force =     0.00000757    0.00115555    0.00030916
     atom   29 type  1   force =     0.00000000    0.00000000    0.00000000
     atom   30 type  1   force =     0.00000014   -0.00010725   -0.00016262
     atom   31 type  1   force =     0.00000000   -0.00000000    0.00000000
     atom   32 type  1   force =    -0.00000784   -0.00113309    0.00035560
     atom   33 type  2   force =    -0.00001363   -0.00002844    0.00019825
     atom   34 type  2   force =    -0.00000323   -0.00000979    0.00008884
     atom   35 type  2   force =     0.00001606   -0.00002592    0.00000001
     atom   36 type  2   force =    -0.00001504    0.00002919    0.00000201
     atom   37 type  2   force =    -0.00004486    0.00007927   -0.00008940
     atom   38 type  2   force =     0.00005626   -0.00005061   -0.00009980
     atom   39 type  2   force =     0.00000912    0.00002026   -0.00011453
     atom   40 type  3   force =    -0.00000939   -0.00001984    0.00014122
     atom   41 type  3   force =     0.00001389    0.00002098   -0.00015198
     atom   42 type  4   force =     0.00001210   -0.00001155   -0.00000932
     atom   43 type  4   force =    -0.00000479    0.00001764   -0.00000868
     atom   44 type  4   force =     0.00001292   -0.00002081    0.00001225
     atom   45 type  4   force =     0.00000088    0.00000080   -0.00000888
     atom   46 type  4   force =     0.00000007    0.00000129   -0.00000961
     atom   47 type  4   force =    -0.00001427    0.00001762    0.00001469

     Total force =     0.044089     Total SCF correction =     0.004204


     Computing stress (Cartesian axis) and pressure


     negative rho (up, down):  5.710E-04 0.000E+00
          total   stress  (Ry/bohr**3)                   (kbar)     P=       -4.01
  -0.00009972   0.00000478   0.00000211          -14.67        0.70        0.31
   0.00000478   0.00001250   0.00000027            0.70        1.84        0.04
   0.00000211   0.00000027   0.00000540            0.31        0.04        0.79

     kinetic stress (kbar)  17685.46     63.08     13.48
                               63.08  17677.99     13.75
                               13.48     13.75  17676.39

     local   stress (kbar)**********   1123.34    394.97
                             1123.34**********    782.24
                              394.97    782.241318618.88

     nonloc. stress (kbar)  -1484.51     -4.40     -1.90
                               -4.40  -1476.04     -2.45
                               -1.90     -2.45  -1541.19

     hartree stress (kbar) 690541.77   -370.44   -136.63
                             -370.44 688650.33   -317.41
                             -136.63   -317.41-612897.42

     exc-cor stress (kbar)  -8467.46     -3.11     -0.89
                               -3.11  -8465.99     -0.96
                               -0.89     -0.96  -8472.77

     corecor stress (kbar)   -166.06      0.96      0.31
                                0.96   -166.48      0.32
                                0.31      0.32   -168.01

     ewald   stress (kbar) 609068.56   -808.72   -269.03
                             -808.72 607201.44   -475.46
                             -269.03   -475.46-713215.09

     hubbard stress (kbar)      0.00      0.00      0.00
                                0.00      0.00      0.00
                                0.00      0.00      0.00

     DFT-D   stress (kbar)      0.00      0.00      0.00
                                0.00      0.00      0.00
                                0.00      0.00      0.00

     XDM     stress (kbar)      0.00      0.00      0.00
                                0.00      0.00      0.00
                                0.00      0.00      0.00

     dft-nl  stress (kbar)      0.00      0.00      0.00
                                0.00      0.00      0.00
                                0.00      0.00      0.00

     TS-vdW  stress (kbar)      0.00      0.00      0.00
                                0.00      0.00      0.00
                                0.00      0.00      0.00

     MDB     stress (kbar)      0.00      0.00      0.00
                                0.00      0.00      0.00
                                0.00      0.00      0.00

     3D-RISM stress (kbar)      0.00      0.00      0.00
                                0.00      0.00      0.00
                                0.00      0.00      0.00


     Writing all to output data dir ./tmp/Zn002_2x2x4_scf_ABN.save/ :
     XML data file, charge density, pseudopotentials, collected wavefunctions

     init_run     :     21.79s CPU     21.96s WALL (       1 calls)
     electrons    :   1665.79s CPU   1678.00s WALL (       1 calls)
     forces       :     18.85s CPU     18.96s WALL (       1 calls)
     stress       :     54.68s CPU     54.90s WALL (       1 calls)

     Called by init_run:
     wfcinit      :     21.35s CPU     21.49s WALL (       1 calls)
     wfcinit:atom :      0.03s CPU      0.03s WALL (       5 calls)
     wfcinit:wfcr :     21.02s CPU     21.15s WALL (       5 calls)
     potinit      :      0.09s CPU      0.09s WALL (       1 calls)
     hinit0       :      0.06s CPU      0.06s WALL (       1 calls)

     Called by electrons:
     c_bands      :   1549.43s CPU   1560.69s WALL (      20 calls)
     sum_band     :    110.02s CPU    110.88s WALL (      20 calls)
     v_of_rho     :      0.42s CPU      0.46s WALL (      21 calls)
     v_h          :      0.02s CPU      0.02s WALL (      21 calls)
     v_xc         :      0.44s CPU      0.48s WALL (      23 calls)
     newd         :      4.73s CPU      4.77s WALL (      21 calls)
     PAW_pot      :      1.36s CPU      1.36s WALL (      21 calls)
     mix_rho      :      0.10s CPU      0.10s WALL (      20 calls)

     Called by c_bands:
     init_us_2    :      2.13s CPU      2.15s WALL (     215 calls)
     cegterg      :   1545.31s CPU   1556.29s WALL (     100 calls)

     Called by sum_band:
     sum_band:wei :      0.04s CPU      0.04s WALL (      20 calls)
     sum_band:loo :    106.65s CPU    107.30s WALL (      20 calls)
     sum_band:buf :      0.40s CPU      0.41s WALL (     100 calls)
     sum_band:ini :      0.99s CPU      0.99s WALL (     100 calls)
     sum_band:cal :     88.25s CPU     88.75s WALL (     100 calls)
     sum_band:bec :      1.01s CPU      1.01s WALL (     100 calls)
     addusdens    :      3.23s CPU      3.41s WALL (      20 calls)
                                        0.00s GPU  (      20 calls)
     addusd:skk   :      0.04s CPU      0.05s WALL (      80 calls)
                                        0.00s GPU  (      80 calls)

     Called by *egterg:
     cdiaghg      :    168.46s CPU    172.37s WALL (     743 calls)
     cegterg:over :    233.81s CPU    234.69s WALL (     643 calls)
     cegterg:upda :     92.58s CPU     93.17s WALL (     643 calls)
     cegterg:last :    334.89s CPU    336.32s WALL (     221 calls)
     cdiaghg:chol :      9.76s CPU      9.79s WALL (     743 calls)
     cdiaghg:inve :      2.22s CPU      2.22s WALL (     743 calls)
     cdiaghg:para :     45.22s CPU     46.46s WALL (    1486 calls)
     h_psi        :    490.49s CPU    493.38s WALL (     748 calls)
     s_psi        :    189.99s CPU    190.45s WALL (     748 calls)
     g_psi        :      0.33s CPU      0.34s WALL (     643 calls)

     Called by h_psi:
     h_psi:calbec :    217.71s CPU    218.99s WALL (     748 calls)
     vloc_psi     :     78.07s CPU     78.70s WALL (     748 calls)
     add_vuspsi   :    194.05s CPU    194.63s WALL (     748 calls)

     General routines
     calbec       :    328.37s CPU    330.27s WALL (     873 calls)
     fft          :      0.29s CPU      0.34s WALL (     256 calls)
     ffts         :      0.02s CPU      0.02s WALL (      20 calls)
     fftw         :     87.68s CPU     88.40s WALL (  243312 calls)

     Parallel routines

     PAW routines
     PAW_pot      :      1.36s CPU      1.36s WALL (      21 calls)

     PWSCF        :  29m21.84s CPU  29m36.33s WALL


   This run was terminated on:  11:43:46  17Mar2025            

=------------------------------------------------------------------------------=
   JOB DONE.
=------------------------------------------------------------------------------=
Note: The following floating-point exceptions are signalling: IEEE_DENORMAL
Note: The following floating-point exceptions are signalling: IEEE_DENORMAL
Note: The following floating-point exceptions are signalling: IEEE_DENORMAL
Note: The following floating-point exceptions are signalling: IEEE_DENORMAL
Note: The following floating-point exceptions are signalling: IEEE_DENORMAL
Note: The following floating-point exceptions are signalling: IEEE_DENORMAL
