
     Program PWSCF v.7.3.1 starts on  5Apr2025 at 15:11:14 

     This program is part of the open-source Quantum ESPRESSO suite
     for quantum simulation of materials; please cite
         "P. Giannozzi et al., J. Phys.:Condens. Matter 21 395502 (2009);
         "P. Giannozzi et al., J. Phys.:Condens. Matter 29 465901 (2017);
         "P. Giannozzi et al., J. Chem. Phys. 152 154105 (2020);
          URL http://www.quantum-espresso.org", 
     in publications or presentations arising from this work. More details at
     http://www.quantum-espresso.org/quote

     Parallel version (MPI), running on    29 processors

     MPI processes distributed on     1 nodes
     211742 MiB available memory on the printing compute node when the environment starts

     Waiting for input...
     Reading input from standard input
Warning: card &CELL ignored
Warning: card   CELL_DOFREE = 'ALL' ignored
Warning: card / ignored

     Current dimensions of program PWSCF are:
     Max number of different atomic species (ntypx) = 10
     Max number of k-points (npk) =  40000
     Max angular momentum in pseudopotentials (lmaxx) =  4

     File ./tmp/03_Zn101_ABN_topsite_tilted.update deleted, as requested

     File ./tmp/03_Zn101_ABN_topsite_tilted.bfgs deleted, as requested
     file C.pbe-n-kjpaw_psl.1.0.0.UPF: wavefunction(s)  2S 2P renormalized

     R & G space division:  proc/nbgrp/npool/nimage =      29
     Subspace diagonalization in iterative solution of the eigenvalue problem:
     one sub-group per band group will be used
     custom distributed-memory algorithm (size of sub-group:  5*  5 procs)


     Parallelization info
     --------------------
     sticks:   dense  smooth     PW     G-vecs:    dense   smooth      PW
     Min         308     176     48                45962    19855    2880
     Max         309     177     49                45970    19862    2886
     Sum        8941    5109   1411              1332973   575857   83601

     Using Slab Decomposition



     bravais-lattice index     =            0
     lattice parameter (alat)  =      20.9009  a.u.
     unit-cell volume          =   16846.7507 (a.u.)^3
     number of atoms/cell      =           63
     number of atomic types    =            4
     number of electrons       =      1004.00
     number of Kohn-Sham states=          602
     kinetic-energy cutoff     =      40.0000  Ry
     charge density cutoff     =     280.0000  Ry
     scf convergence threshold =      1.0E-06
     mixing beta               =       0.4000
     number of iterations used =            8  plain     mixing
     energy convergence thresh.=      1.0E-05
     force convergence thresh. =      5.0E-04
     Exchange-correlation= PBE
                           (   1   4   3   4   0   0   0)
     nstep                     =          500


     celldm(1)=  20.900943  celldm(2)=   0.000000  celldm(3)=   0.000000
     celldm(4)=   0.000000  celldm(5)=   0.000000  celldm(6)=   0.000000

     crystal axes: (cart. coord. in units of alat)
               a(1) = (   1.000000   0.000000   0.000000 )  
               a(2) = (  -0.223489   0.918700   0.000000 )  
               a(3) = (  -4.200249  -1.021781   2.008375 )  

     reciprocal axes: (cart. coord. in units 2 pi/alat)
               b(1) = (  1.000000  0.243267  2.215131 )  
               b(2) = ( -0.000000  1.088495  0.553783 )  
               b(3) = (  0.000000 -0.000000  0.497915 )  


     PseudoPot. # 1 for Zn read from file:
     /home/yongsang/Research/PSID_server_room/qe/[00]QE/qepseudo/SSSP_1.3.0_PBE_efficiency/Zn_pbe_v1.uspp.F.UPF
     MD5 check sum: df62231357ef9e81f77b2b3087fa5675
     Pseudo is Ultrasoft, Zval = 20.0
     Generated by new atomic code, or converted to UPF format
     Using radial grid of  943 points,  6 beta functions with: 
                l(1) =   0
                l(2) =   0
                l(3) =   1
                l(4) =   1
                l(5) =   2
                l(6) =   2
     Q(r) pseudized with  8 coefficients,  rinner =    1.100   1.100   1.100
                                                       1.100   1.100

     PseudoPot. # 2 for N  read from file:
     /home/yongsang/Research/PSID_server_room/qe/[00]QE/qepseudo/SSSP_1.3.0_PBE_efficiency/N.pbe-n-radius_5.UPF
     MD5 check sum: 16739722b17309cd8fe442a2ace49922
     Pseudo is Ultrasoft + core correction, Zval =  5.0
     Generated using "atomic" code by A. Dal Corso  v.5.1
     Using radial grid of 1085 points,  4 beta functions with: 
                l(1) =   0
                l(2) =   0
                l(3) =   1
                l(4) =   1
     Q(r) pseudized with 0 coefficients 


     PseudoPot. # 3 for C  read from file:
     /home/yongsang/Research/PSID_server_room/qe/[00]QE/qepseudo/SSSP_1.3.0_PBE_efficiency/C.pbe-n-kjpaw_psl.1.0.0.UPF
     MD5 check sum: 5d2aebdfa2cae82b50a7e79e9516da0f
     Pseudo is Projector augmented-wave + core cor, Zval =  4.0
     Generated using "atomic" code by A. Dal Corso  v.5.1
     Shape of augmentation charge: PSQ
     Using radial grid of 1073 points,  4 beta functions with: 
                l(1) =   0
                l(2) =   0
                l(3) =   1
                l(4) =   1
     Q(r) pseudized with 0 coefficients 


     PseudoPot. # 4 for H  read from file:
     /home/yongsang/Research/PSID_server_room/qe/[00]QE/qepseudo/SSSP_1.3.0_PBE_efficiency/H.pbe-rrkjus_psl.1.0.0.UPF
     MD5 check sum: f52b6d4d1c606e5624b1dc7b2218f220
     Pseudo is Ultrasoft, Zval =  1.0
     Generated using "atomic" code by A. Dal Corso  v.5.1
     Using radial grid of  929 points,  2 beta functions with: 
                l(1) =   0
                l(2) =   0
     Q(r) pseudized with 0 coefficients 


     atomic species   valence    mass     pseudopotential
     Zn               20.00    65.38000     Zn( 1.00)
     N                 5.00    14.00674     N ( 1.00)
     C                 4.00    12.01070     C ( 1.00)
     H                 1.00     1.00794     H ( 1.00)

     No symmetry found


                                    s                        frac. trans.

      isym =  1     identity                                     

 cryst.   s( 1) = (     1          0          0      )
                  (     0          1          0      )
                  (     0          0          1      )

 cart.    s( 1) = (  1.0000000  0.0000000  0.0000000 )
                  (  0.0000000  1.0000000  0.0000000 )
                  (  0.0000000  0.0000000  1.0000000 )


   Cartesian axes

     site n.     atom                  positions (alat units)
         1        Zn     tau(   1) = (  -0.0970639   0.0980210   0.1082940  )
         2        Zn     tau(   2) = (  -0.2088085   0.5573710   0.1082940  )
         3        Zn     tau(   3) = (  -0.3808161   0.0289122   0.3942472  )
         4        Zn     tau(   4) = (  -0.4938100   0.4882178   0.3950913  )
         5        Zn     tau(   5) = (  -0.7372272  -0.0589989   0.5263228  )
         6        Zn     tau(   6) = (  -0.8441815   0.4019289   0.5420590  )
         7        Zn     tau(   7) = (  -0.1529361   0.3276960   0.1082940  )
         8        Zn     tau(   8) = (  -0.2646808   0.7870460   0.1082940  )
         9        Zn     tau(   9) = (  -0.4373335   0.2587847   0.3953435  )
        10        Zn     tau(  10) = (  -0.5491012   0.7177618   0.3940955  )
        11        Zn     tau(  11) = (  -0.7949299   0.1699615   0.5238875  )
        12        Zn     tau(  12) = (  -0.9068572   0.6299827   0.5253265  )
        13        Zn     tau(  13) = (   0.4029362   0.0980210   0.1082940  )
        14        Zn     tau(  14) = (   0.2911915   0.5573710   0.1082940  )
        15        Zn     tau(  15) = (   0.0400714   0.0101232   0.3130375  )
        16        Zn     tau(  16) = (  -0.0716570   0.4693970   0.3109260  )
        17        Zn     tau(  17) = (  -0.1869425  -0.0445108   0.5136621  )
        18        Zn     tau(  18) = (  -0.2988100   0.4143419   0.5138330  )
        19        Zn     tau(  19) = (   0.3470638   0.3276960   0.1082940  )
        20        Zn     tau(  20) = (   0.2353192   0.7870460   0.1082940  )
        21        Zn     tau(  21) = (  -0.0152563   0.2390401   0.3115269  )
        22        Zn     tau(  22) = (  -0.1275567   0.6989366   0.3125173  )
        23        Zn     tau(  23) = (  -0.2430224   0.1846845   0.5140561  )
        24        Zn     tau(  24) = (  -0.3545648   0.6439519   0.5134903  )
        25        Zn     tau(  25) = (   0.1529361   0.0372043   0.0773528  )
        26        Zn     tau(  26) = (   0.0411915   0.4965543   0.0773528  )
        27        Zn     tau(  27) = (  -0.2011685  -0.0486096   0.2603972  )
        28        Zn     tau(  28) = (  -0.3140744   0.4102741   0.2597552  )
        29        Zn     tau(  29) = (  -0.5460303  -0.1330881   0.3987595  )
        30        Zn     tau(  30) = (  -0.6594916   0.3265698   0.4047806  )
        31        Zn     tau(  31) = (   0.0970639   0.2668793   0.0773528  )
        32        Zn     tau(  32) = (  -0.0146808   0.7262293   0.0773528  )
        33        Zn     tau(  33) = (  -0.2578629   0.1810304   0.2598002  )
        34        Zn     tau(  34) = (  -0.3689976   0.6402094   0.2604158  )
        35        Zn     tau(  35) = (  -0.6016678   0.0963935   0.3981956  )
        36        Zn     tau(  36) = (  -0.7151562   0.5553394   0.4049001  )
        37        Zn     tau(  37) = (   0.6529362   0.0372043   0.0773528  )
        38        Zn     tau(  38) = (   0.5411915   0.4965543   0.0773528  )
        39        Zn     tau(  39) = (   0.2736946  -0.0552126   0.2631707  )
        40        Zn     tau(  40) = (   0.1628973   0.4045820   0.2652699  )
        41        Zn     tau(  41) = (   0.0380093  -0.1112883   0.5237522  )
        42        Zn     tau(  42) = (  -0.0723508   0.3484142   0.5179107  )
        43        Zn     tau(  43) = (   0.5970639   0.2668793   0.0773528  )
        44        Zn     tau(  44) = (   0.4853193   0.7262293   0.0773528  )
        45        Zn     tau(  45) = (   0.2184160   0.1753188   0.2641586  )
        46        Zn     tau(  46) = (   0.1067074   0.6336131   0.2641521  )
        47        Zn     tau(  47) = (  -0.0183058   0.1191142   0.5266480  )
        48        Zn     tau(  48) = (  -0.1298790   0.5767166   0.5251559  )
        49        C      tau(  49) = (  -0.5436302   0.4960962   1.1435260  )
        50        C      tau(  50) = (  -0.6273056   0.4694882   1.0491088  )
        51        C      tau(  51) = (  -0.7040564   0.5602300   1.0033315  )
        52        C      tau(  52) = (  -0.6352475   0.3516871   1.0013469  )
        53        C      tau(  53) = (  -0.7867045   0.5336921   0.9126894  )
        54        C      tau(  54) = (  -0.7178407   0.3252426   0.9106707  )
        55        C      tau(  55) = (  -0.7952161   0.4157076   0.8657758  )
        56        N      tau(  56) = (  -0.4752022   0.5177501   1.2209113  )
        57        N      tau(  57) = (  -0.8765492   0.3896780   0.7726523  )
        58        H      tau(  58) = (  -0.9022637   0.3015733   0.7648118  )
        59        H      tau(  59) = (  -0.9489392   0.4461847   0.7654335  )
        60        H      tau(  60) = (  -0.5765181   0.2809783   1.0368892  )
        61        H      tau(  61) = (  -0.6988558   0.6514056   1.0404259  )
        62        H      tau(  62) = (  -0.7237759   0.2335413   0.8745008  )
        63        H      tau(  63) = (  -0.8464750   0.6043385   0.8782613  )

     --------------------------------------------
     DFT-D3 Dispersion Correction (3-body terms):
     --------------------------------------------
       Reference C6 values for interpolation: 

         atom   Coordination number   C6
         H          0.912             6.05
         H          0.000            15.18
         C          0.000            98.23
         C          0.987            86.49
         C          1.998            58.72
         C          2.999            51.56
         C          3.984            36.41
         N          0.000            50.54
         N          0.994            44.25
         N          2.014            39.35
         N          2.990            31.16
         Zn         0.000           681.04
         Zn         1.942           306.91

       Values used:

         atom   Coordination number  R0_AB[au]  C6      C8
         Zn         6.250            3.053    306.91  23930.67
         Zn         6.258            3.053    306.91  23930.67
         Zn         7.006            3.053    306.91  23930.67
         Zn         6.976            3.053    306.91  23930.67
         Zn         4.971            3.053    306.91  23930.67
         Zn         4.904            3.053    306.91  23930.67
         Zn         6.263            3.053    306.91  23930.67
         Zn         6.233            3.053    306.91  23930.67
         Zn         6.985            3.053    306.91  23930.67
         Zn         6.983            3.053    306.91  23930.67
         Zn         5.083            3.053    306.91  23930.67
         Zn         5.049            3.053    306.91  23930.67
         Zn         4.961            3.053    306.91  23930.67
         Zn         4.915            3.053    306.91  23930.67
         Zn         7.218            3.053    306.91  23930.67
         Zn         7.290            3.053    306.91  23930.67
         Zn         5.907            3.053    306.91  23930.67
         Zn         5.893            3.053    306.91  23930.67
         Zn         4.917            3.053    306.91  23930.67
         Zn         4.958            3.053    306.91  23930.67
         Zn         7.272            3.053    306.91  23930.67
         Zn         7.236            3.053    306.91  23930.67
         Zn         5.890            3.053    306.91  23930.67
         Zn         5.907            3.053    306.91  23930.67
         Zn         5.612            3.053    306.91  23930.67
         Zn         5.625            3.053    306.91  23930.67
         Zn         7.972            3.053    306.91  23930.67
         Zn         7.964            3.053    306.91  23930.67
         Zn         7.047            3.053    306.91  23930.67
         Zn         7.004            3.053    306.91  23930.67
         Zn         5.618            3.053    306.91  23930.67
         Zn         5.621            3.053    306.91  23930.67
         Zn         7.964            3.053    306.91  23930.67
         Zn         7.966            3.053    306.91  23930.67
         Zn         7.047            3.053    306.91  23930.67
         Zn         7.004            3.053    306.91  23930.67
         Zn         4.931            3.053    306.91  23930.67
         Zn         4.935            3.053    306.91  23930.67
         Zn         8.379            3.053    306.91  23930.67
         Zn         8.140            3.053    306.91  23930.67
         Zn         6.048            3.053    306.91  23930.67
         Zn         6.122            3.053    306.91  23930.67
         Zn         4.947            3.053    306.91  23930.67
         Zn         4.921            3.053    306.91  23930.67
         Zn         8.395            3.053    306.91  23930.67
         Zn         8.372            3.053    306.91  23930.67
         Zn         5.995            3.053    306.91  23930.67
         Zn         6.016            3.053    306.91  23930.67
         C          2.098            2.750     58.61   1695.06
         C          3.148            2.750     50.55   1462.05
         C          3.170            2.750     50.36   1456.60
         C          3.170            2.750     50.36   1456.41
         C          3.163            2.750     50.42   1458.32
         C          3.163            2.750     50.42   1458.37
         C          3.153            2.750     50.51   1460.85
         N          1.021            2.478     44.24    976.02
         N          3.334            2.478     31.17    687.74
         H          1.014            2.062      6.17     74.57
         H          1.015            2.062      6.17     74.57
         H          1.004            2.062      6.18     74.68
         H          1.003            2.062      6.18     74.68
         H          1.004            2.062      6.18     74.68
         H          1.004            2.062      6.18     74.68

         Molecular C6 ( Ry / a.u.^6 ) =    840972.11


   Crystallographic axes

     site n.     atom                  positions (cryst. coord.)
         1        Zn     tau(   1) = (  0.1666667  0.1666667  0.0539212  )
         2        Zn     tau(   2) = (  0.1666668  0.6666667  0.0539212  )
         3        Zn     tau(   3) = (  0.4995266  0.2497981  0.1963016  )
         4        Zn     tau(   4) = (  0.5001364  0.7502172  0.1967219  )
         5        Zn     tau(   5) = (  0.4142945  0.2272485  0.2620640  )
         6        Zn     tau(   6) = (  0.4543263  0.7376803  0.2698993  )
         7        Zn     tau(   7) = (  0.1666668  0.4166667  0.0539212  )
         8        Zn     tau(   8) = (  0.1666667  0.9166667  0.0539212  )
         9        Zn     tau(   9) = (  0.5013580  0.5006202  0.1968475  )
        10        Zn     tau(  10) = (  0.4984797  0.9995231  0.1962260  )
        11        Zn     tau(  11) = (  0.4068957  0.4751221  0.2608514  )
        12        Zn     tau(  12) = (  0.4100639  0.9766496  0.2615679  )
        13        Zn     tau(  13) = (  0.6666668  0.1666667  0.0539212  )
        14        Zn     tau(  14) = (  0.6666667  0.6666667  0.0539212  )
        15        Zn     tau(  15) = (  0.7359532  0.1843739  0.1558661  )
        16        Zn     tau(  16) = (  0.7312736  0.6831216  0.1548147  )
        17        Zn     tau(  17) = (  0.9400585  0.2360075  0.2557601  )
        18        Zn     tau(  18) = (  0.9401933  0.7355609  0.2558452  )
        19        Zn     tau(  19) = (  0.6666668  0.4166667  0.0539212  )
        20        Zn     tau(  20) = (  0.6666668  0.9166667  0.0539212  )
        21        Zn     tau(  21) = (  0.7329672  0.4327121  0.1551139  )
        22        Zn     tau(  22) = (  0.7347384  0.9338554  0.1556071  )
        23        Zn     tau(  23) = (  0.9406069  0.4857035  0.2559562  )
        24        Zn     tau(  24) = (  0.9395357  0.9853003  0.2556745  )
        25        Zn     tau(  25) = (  0.3333333  0.0833333  0.0385151  )
        26        Zn     tau(  26) = (  0.3333333  0.5833333  0.0385151  )
        27        Zn     tau(  27) = (  0.3638203  0.0912922  0.1296557  )
        28        Zn     tau(  28) = (  0.3611236  0.5904291  0.1293360  )
        29        Zn     tau(  29) = (  0.3048984  0.0759604  0.1985483  )
        30        Zn     tau(  30) = (  0.3165943  0.5796301  0.2015464  )
        31        Zn     tau(  31) = (  0.3333333  0.3333333  0.0385151  )
        32        Zn     tau(  32) = (  0.3333333  0.8333333  0.0385151  )
        33        Zn     tau(  33) = (  0.3616675  0.3409235  0.1293584  )
        34        Zn     tau(  34) = (  0.3635993  0.8410783  0.1296649  )
        35        Zn     tau(  35) = (  0.3038371  0.3254377  0.1982676  )
        36        Zn     tau(  36) = (  0.3168463  0.8287107  0.2016058  )
        37        Zn     tau(  37) = (  0.8333333  0.0833333  0.0385151  )
        38        Zn     tau(  38) = (  0.8333333  0.5833333  0.0385151  )
        39        Zn     tau(  39) = (  0.8432207  0.0856408  0.1310366  )
        40        Zn     tau(  40) = (  0.8489265  0.5872873  0.1320819  )
        41        Zn     tau(  41) = (  1.1711165  0.1689082  0.2607841  )
        42        Zn     tau(  42) = (  1.1596470  0.6660570  0.2578755  )
        43        Zn     tau(  43) = (  0.8333333  0.3333333  0.0385151  )
        44        Zn     tau(  44) = (  0.8333333  0.8333333  0.0385151  )
        45        Zn     tau(  45) = (  0.8462113  0.3371200  0.1315285  )
        46        Zn     tau(  46) = (  0.8459761  0.8359673  0.1315253  )
        47        Zn     tau(  47) = (  1.1772651  0.4213037  0.2622259  )
        48        Zn     tau(  48) = (  1.1737063  0.9185752  0.2614830  )
        49        C      tau(  49) = (  2.1101138  1.1732631  0.5693787  )
        50        C      tau(  50) = (  1.8108192  1.0920138  0.5223670  )
        51        C      tau(  51) = (  1.6547400  1.1654350  0.4995738  )
        52        C      tau(  52) = (  1.6684211  0.9373382  0.4985856  )
        53        C      tau(  53) = (  1.3648519  1.0863526  0.4544417  )
        54        C      tau(  54) = (  1.3785353  0.8583386  0.4534366  )
        55        C      tau(  55) = (  1.2237189  0.9319473  0.4310828  )
        56        N      tau(  56) = (  2.3552281  1.2396879  0.6079100  )
        57        N      tau(  57) = (  0.9297728  0.8520439  0.3847152  )
        58        H      tau(  58) = (  0.8652577  0.7518006  0.3808113  )
        59        H      tau(  59) = (  0.8551385  0.9095535  0.3811208  )
        60        H      tau(  60) = (  1.7886804  0.8800547  0.5162827  )
        61        H      tau(  61) = (  1.7642895  1.2852214  0.5180436  )
        62        H      tau(  62) = (  1.2701711  0.7384920  0.4354271  )
        63        H      tau(  63) = (  1.2460047  1.1441852  0.4372995  )

     number of k points=     5  Marzari-Vanderbilt smearing, width (Ry)=  0.0200
                       cart. coord. in units 2pi/alat
        k(    1) = (   0.0000000   0.0000000   0.0000000), wk =   0.2222222
        k(    2) = (   0.0000000   0.3628315   0.1845943), wk =   0.4444444
        k(    3) = (   0.3333333   0.0810890   0.7383771), wk =   0.4444444
        k(    4) = (   0.3333333   0.4439205   0.9229714), wk =   0.4444444
        k(    5) = (   0.3333333  -0.2817426   0.5537829), wk =   0.4444444

                       cryst. coord.
        k(    1) = (   0.0000000   0.0000000   0.0000000), wk =   0.2222222
        k(    2) = (   0.0000000   0.3333333   0.0000000), wk =   0.4444444
        k(    3) = (   0.3333333   0.0000000   0.0000000), wk =   0.4444444
        k(    4) = (   0.3333333   0.3333333   0.0000000), wk =   0.4444444
        k(    5) = (   0.3333333  -0.3333333   0.0000000), wk =   0.4444444

     Dense  grid:  1332973 G-vectors     FFT dimensions: ( 120, 108, 540)

     Smooth grid:   575857 G-vectors     FFT dimensions: (  90,  80, 405)

     Dynamical RAM for                 wfc:      22.79 MB

     Dynamical RAM for     wfc (w. buffer):     136.74 MB

     Dynamical RAM for           str. fact:       2.81 MB

     Dynamical RAM for           local pot:       0.00 MB

     Dynamical RAM for          nlocal pot:      35.89 MB

     Dynamical RAM for                qrad:       5.37 MB

     Dynamical RAM for          rho,v,vnew:       7.74 MB

     Dynamical RAM for               rhoin:       2.58 MB

     Dynamical RAM for            rho*nmix:      11.22 MB

     Dynamical RAM for           G-vectors:       2.78 MB

     Dynamical RAM for          h,s,v(r/c):       2.64 MB

     Dynamical RAM for          <psi|beta>:       8.71 MB

     Dynamical RAM for                 psi:      45.58 MB

     Dynamical RAM for                hpsi:      45.58 MB

     Dynamical RAM for                spsi:      45.58 MB

     Dynamical RAM for      wfcinit/wfcrot:      60.58 MB

     Dynamical RAM for           addusdens:     164.12 MB

     Dynamical RAM for          addusforce:     230.58 MB

     Dynamical RAM for         addusstress:     140.97 MB

     Estimated static dynamical RAM per process >     206.81 MB

     Estimated max dynamical RAM per process >     448.61 MB

     Estimated total dynamical RAM >      12.70 GB

     Initial potential from superposition of free atoms

     starting charge    1003.9929, renormalised to    1004.0000

     negative rho (up, down):  2.237E-03 0.000E+00
     Starting wfcs are  666 randomized atomic wfcs
     Checking if some PAW data can be deallocated... 
       PAW data deallocated on   25 nodes for type:  3

     total cpu time spent up to now is       39.5 secs

     Self-consistent Calculation

     iteration #  1     ecut=    40.00 Ry     beta= 0.40
     Davidson diagonalization with overlap

---- Real-time Memory Report at c_bands before calling an iterative solver
           432 MiB given to the printing process from OS
             0 MiB allocation reported by mallinfo(arena+hblkhd)
        204889 MiB available memory on the node where the printing process lives
------------------
     ethr =  1.00E-02,  avg # of iterations =  7.8

     Threshold (ethr) on eigenvalues was too large:
     Diagonalizing with lowered threshold

     Davidson diagonalization with overlap

---- Real-time Memory Report at c_bands before calling an iterative solver
           567 MiB given to the printing process from OS
             0 MiB allocation reported by mallinfo(arena+hblkhd)
        203881 MiB available memory on the node where the printing process lives
------------------
     ethr =  9.95E-04,  avg # of iterations =  1.4

     negative rho (up, down):  2.900E-03 0.000E+00

     total cpu time spent up to now is      290.2 secs

     total energy              =  -22326.59542622 Ry
     estimated scf accuracy    <      10.08438508 Ry

     iteration #  2     ecut=    40.00 Ry     beta= 0.40
     Davidson diagonalization with overlap

---- Real-time Memory Report at c_bands before calling an iterative solver
           595 MiB given to the printing process from OS
             0 MiB allocation reported by mallinfo(arena+hblkhd)
        203850 MiB available memory on the node where the printing process lives
------------------
     ethr =  1.00E-03,  avg # of iterations =  9.8

     negative rho (up, down):  4.255E-03 0.000E+00

     total cpu time spent up to now is      437.1 secs

     total energy              =  -22314.64614530 Ry
     estimated scf accuracy    <     224.65791985 Ry

     iteration #  3     ecut=    40.00 Ry     beta= 0.40
     Davidson diagonalization with overlap

---- Real-time Memory Report at c_bands before calling an iterative solver
           595 MiB given to the printing process from OS
             0 MiB allocation reported by mallinfo(arena+hblkhd)
        203743 MiB available memory on the node where the printing process lives
------------------
     ethr =  1.00E-03,  avg # of iterations =  7.0

     negative rho (up, down):  4.083E-03 0.000E+00

     total cpu time spent up to now is      601.6 secs

     total energy              =  -22330.20815661 Ry
     estimated scf accuracy    <       8.60495023 Ry

     iteration #  4     ecut=    40.00 Ry     beta= 0.40
     Davidson diagonalization with overlap

---- Real-time Memory Report at c_bands before calling an iterative solver
           601 MiB given to the printing process from OS
             0 MiB allocation reported by mallinfo(arena+hblkhd)
        203707 MiB available memory on the node where the printing process lives
------------------
     ethr =  8.57E-04,  avg # of iterations =  3.0

     negative rho (up, down):  3.945E-03 0.000E+00

     total cpu time spent up to now is      722.6 secs

     total energy              =  -22330.70695291 Ry
     estimated scf accuracy    <       4.89567833 Ry

     iteration #  5     ecut=    40.00 Ry     beta= 0.40
     Davidson diagonalization with overlap

---- Real-time Memory Report at c_bands before calling an iterative solver
           601 MiB given to the printing process from OS
             0 MiB allocation reported by mallinfo(arena+hblkhd)
        203694 MiB available memory on the node where the printing process lives
------------------
     ethr =  4.88E-04,  avg # of iterations =  2.0

     negative rho (up, down):  3.838E-03 0.000E+00

     total cpu time spent up to now is      836.8 secs

     total energy              =  -22331.04220737 Ry
     estimated scf accuracy    <       0.33925640 Ry

     iteration #  6     ecut=    40.00 Ry     beta= 0.40
     Davidson diagonalization with overlap

---- Real-time Memory Report at c_bands before calling an iterative solver
           601 MiB given to the printing process from OS
             0 MiB allocation reported by mallinfo(arena+hblkhd)
        203671 MiB available memory on the node where the printing process lives
------------------
     ethr =  3.38E-05,  avg # of iterations = 12.2

     negative rho (up, down):  3.841E-03 0.000E+00

     total cpu time spent up to now is      973.5 secs

     total energy              =  -22331.04746099 Ry
     estimated scf accuracy    <       0.13800569 Ry

     iteration #  7     ecut=    40.00 Ry     beta= 0.40
     Davidson diagonalization with overlap

---- Real-time Memory Report at c_bands before calling an iterative solver
           602 MiB given to the printing process from OS
             0 MiB allocation reported by mallinfo(arena+hblkhd)
        203644 MiB available memory on the node where the printing process lives
------------------
     c_bands:  1 eigenvalues not converged
     ethr =  1.37E-05,  avg # of iterations =  9.2

     negative rho (up, down):  3.895E-03 0.000E+00

     total cpu time spent up to now is     1101.5 secs

     total energy              =  -22331.04921463 Ry
     estimated scf accuracy    <       0.05091281 Ry

     iteration #  8     ecut=    40.00 Ry     beta= 0.40
     Davidson diagonalization with overlap

---- Real-time Memory Report at c_bands before calling an iterative solver
           603 MiB given to the printing process from OS
             0 MiB allocation reported by mallinfo(arena+hblkhd)
        203618 MiB available memory on the node where the printing process lives
------------------
     c_bands:  1 eigenvalues not converged
     ethr =  5.07E-06,  avg # of iterations = 14.2

     negative rho (up, down):  3.938E-03 0.000E+00

     total cpu time spent up to now is     1244.4 secs

     total energy              =  -22331.04983474 Ry
     estimated scf accuracy    <       0.04833323 Ry

     iteration #  9     ecut=    40.00 Ry     beta= 0.40
     Davidson diagonalization with overlap

---- Real-time Memory Report at c_bands before calling an iterative solver
           603 MiB given to the printing process from OS
             0 MiB allocation reported by mallinfo(arena+hblkhd)
        203590 MiB available memory on the node where the printing process lives
------------------
     ethr =  4.81E-06,  avg # of iterations =  3.0

     negative rho (up, down):  3.965E-03 0.000E+00

     total cpu time spent up to now is     1358.6 secs

     total energy              =  -22331.05181104 Ry
     estimated scf accuracy    <       0.01472421 Ry

     iteration # 10     ecut=    40.00 Ry     beta= 0.40
     Davidson diagonalization with overlap

---- Real-time Memory Report at c_bands before calling an iterative solver
           604 MiB given to the printing process from OS
             0 MiB allocation reported by mallinfo(arena+hblkhd)
        203563 MiB available memory on the node where the printing process lives
------------------
     c_bands:  1 eigenvalues not converged
     c_bands:  1 eigenvalues not converged
     ethr =  1.47E-06,  avg # of iterations = 17.8

     negative rho (up, down):  3.990E-03 0.000E+00

     total cpu time spent up to now is     1496.0 secs

     total energy              =  -22331.05034233 Ry
     estimated scf accuracy    <       0.01141398 Ry

     iteration # 11     ecut=    40.00 Ry     beta= 0.40
     Davidson diagonalization with overlap

---- Real-time Memory Report at c_bands before calling an iterative solver
           605 MiB given to the printing process from OS
             0 MiB allocation reported by mallinfo(arena+hblkhd)
        203541 MiB available memory on the node where the printing process lives
------------------
     ethr =  1.14E-06,  avg # of iterations =  8.8

     negative rho (up, down):  4.057E-03 0.000E+00

     total cpu time spent up to now is     1619.8 secs

     total energy              =  -22331.04585263 Ry
     estimated scf accuracy    <       0.00802203 Ry

     iteration # 12     ecut=    40.00 Ry     beta= 0.40
     Davidson diagonalization with overlap

---- Real-time Memory Report at c_bands before calling an iterative solver
           605 MiB given to the printing process from OS
             0 MiB allocation reported by mallinfo(arena+hblkhd)
        203539 MiB available memory on the node where the printing process lives
------------------
     c_bands:  1 eigenvalues not converged
     ethr =  7.99E-07,  avg # of iterations = 16.2

     negative rho (up, down):  4.049E-03 0.000E+00

     total cpu time spent up to now is     1776.1 secs

     total energy              =  -22331.04644795 Ry
     estimated scf accuracy    <       0.00198037 Ry

     iteration # 13     ecut=    40.00 Ry     beta= 0.40
     Davidson diagonalization with overlap

---- Real-time Memory Report at c_bands before calling an iterative solver
           605 MiB given to the printing process from OS
             0 MiB allocation reported by mallinfo(arena+hblkhd)
        203536 MiB available memory on the node where the printing process lives
------------------
     ethr =  1.97E-07,  avg # of iterations =  3.0

     negative rho (up, down):  4.037E-03 0.000E+00

     total cpu time spent up to now is     1894.5 secs

     total energy              =  -22331.04652892 Ry
     estimated scf accuracy    <       0.00041932 Ry

     iteration # 14     ecut=    40.00 Ry     beta= 0.40
     Davidson diagonalization with overlap

---- Real-time Memory Report at c_bands before calling an iterative solver
           605 MiB given to the printing process from OS
             0 MiB allocation reported by mallinfo(arena+hblkhd)
        203535 MiB available memory on the node where the printing process lives
------------------
     c_bands:  1 eigenvalues not converged
     ethr =  4.18E-08,  avg # of iterations =  6.4

     negative rho (up, down):  4.039E-03 0.000E+00

     total cpu time spent up to now is     2016.1 secs

     total energy              =  -22331.04645074 Ry
     estimated scf accuracy    <       0.00282733 Ry

     iteration # 15     ecut=    40.00 Ry     beta= 0.40
     Davidson diagonalization with overlap

---- Real-time Memory Report at c_bands before calling an iterative solver
           605 MiB given to the printing process from OS
             0 MiB allocation reported by mallinfo(arena+hblkhd)
        203534 MiB available memory on the node where the printing process lives
------------------
     ethr =  4.18E-08,  avg # of iterations =  3.0

     negative rho (up, down):  4.034E-03 0.000E+00

     total cpu time spent up to now is     2131.8 secs

     total energy              =  -22331.04663766 Ry
     estimated scf accuracy    <       0.00004471 Ry

     iteration # 16     ecut=    40.00 Ry     beta= 0.40
     Davidson diagonalization with overlap

---- Real-time Memory Report at c_bands before calling an iterative solver
           605 MiB given to the printing process from OS
             0 MiB allocation reported by mallinfo(arena+hblkhd)
        203532 MiB available memory on the node where the printing process lives
------------------
     ethr =  4.45E-09,  avg # of iterations =  2.0

     negative rho (up, down):  4.032E-03 0.000E+00

     total cpu time spent up to now is     2248.1 secs

     total energy              =  -22331.04663973 Ry
     estimated scf accuracy    <       0.00001428 Ry

     iteration # 17     ecut=    40.00 Ry     beta= 0.40
     Davidson diagonalization with overlap

---- Real-time Memory Report at c_bands before calling an iterative solver
           605 MiB given to the printing process from OS
             0 MiB allocation reported by mallinfo(arena+hblkhd)
        203530 MiB available memory on the node where the printing process lives
------------------
     ethr =  1.42E-09,  avg # of iterations =  2.4

     negative rho (up, down):  4.032E-03 0.000E+00

     total cpu time spent up to now is     2362.0 secs

     total energy              =  -22331.04664121 Ry
     estimated scf accuracy    <       0.00000595 Ry

     iteration # 18     ecut=    40.00 Ry     beta= 0.40
     Davidson diagonalization with overlap

---- Real-time Memory Report at c_bands before calling an iterative solver
           605 MiB given to the printing process from OS
             0 MiB allocation reported by mallinfo(arena+hblkhd)
        203529 MiB available memory on the node where the printing process lives
------------------
     ethr =  5.92E-10,  avg # of iterations =  2.0

     negative rho (up, down):  4.031E-03 0.000E+00

     total cpu time spent up to now is     2476.6 secs

     total energy              =  -22331.04664170 Ry
     estimated scf accuracy    <       0.00000232 Ry

     iteration # 19     ecut=    40.00 Ry     beta= 0.40
     Davidson diagonalization with overlap

---- Real-time Memory Report at c_bands before calling an iterative solver
           605 MiB given to the printing process from OS
             0 MiB allocation reported by mallinfo(arena+hblkhd)
        203533 MiB available memory on the node where the printing process lives
------------------
     ethr =  2.31E-10,  avg # of iterations =  2.0

     negative rho (up, down):  4.031E-03 0.000E+00

     total cpu time spent up to now is     2590.0 secs

     total energy              =  -22331.04664193 Ry
     estimated scf accuracy    <       0.00000134 Ry

     iteration # 20     ecut=    40.00 Ry     beta= 0.40
     Davidson diagonalization with overlap

---- Real-time Memory Report at c_bands before calling an iterative solver
           605 MiB given to the printing process from OS
             0 MiB allocation reported by mallinfo(arena+hblkhd)
        203527 MiB available memory on the node where the printing process lives
------------------
     ethr =  1.33E-10,  avg # of iterations =  2.0

     negative rho (up, down):  4.031E-03 0.000E+00

     total cpu time spent up to now is     2705.2 secs

     End of self-consistent calculation

          k = 0.0000 0.0000 0.0000 ( 71933 PWs)   bands (ev):

  -125.1868-125.1865-125.1821-125.1707-125.1688-125.1680-125.1669-125.1506
  -125.0782-125.0766-125.0757-125.0698-125.0685-125.0677-125.0645-125.0613
  -124.9989-124.9974-124.9970-124.9933-124.9911-124.9896-124.9887-124.9882
  -124.9872-124.9860-124.9859-124.9838-124.9351-124.9333-124.9325-124.9310
  -124.8965-124.8955-124.8947-124.8946-124.8939-124.8925-124.8914-124.8897
  -124.8660-124.8632-124.8594-124.8564-124.8351-124.8324-124.8156-124.7841
   -79.3443 -79.3439 -79.3407 -79.3392 -79.3328 -79.3317 -79.3314 -79.3311
   -79.3293 -79.3283 -79.3267 -79.3267 -79.3254 -79.3232 -79.3173 -79.3154
   -79.3151 -79.3138 -79.3130 -79.3125 -79.3085 -79.3001 -79.2959 -79.2953
   -79.2396 -79.2373 -79.2359 -79.2297 -79.2286 -79.2258 -79.2245 -79.2234
   -79.2226 -79.2222 -79.2192 -79.2188 -79.2164 -79.2162 -79.2147 -79.2134
   -79.2129 -79.2111 -79.2106 -79.2091 -79.2077 -79.2055 -79.2031 -79.2023
   -79.1603 -79.1591 -79.1555 -79.1536 -79.1528 -79.1501 -79.1491 -79.1483
   -79.1479 -79.1469 -79.1464 -79.1458 -79.1455 -79.1446 -79.1441 -79.1437
   -79.1425 -79.1417 -79.1415 -79.1407 -79.1405 -79.1394 -79.1393 -79.1392
   -79.1386 -79.1378 -79.1375 -79.1367 -79.1352 -79.1345 -79.1335 -79.1331
   -79.1329 -79.1300 -79.1270 -79.1209 -79.1053 -79.1037 -79.1025 -79.1012
   -79.0827 -79.0813 -79.0807 -79.0802 -79.0794 -79.0684 -79.0684 -79.0679
   -79.0676 -79.0669 -79.0659 -79.0635 -79.0622 -79.0614 -79.0605 -79.0561
   -79.0560 -79.0507 -79.0445 -79.0440 -79.0434 -79.0424 -79.0418 -79.0399
   -79.0394 -79.0386 -79.0376 -79.0372 -79.0364 -79.0356 -79.0336 -79.0309
   -79.0308 -79.0259 -79.0253 -79.0230 -79.0180 -79.0158 -79.0128 -79.0093
   -79.0062 -79.0054 -79.0043 -79.0036 -79.0008 -78.9918 -78.9839 -78.9832
   -78.9809 -78.9800 -78.9745 -78.9639 -78.9555 -78.9509 -78.9349 -78.9331
   -18.4988 -17.0151 -16.2199 -13.8133 -13.7621 -10.7877 -10.5378  -8.6304
    -8.1518  -8.0520  -7.9793  -7.3807  -7.1211  -6.9514  -6.9389  -6.9284
    -6.9066  -6.8551  -6.8483  -6.8344  -6.7799  -6.7634  -6.7408  -6.7176
    -6.7105  -6.6855  -6.6631  -6.6350  -6.6316  -6.6153  -6.6091  -6.5993
    -6.5932  -6.5640  -6.5333  -6.5316  -6.5282  -6.5134  -6.5057  -6.4970
    -6.4948  -6.4736  -6.4586  -6.4529  -6.4509  -6.4450  -6.4414  -6.4362
    -6.4303  -6.4293  -6.4284  -6.4217  -6.4162  -6.4121  -6.3984  -6.3957
    -6.3924  -6.3908  -6.3865  -6.3796  -6.3661  -6.3516  -6.3427  -6.3380
    -6.3308  -6.3286  -6.3181  -6.3135  -6.2976  -6.2885  -6.2772  -6.2672
    -6.2629  -6.2555  -6.2453  -6.2393  -6.2333  -6.2250  -6.2178  -6.2119
    -6.2109  -6.1945  -6.1905  -6.1841  -6.1721  -6.1587  -6.1559  -6.1457
    -6.1396  -6.1293  -6.1232  -6.1210  -6.1133  -6.1089  -6.1066  -6.1001
    -6.0985  -6.0936  -6.0919  -6.0880  -6.0696  -6.0657  -6.0600  -6.0592
    -6.0558  -6.0534  -6.0387  -6.0257  -6.0176  -6.0145  -6.0038  -5.9868
    -5.9859  -5.9832  -5.9717  -5.9631  -5.9597  -5.9571  -5.9468  -5.9428
    -5.9393  -5.9307  -5.9272  -5.9267  -5.9222  -5.9159  -5.9149  -5.9148
    -5.9117  -5.9050  -5.8998  -5.8966  -5.8898  -5.8869  -5.8835  -5.8695
    -5.8673  -5.8629  -5.8595  -5.8544  -5.8507  -5.8467  -5.8439  -5.8412
    -5.8387  -5.8363  -5.8338  -5.8293  -5.8250  -5.8223  -5.8158  -5.8076
    -5.8033  -5.8017  -5.7984  -5.7828  -5.7820  -5.7784  -5.7680  -5.7613
    -5.7586  -5.7543  -5.7479  -5.7444  -5.7357  -5.7309  -5.7264  -5.7234
    -5.7229  -5.7189  -5.7184  -5.7090  -5.7027  -5.6989  -5.6986  -5.6953
    -5.6916  -5.6876  -5.6873  -5.6795  -5.6749  -5.6697  -5.6688  -5.6621
    -5.6570  -5.6481  -5.6457  -5.6447  -5.6406  -5.6392  -5.6367  -5.6329
    -5.6222  -5.6125  -5.6113  -5.6076  -5.5991  -5.5946  -5.5922  -5.5893
    -5.5859  -5.5833  -5.5819  -5.5757  -5.5694  -5.5672  -5.5656  -5.5627
    -5.5574  -5.5539  -5.5457  -5.5420  -5.5395  -5.5347  -5.5294  -5.5263
    -5.5229  -5.5212  -5.5203  -5.5180  -5.5123  -5.5118  -5.4991  -5.4928
    -5.4889  -5.4888  -5.4885  -5.4829  -5.4802  -5.4783  -5.4768  -5.4724
    -5.4665  -5.4634  -5.4612  -5.4560  -5.4543  -5.4535  -5.4510  -5.4477
    -5.4436  -5.4307  -5.4124  -5.4084  -5.4063  -5.3932  -5.3914  -5.3779
    -5.3755  -5.3707  -5.3652  -5.3525  -5.3381  -5.3274  -5.2950  -5.2942
    -5.2451  -5.2372  -5.1637  -5.1224  -5.1089  -5.0276  -4.6860  -4.5736
    -4.3647  -4.3590  -4.1836  -3.9356  -3.8900  -3.8831  -3.6611  -3.5976
    -3.5712  -2.9059  -2.8011  -2.5852  -2.5700  -2.4245  -2.4087  -2.2311
    -2.0486  -1.8470  -1.8294  -1.6769  -1.6333  -1.6170  -1.5960  -1.4706
    -1.4517  -1.3692  -1.3217  -1.2795  -0.9287  -0.9012  -0.5103  -0.3420
    -0.1254  -0.0757  -0.0119   0.0676   0.0751   0.1248   0.2067   0.2608
     0.5637   0.6719   0.6805   0.7603   1.0221   1.0466   1.5893   1.8095
     1.8835   1.8955   1.9958   2.0612   2.1810   2.2466   2.2651   2.3689
     2.4179   2.5077   2.7633   2.8242   2.8393   3.1761   3.2433   3.2553
     3.2872   3.3862   3.4699   3.5149   3.8383   4.0128   4.0323   4.0559
     4.0925   4.1795   4.3121   4.3233   4.5408   4.6595   4.7716   4.8447
     5.0176   5.1669   5.2132   5.3326   5.3422   5.3573   5.4781   5.4881
     5.5444   5.5568   5.6053   5.7100   5.7368   5.8688   5.9615   5.9801
     5.9993   6.0558   6.0985   6.1190   6.1328   6.1391   6.2283   6.2716
     6.2804   6.2859   6.3333   6.3726   6.3948   6.4600   6.4972   6.5589
     6.5967   6.6334   6.6630   6.6785   6.7350   6.7882   6.8722   6.9224
     7.0151   7.0590   7.0981   7.2044   7.2131   7.2378   7.2888   7.3440
     7.3710   7.4128   7.4389   7.4477   7.5107   7.5666   7.5731   7.6194
     7.6687   7.7601   7.7937   7.8388   7.9025   7.9281   7.9721   8.0266
     8.0437   8.0830

     occupation numbers 
     1.0000   1.0000   1.0000   1.0000   1.0000   1.0000   1.0000   1.0000
     1.0000   1.0000   1.0000   1.0000   1.0000   1.0000   1.0000   1.0000
     1.0000   1.0000   1.0000   1.0000   1.0000   1.0000   1.0000   1.0000
     1.0000   1.0000   1.0000   1.0000   1.0000   1.0000   1.0000   1.0000
     1.0000   1.0000   1.0000   1.0000   1.0000   1.0000   1.0000   1.0000
     1.0000   1.0000   1.0000   1.0000   1.0000   1.0000   1.0000   1.0000
     1.0000   1.0000   1.0000   1.0000   1.0000   1.0000   1.0000   1.0000
     1.0000   1.0000   1.0000   1.0000   1.0000   1.0000   1.0000   1.0000
     1.0000   1.0000   1.0000   1.0000   1.0000   1.0000   1.0000   1.0000
     1.0000   1.0000   1.0000   1.0000   1.0000   1.0000   1.0000   1.0000
     1.0000   1.0000   1.0000   1.0000   1.0000   1.0000   1.0000   1.0000
     1.0000   1.0000   1.0000   1.0000   1.0000   1.0000   1.0000   1.0000
     1.0000   1.0000   1.0000   1.0000   1.0000   1.0000   1.0000   1.0000
     1.0000   1.0000   1.0000   1.0000   1.0000   1.0000   1.0000   1.0000
     1.0000   1.0000   1.0000   1.0000   1.0000   1.0000   1.0000   1.0000
     1.0000   1.0000   1.0000   1.0000   1.0000   1.0000   1.0000   1.0000
     1.0000   1.0000   1.0000   1.0000   1.0000   1.0000   1.0000   1.0000
     1.0000   1.0000   1.0000   1.0000   1.0000   1.0000   1.0000   1.0000
     1.0000   1.0000   1.0000   1.0000   1.0000   1.0000   1.0000   1.0000
     1.0000   1.0000   1.0000   1.0000   1.0000   1.0000   1.0000   1.0000
     1.0000   1.0000   1.0000   1.0000   1.0000   1.0000   1.0000   1.0000
     1.0000   1.0000   1.0000   1.0000   1.0000   1.0000   1.0000   1.0000
     1.0000   1.0000   1.0000   1.0000   1.0000   1.0000   1.0000   1.0000
     1.0000   1.0000   1.0000   1.0000   1.0000   1.0000   1.0000   1.0000
     1.0000   1.0000   1.0000   1.0000   1.0000   1.0000   1.0000   1.0000
     1.0000   1.0000   1.0000   1.0000   1.0000   1.0000   1.0000   1.0000
     1.0000   1.0000   1.0000   1.0000   1.0000   1.0000   1.0000   1.0000
     1.0000   1.0000   1.0000   1.0000   1.0000   1.0000   1.0000   1.0000
     1.0000   1.0000   1.0000   1.0000   1.0000   1.0000   1.0000   1.0000
     1.0000   1.0000   1.0000   1.0000   1.0000   1.0000   1.0000   1.0000
     1.0000   1.0000   1.0000   1.0000   1.0000   1.0000   1.0000   1.0000
     1.0000   1.0000   1.0000   1.0000   1.0000   1.0000   1.0000   1.0000
     1.0000   1.0000   1.0000   1.0000   1.0000   1.0000   1.0000   1.0000
     1.0000   1.0000   1.0000   1.0000   1.0000   1.0000   1.0000   1.0000
     1.0000   1.0000   1.0000   1.0000   1.0000   1.0000   1.0000   1.0000
     1.0000   1.0000   1.0000   1.0000   1.0000   1.0000   1.0000   1.0000
     1.0000   1.0000   1.0000   1.0000   1.0000   1.0000   1.0000   1.0000
     1.0000   1.0000   1.0000   1.0000   1.0000   1.0000   1.0000   1.0000
     1.0000   1.0000   1.0000   1.0000   1.0000   1.0000   1.0000   1.0000
     1.0000   1.0000   1.0000   1.0000   1.0000   1.0000   1.0000   1.0000
     1.0000   1.0000   1.0000   1.0000   1.0000   1.0000   1.0000   1.0000
     1.0000   1.0000   1.0000   1.0000   1.0000   1.0000   1.0000   1.0000
     1.0000   1.0000   1.0000   1.0000   1.0000   1.0000   1.0000   1.0000
     1.0000   1.0000   1.0000   1.0000   1.0000   1.0000   1.0000   1.0000
     1.0000   1.0000   1.0000   1.0000   1.0000   1.0000   1.0000   1.0000
     1.0000   1.0000   1.0000   1.0000   1.0000   1.0000   1.0000   1.0000
     1.0000   1.0000   1.0000   1.0000   1.0000   1.0000   1.0000   1.0000
     1.0000   1.0000   1.0000   1.0000   1.0000   1.0000   1.0000   1.0000
     1.0000   1.0000   1.0000   1.0000   1.0000   1.0000   1.0000   1.0000
     1.0000   1.0000   1.0000   1.0000   1.0000   1.0000   1.0000   1.0000
     1.0000   1.0000   1.0000   1.0000   1.0000   1.0000   1.0000   1.0000
     1.0000   1.0000   1.0000   1.0000   1.0000   1.0000   1.0000   1.0000
     1.0000   1.0000   1.0000   1.0000   1.0000   1.0000   1.0000   1.0000
     1.0000   1.0000   1.0000   1.0000   1.0000   1.0000   1.0000   1.0000
     1.0000   1.0000   1.0000   1.0000   1.0000   1.0000   1.0000   1.0000
     1.0000   1.0000   1.0000   1.0000   1.0000   1.0000   1.0000   1.0000
     1.0000   1.0000   1.0000   1.0000   1.0000   1.0000   1.0000   1.0000
     1.0000   1.0000   1.0000   1.0000   1.0000   1.0000   1.0000   1.0000
     1.0000   1.0000   1.0000   1.0000   1.0000   1.0000   1.0000   1.0000
     1.0000   1.0000   1.0000   1.0000   1.0000   1.0000   1.0000   1.0000
     1.0000   1.0000   1.0000   1.0000   1.0000   1.0000   1.0000   1.0000
     1.0000   1.0000   1.0000   1.0000   1.0000   1.0000   1.0000   1.0000
     1.0031   1.0131   1.0145   1.0325   1.0610   1.0415   0.0362   0.0012
     0.0003   0.0002   0.0000   0.0000   0.0000   0.0000   0.0000   0.0000
     0.0000   0.0000   0.0000   0.0000   0.0000   0.0000   0.0000   0.0000
     0.0000   0.0000   0.0000   0.0000   0.0000   0.0000   0.0000   0.0000
     0.0000   0.0000   0.0000   0.0000   0.0000   0.0000   0.0000   0.0000
     0.0000   0.0000   0.0000   0.0000   0.0000   0.0000   0.0000   0.0000
     0.0000   0.0000   0.0000   0.0000   0.0000   0.0000   0.0000   0.0000
     0.0000   0.0000   0.0000   0.0000   0.0000   0.0000   0.0000   0.0000
     0.0000   0.0000   0.0000   0.0000   0.0000   0.0000   0.0000   0.0000
     0.0000   0.0000   0.0000   0.0000   0.0000   0.0000   0.0000   0.0000
     0.0000   0.0000   0.0000   0.0000   0.0000   0.0000   0.0000   0.0000
     0.0000   0.0000   0.0000   0.0000   0.0000   0.0000   0.0000   0.0000
     0.0000   0.0000   0.0000   0.0000   0.0000   0.0000   0.0000   0.0000
     0.0000   0.0000

          k = 0.0000 0.3628 0.1846 ( 71963 PWs)   bands (ev):

  -125.1868-125.1865-125.1821-125.1707-125.1688-125.1680-125.1669-125.1506
  -125.0782-125.0766-125.0757-125.0698-125.0685-125.0677-125.0645-125.0613
  -124.9989-124.9974-124.9970-124.9933-124.9911-124.9896-124.9887-124.9882
  -124.9872-124.9860-124.9859-124.9838-124.9351-124.9334-124.9325-124.9311
  -124.8965-124.8954-124.8947-124.8946-124.8939-124.8925-124.8914-124.8897
  -124.8660-124.8632-124.8594-124.8564-124.8351-124.8324-124.8156-124.7841
   -79.3443 -79.3439 -79.3399 -79.3392 -79.3343 -79.3316 -79.3315 -79.3312
   -79.3293 -79.3282 -79.3267 -79.3267 -79.3238 -79.3223 -79.3190 -79.3172
   -79.3156 -79.3149 -79.3139 -79.3085 -79.3066 -79.3017 -79.2960 -79.2953
   -79.2393 -79.2367 -79.2355 -79.2303 -79.2294 -79.2280 -79.2245 -79.2234
   -79.2227 -79.2204 -79.2195 -79.2184 -79.2162 -79.2161 -79.2150 -79.2133
   -79.2114 -79.2110 -79.2106 -79.2095 -79.2077 -79.2055 -79.2036 -79.2026
   -79.1600 -79.1589 -79.1548 -79.1531 -79.1524 -79.1503 -79.1496 -79.1490
   -79.1480 -79.1473 -79.1467 -79.1463 -79.1458 -79.1455 -79.1446 -79.1439
   -79.1434 -79.1419 -79.1408 -79.1407 -79.1402 -79.1397 -79.1391 -79.1386
   -79.1382 -79.1377 -79.1372 -79.1367 -79.1353 -79.1345 -79.1334 -79.1328
   -79.1311 -79.1285 -79.1282 -79.1221 -79.1053 -79.1037 -79.1025 -79.1012
   -79.0827 -79.0813 -79.0807 -79.0794 -79.0787 -79.0740 -79.0684 -79.0677
   -79.0669 -79.0659 -79.0635 -79.0623 -79.0622 -79.0614 -79.0605 -79.0575
   -79.0547 -79.0496 -79.0492 -79.0446 -79.0439 -79.0430 -79.0412 -79.0402
   -79.0390 -79.0378 -79.0374 -79.0370 -79.0356 -79.0336 -79.0325 -79.0318
   -79.0308 -79.0267 -79.0259 -79.0230 -79.0169 -79.0158 -79.0128 -79.0104
   -79.0092 -79.0062 -79.0036 -79.0008 -78.9993 -78.9930 -78.9839 -78.9831
   -78.9809 -78.9794 -78.9755 -78.9639 -78.9552 -78.9509 -78.9349 -78.9332
   -18.4988 -17.0151 -16.2199 -13.8133 -13.7621 -10.7877 -10.5378  -8.6303
    -8.0527  -8.0069  -7.9603  -7.5186  -7.2823  -7.0146  -6.9925  -6.8515
    -6.8388  -6.8330  -6.8139  -6.7993  -6.7563  -6.7236  -6.7203  -6.7145
    -6.6748  -6.6643  -6.6480  -6.6464  -6.6216  -6.6153  -6.6103  -6.6091
    -6.6033  -6.6008  -6.5723  -6.5683  -6.5569  -6.5446  -6.5291  -6.5211
    -6.5149  -6.5010  -6.4939  -6.4913  -6.4876  -6.4695  -6.4639  -6.4518
    -6.4504  -6.4481  -6.4363  -6.4198  -6.4167  -6.4041  -6.4025  -6.3842
    -6.3792  -6.3759  -6.3696  -6.3666  -6.3577  -6.3536  -6.3492  -6.3402
    -6.3357  -6.3239  -6.3047  -6.2955  -6.2888  -6.2869  -6.2805  -6.2641
    -6.2610  -6.2593  -6.2405  -6.2395  -6.2317  -6.2277  -6.2193  -6.2127
    -6.2062  -6.2032  -6.2009  -6.1965  -6.1802  -6.1747  -6.1663  -6.1582
    -6.1469  -6.1417  -6.1381  -6.1362  -6.1245  -6.1228  -6.1139  -6.1088
    -6.1077  -6.1002  -6.0895  -6.0862  -6.0794  -6.0658  -6.0610  -6.0575
    -6.0557  -6.0499  -6.0466  -6.0454  -6.0415  -6.0309  -6.0263  -6.0238
    -6.0169  -6.0049  -6.0025  -5.9999  -5.9845  -5.9808  -5.9747  -5.9699
    -5.9654  -5.9569  -5.9493  -5.9443  -5.9396  -5.9365  -5.9281  -5.9222
    -5.9204  -5.9134  -5.9105  -5.9055  -5.9033  -5.8946  -5.8856  -5.8811
    -5.8743  -5.8699  -5.8658  -5.8631  -5.8587  -5.8552  -5.8496  -5.8469
    -5.8381  -5.8304  -5.8280  -5.8245  -5.8168  -5.8094  -5.8056  -5.8035
    -5.7998  -5.7881  -5.7778  -5.7721  -5.7635  -5.7588  -5.7543  -5.7480
    -5.7395  -5.7336  -5.7309  -5.7268  -5.7229  -5.7187  -5.7122  -5.7098
    -5.7058  -5.7003  -5.6918  -5.6882  -5.6858  -5.6816  -5.6751  -5.6739
    -5.6680  -5.6635  -5.6594  -5.6544  -5.6523  -5.6481  -5.6452  -5.6411
    -5.6338  -5.6323  -5.6309  -5.6233  -5.6215  -5.6142  -5.6109  -5.6095
    -5.6057  -5.6030  -5.6013  -5.5957  -5.5914  -5.5845  -5.5834  -5.5823
    -5.5779  -5.5743  -5.5649  -5.5592  -5.5522  -5.5508  -5.5470  -5.5455
    -5.5416  -5.5403  -5.5354  -5.5340  -5.5328  -5.5251  -5.5225  -5.5198
    -5.5160  -5.5110  -5.5083  -5.5038  -5.5011  -5.4993  -5.4966  -5.4924
    -5.4886  -5.4878  -5.4863  -5.4839  -5.4810  -5.4791  -5.4766  -5.4724
    -5.4707  -5.4669  -5.4646  -5.4540  -5.4532  -5.4510  -5.4448  -5.4393
    -5.4363  -5.4354  -5.4326  -5.4254  -5.4195  -5.4022  -5.3964  -5.3879
    -5.3852  -5.3739  -5.3524  -5.3414  -5.3390  -5.3289  -5.3174  -5.2988
    -5.2426  -5.2197  -5.2134  -5.0508  -4.9356  -4.7841  -4.7312  -4.6615
    -4.4780  -4.3574  -4.1926  -3.9785  -3.8827  -3.6511  -3.3687  -3.3569
    -3.3096  -3.0513  -2.9056  -2.8001  -2.6950  -2.5705  -2.5675  -2.5185
    -2.3295  -2.2877  -2.1037  -1.8639  -1.7774  -1.6316  -1.4642  -1.4592
    -1.4421  -1.2660  -1.1057  -1.0320  -1.0076  -0.7347  -0.6051  -0.4237
    -0.3738  -0.2094  -0.1924  -0.0370   0.1446   0.3091   0.3821   0.5101
     0.5487   0.7138   0.8871   0.9335   1.0080   1.1583   1.3813   1.6937
     1.9004   1.9479   2.0480   2.2183   2.2885   2.4377   2.5142   2.5815
     2.6026   2.7176   3.0490   3.0984   3.1333   3.2393   3.3892   3.4826
     3.5084   3.5635   3.6033   3.9441   3.9909   4.0086   4.0425   4.0890
     4.1431   4.2268   4.2519   4.3528   4.5793   4.6150   4.6496   4.6697
     4.7522   4.8364   4.8462   4.9858   5.0697   5.0902   5.1300   5.2089
     5.2488   5.3085   5.3559   5.4599   5.4942   5.5425   5.5849   5.6499
     5.7095   5.8084   5.8333   5.8801   5.9735   6.0073   6.0892   6.1199
     6.1568   6.2013   6.2598   6.3206   6.3576   6.4006   6.4449   6.4678
     6.5261   6.5667   6.6124   6.6658   6.7746   6.8253   6.9219   6.9343
     6.9803   7.0110   7.0745   7.1038   7.1334   7.1769   7.2356   7.3132
     7.4011   7.4172   7.4659   7.5315   7.5603   7.5839   7.6207   7.6620
     7.7139   7.7727   7.8377   7.8859   7.9482   7.9789   8.0251   8.1128
     8.1541   8.1896

     occupation numbers 
     1.0000   1.0000   1.0000   1.0000   1.0000   1.0000   1.0000   1.0000
     1.0000   1.0000   1.0000   1.0000   1.0000   1.0000   1.0000   1.0000
     1.0000   1.0000   1.0000   1.0000   1.0000   1.0000   1.0000   1.0000
     1.0000   1.0000   1.0000   1.0000   1.0000   1.0000   1.0000   1.0000
     1.0000   1.0000   1.0000   1.0000   1.0000   1.0000   1.0000   1.0000
     1.0000   1.0000   1.0000   1.0000   1.0000   1.0000   1.0000   1.0000
     1.0000   1.0000   1.0000   1.0000   1.0000   1.0000   1.0000   1.0000
     1.0000   1.0000   1.0000   1.0000   1.0000   1.0000   1.0000   1.0000
     1.0000   1.0000   1.0000   1.0000   1.0000   1.0000   1.0000   1.0000
     1.0000   1.0000   1.0000   1.0000   1.0000   1.0000   1.0000   1.0000
     1.0000   1.0000   1.0000   1.0000   1.0000   1.0000   1.0000   1.0000
     1.0000   1.0000   1.0000   1.0000   1.0000   1.0000   1.0000   1.0000
     1.0000   1.0000   1.0000   1.0000   1.0000   1.0000   1.0000   1.0000
     1.0000   1.0000   1.0000   1.0000   1.0000   1.0000   1.0000   1.0000
     1.0000   1.0000   1.0000   1.0000   1.0000   1.0000   1.0000   1.0000
     1.0000   1.0000   1.0000   1.0000   1.0000   1.0000   1.0000   1.0000
     1.0000   1.0000   1.0000   1.0000   1.0000   1.0000   1.0000   1.0000
     1.0000   1.0000   1.0000   1.0000   1.0000   1.0000   1.0000   1.0000
     1.0000   1.0000   1.0000   1.0000   1.0000   1.0000   1.0000   1.0000
     1.0000   1.0000   1.0000   1.0000   1.0000   1.0000   1.0000   1.0000
     1.0000   1.0000   1.0000   1.0000   1.0000   1.0000   1.0000   1.0000
     1.0000   1.0000   1.0000   1.0000   1.0000   1.0000   1.0000   1.0000
     1.0000   1.0000   1.0000   1.0000   1.0000   1.0000   1.0000   1.0000
     1.0000   1.0000   1.0000   1.0000   1.0000   1.0000   1.0000   1.0000
     1.0000   1.0000   1.0000   1.0000   1.0000   1.0000   1.0000   1.0000
     1.0000   1.0000   1.0000   1.0000   1.0000   1.0000   1.0000   1.0000
     1.0000   1.0000   1.0000   1.0000   1.0000   1.0000   1.0000   1.0000
     1.0000   1.0000   1.0000   1.0000   1.0000   1.0000   1.0000   1.0000
     1.0000   1.0000   1.0000   1.0000   1.0000   1.0000   1.0000   1.0000
     1.0000   1.0000   1.0000   1.0000   1.0000   1.0000   1.0000   1.0000
     1.0000   1.0000   1.0000   1.0000   1.0000   1.0000   1.0000   1.0000
     1.0000   1.0000   1.0000   1.0000   1.0000   1.0000   1.0000   1.0000
     1.0000   1.0000   1.0000   1.0000   1.0000   1.0000   1.0000   1.0000
     1.0000   1.0000   1.0000   1.0000   1.0000   1.0000   1.0000   1.0000
     1.0000   1.0000   1.0000   1.0000   1.0000   1.0000   1.0000   1.0000
     1.0000   1.0000   1.0000   1.0000   1.0000   1.0000   1.0000   1.0000
     1.0000   1.0000   1.0000   1.0000   1.0000   1.0000   1.0000   1.0000
     1.0000   1.0000   1.0000   1.0000   1.0000   1.0000   1.0000   1.0000
     1.0000   1.0000   1.0000   1.0000   1.0000   1.0000   1.0000   1.0000
     1.0000   1.0000   1.0000   1.0000   1.0000   1.0000   1.0000   1.0000
     1.0000   1.0000   1.0000   1.0000   1.0000   1.0000   1.0000   1.0000
     1.0000   1.0000   1.0000   1.0000   1.0000   1.0000   1.0000   1.0000
     1.0000   1.0000   1.0000   1.0000   1.0000   1.0000   1.0000   1.0000
     1.0000   1.0000   1.0000   1.0000   1.0000   1.0000   1.0000   1.0000
     1.0000   1.0000   1.0000   1.0000   1.0000   1.0000   1.0000   1.0000
     1.0000   1.0000   1.0000   1.0000   1.0000   1.0000   1.0000   1.0000
     1.0000   1.0000   1.0000   1.0000   1.0000   1.0000   1.0000   1.0000
     1.0000   1.0000   1.0000   1.0000   1.0000   1.0000   1.0000   1.0000
     1.0000   1.0000   1.0000   1.0000   1.0000   1.0000   1.0000   1.0000
     1.0000   1.0000   1.0000   1.0000   1.0000   1.0000   1.0000   1.0000
     1.0000   1.0000   1.0000   1.0000   1.0000   1.0000   1.0000   1.0000
     1.0000   1.0000   1.0000   1.0000   1.0000   1.0000   1.0000   1.0000
     1.0000   1.0000   1.0000   1.0000   1.0000   1.0000   1.0000   1.0000
     1.0000   1.0000   1.0000   1.0000   1.0000   1.0000   1.0000   1.0000
     1.0000   1.0000   1.0000   1.0000   1.0000   1.0000   1.0000   1.0000
     1.0000   1.0000   1.0000   1.0000   1.0000   1.0000   1.0000   1.0000
     1.0000   1.0000   1.0000   1.0000   1.0000   1.0000   1.0000   1.0000
     1.0000   1.0000   1.0000   1.0000   1.0000   1.0000   1.0000   1.0000
     1.0000   1.0000   1.0000   1.0000   1.0000   1.0000   1.0000   1.0000
     1.0000   1.0000   1.0000   1.0000   1.0000   1.0000   1.0000   1.0000
     1.0000   1.0000   1.0000   1.0000   1.0000   1.0000   1.0000   1.0000
     1.0000   1.0000   1.0000   1.0000   1.0000   1.0000   1.0001   1.0013
     1.0025   1.0208   1.0737   1.0826   1.0692   0.8607   0.2880   0.0084
     0.0002   0.0001   0.0000   0.0000   0.0000   0.0000   0.0000   0.0000
     0.0000   0.0000   0.0000   0.0000   0.0000   0.0000   0.0000   0.0000
     0.0000   0.0000   0.0000   0.0000   0.0000   0.0000   0.0000   0.0000
     0.0000   0.0000   0.0000   0.0000   0.0000   0.0000   0.0000   0.0000
     0.0000   0.0000   0.0000   0.0000   0.0000   0.0000   0.0000   0.0000
     0.0000   0.0000   0.0000   0.0000   0.0000   0.0000   0.0000   0.0000
     0.0000   0.0000   0.0000   0.0000   0.0000   0.0000   0.0000   0.0000
     0.0000   0.0000   0.0000   0.0000   0.0000   0.0000   0.0000   0.0000
     0.0000   0.0000   0.0000   0.0000   0.0000   0.0000   0.0000   0.0000
     0.0000   0.0000   0.0000   0.0000   0.0000   0.0000   0.0000   0.0000
     0.0000   0.0000   0.0000   0.0000   0.0000   0.0000   0.0000   0.0000
     0.0000   0.0000   0.0000   0.0000   0.0000   0.0000   0.0000   0.0000
     0.0000   0.0000

          k = 0.3333 0.0811 0.7384 ( 72005 PWs)   bands (ev):

  -125.1868-125.1865-125.1821-125.1707-125.1688-125.1680-125.1669-125.1506
  -125.0782-125.0766-125.0757-125.0698-125.0685-125.0677-125.0645-125.0613
  -124.9989-124.9974-124.9970-124.9933-124.9911-124.9896-124.9887-124.9882
  -124.9872-124.9860-124.9859-124.9838-124.9351-124.9333-124.9325-124.9310
  -124.8965-124.8955-124.8947-124.8946-124.8939-124.8925-124.8914-124.8897
  -124.8660-124.8632-124.8594-124.8564-124.8351-124.8324-124.8156-124.7841
   -79.3443 -79.3439 -79.3407 -79.3392 -79.3328 -79.3317 -79.3314 -79.3311
   -79.3293 -79.3283 -79.3267 -79.3267 -79.3254 -79.3232 -79.3173 -79.3154
   -79.3151 -79.3138 -79.3130 -79.3125 -79.3085 -79.3001 -79.2959 -79.2953
   -79.2396 -79.2373 -79.2359 -79.2297 -79.2286 -79.2258 -79.2245 -79.2234
   -79.2226 -79.2222 -79.2192 -79.2188 -79.2164 -79.2162 -79.2147 -79.2134
   -79.2129 -79.2111 -79.2106 -79.2091 -79.2077 -79.2055 -79.2031 -79.2023
   -79.1603 -79.1591 -79.1555 -79.1536 -79.1528 -79.1501 -79.1491 -79.1483
   -79.1479 -79.1469 -79.1464 -79.1458 -79.1455 -79.1446 -79.1441 -79.1437
   -79.1425 -79.1417 -79.1415 -79.1407 -79.1405 -79.1394 -79.1393 -79.1392
   -79.1386 -79.1378 -79.1375 -79.1367 -79.1352 -79.1345 -79.1335 -79.1331
   -79.1329 -79.1300 -79.1270 -79.1209 -79.1053 -79.1037 -79.1025 -79.1012
   -79.0827 -79.0813 -79.0807 -79.0802 -79.0794 -79.0684 -79.0684 -79.0679
   -79.0676 -79.0669 -79.0659 -79.0635 -79.0622 -79.0614 -79.0605 -79.0561
   -79.0560 -79.0507 -79.0445 -79.0440 -79.0434 -79.0424 -79.0418 -79.0399
   -79.0394 -79.0386 -79.0376 -79.0372 -79.0364 -79.0356 -79.0336 -79.0309
   -79.0308 -79.0259 -79.0253 -79.0230 -79.0180 -79.0158 -79.0128 -79.0093
   -79.0062 -79.0054 -79.0043 -79.0036 -79.0008 -78.9918 -78.9839 -78.9832
   -78.9809 -78.9800 -78.9745 -78.9639 -78.9555 -78.9509 -78.9349 -78.9331
   -18.4988 -17.0151 -16.2200 -13.8133 -13.7621 -10.7877 -10.5378  -8.6304
    -8.0521  -8.0414  -7.9735  -7.6716  -7.0107  -6.9517  -6.9391  -6.9112
    -6.8859  -6.8514  -6.8489  -6.8261  -6.7889  -6.7589  -6.7428  -6.7331
    -6.7148  -6.6849  -6.6689  -6.6553  -6.6247  -6.6213  -6.6187  -6.5955
    -6.5754  -6.5742  -6.5479  -6.5422  -6.5248  -6.5001  -6.4974  -6.4964
    -6.4932  -6.4749  -6.4629  -6.4573  -6.4541  -6.4482  -6.4432  -6.4396
    -6.4350  -6.4300  -6.4263  -6.4203  -6.4174  -6.4132  -6.3996  -6.3940
    -6.3893  -6.3862  -6.3831  -6.3669  -6.3578  -6.3478  -6.3421  -6.3392
    -6.3314  -6.3282  -6.3144  -6.3103  -6.2969  -6.2867  -6.2820  -6.2733
    -6.2599  -6.2550  -6.2497  -6.2395  -6.2319  -6.2203  -6.2162  -6.2079
    -6.1962  -6.1895  -6.1870  -6.1837  -6.1812  -6.1739  -6.1643  -6.1524
    -6.1389  -6.1309  -6.1227  -6.1190  -6.1164  -6.1133  -6.1091  -6.1048
    -6.0961  -6.0884  -6.0853  -6.0710  -6.0684  -6.0598  -6.0559  -6.0498
    -6.0458  -6.0422  -6.0376  -6.0270  -6.0190  -6.0044  -6.0029  -5.9958
    -5.9915  -5.9839  -5.9773  -5.9725  -5.9702  -5.9667  -5.9642  -5.9468
    -5.9428  -5.9411  -5.9344  -5.9298  -5.9268  -5.9239  -5.9222  -5.9177
    -5.9137  -5.9066  -5.8995  -5.8975  -5.8905  -5.8861  -5.8834  -5.8772
    -5.8732  -5.8667  -5.8596  -5.8550  -5.8509  -5.8487  -5.8461  -5.8400
    -5.8298  -5.8274  -5.8250  -5.8207  -5.8159  -5.8133  -5.8088  -5.8074
    -5.8037  -5.7955  -5.7896  -5.7819  -5.7803  -5.7774  -5.7761  -5.7677
    -5.7637  -5.7548  -5.7505  -5.7485  -5.7459  -5.7445  -5.7387  -5.7292
    -5.7243  -5.7200  -5.7195  -5.7175  -5.7086  -5.7050  -5.7029  -5.6960
    -5.6929  -5.6871  -5.6832  -5.6742  -5.6734  -5.6709  -5.6632  -5.6586
    -5.6563  -5.6552  -5.6537  -5.6488  -5.6450  -5.6422  -5.6343  -5.6334
    -5.6232  -5.6148  -5.6133  -5.6081  -5.6020  -5.5986  -5.5974  -5.5936
    -5.5919  -5.5901  -5.5861  -5.5809  -5.5768  -5.5734  -5.5676  -5.5580
    -5.5564  -5.5527  -5.5511  -5.5475  -5.5405  -5.5394  -5.5326  -5.5284
    -5.5244  -5.5187  -5.5163  -5.5125  -5.5099  -5.5028  -5.5007  -5.4975
    -5.4926  -5.4916  -5.4863  -5.4824  -5.4776  -5.4759  -5.4709  -5.4687
    -5.4622  -5.4587  -5.4577  -5.4509  -5.4481  -5.4430  -5.4398  -5.4319
    -5.4267  -5.4179  -5.4140  -5.3996  -5.3928  -5.3897  -5.3803  -5.3782
    -5.3736  -5.3604  -5.3412  -5.3376  -5.3182  -5.2857  -5.2794  -5.2683
    -5.2651  -5.2318  -5.1808  -5.0559  -4.9037  -4.8756  -4.8665  -4.6652
    -4.4264  -4.2875  -4.2746  -3.9608  -3.8225  -3.7068  -3.6482  -3.4611
    -3.3530  -3.3214  -2.9059  -2.8456  -2.7353  -2.5807  -2.5698  -2.5334
    -2.3604  -1.9153  -1.7431  -1.7173  -1.6328  -1.5145  -1.5002  -1.4552
    -1.2815  -1.0902  -1.0157  -0.9470  -0.6840  -0.5163  -0.4274  -0.4176
    -0.2392  -0.1977  -0.1850  -0.1320  -0.0950   0.0253   0.1994   0.2615
     0.6325   0.6505   0.7906   1.0774   1.2021   1.4459   1.4639   1.5157
     1.6011   1.7719   1.8321   1.9656   2.0000   2.0793   2.4838   2.6034
     2.7701   2.7871   2.9085   2.9526   2.9681   2.9935   3.2003   3.2563
     3.4538   3.4623   3.5487   3.5996   3.6152   3.7736   3.8614   3.8947
     4.1105   4.2624   4.4267   4.4510   4.6541   4.6987   4.7427   4.7572
     4.8059   4.9159   5.0143   5.1048   5.1743   5.2223   5.2520   5.3170
     5.3303   5.3389   5.3775   5.5133   5.5827   5.6497   5.6989   5.7589
     5.8379   5.9141   5.9473   6.0045   6.0744   6.1839   6.2197   6.2471
     6.2808   6.3725   6.5112   6.5333   6.5567   6.6053   6.6609   6.7074
     6.7989   6.8194   6.8652   6.9010   6.9301   6.9938   7.0176   7.0493
     7.0891   7.1211   7.1516   7.1709   7.1958   7.2295   7.3044   7.3505
     7.3620   7.3863   7.4342   7.4858   7.5502   7.5724   7.6093   7.6270
     7.6559   7.6748   7.7457   7.7617   7.8550   7.9302   7.9856   8.0462
     8.0995   8.1301

     occupation numbers 
     1.0000   1.0000   1.0000   1.0000   1.0000   1.0000   1.0000   1.0000
     1.0000   1.0000   1.0000   1.0000   1.0000   1.0000   1.0000   1.0000
     1.0000   1.0000   1.0000   1.0000   1.0000   1.0000   1.0000   1.0000
     1.0000   1.0000   1.0000   1.0000   1.0000   1.0000   1.0000   1.0000
     1.0000   1.0000   1.0000   1.0000   1.0000   1.0000   1.0000   1.0000
     1.0000   1.0000   1.0000   1.0000   1.0000   1.0000   1.0000   1.0000
     1.0000   1.0000   1.0000   1.0000   1.0000   1.0000   1.0000   1.0000
     1.0000   1.0000   1.0000   1.0000   1.0000   1.0000   1.0000   1.0000
     1.0000   1.0000   1.0000   1.0000   1.0000   1.0000   1.0000   1.0000
     1.0000   1.0000   1.0000   1.0000   1.0000   1.0000   1.0000   1.0000
     1.0000   1.0000   1.0000   1.0000   1.0000   1.0000   1.0000   1.0000
     1.0000   1.0000   1.0000   1.0000   1.0000   1.0000   1.0000   1.0000
     1.0000   1.0000   1.0000   1.0000   1.0000   1.0000   1.0000   1.0000
     1.0000   1.0000   1.0000   1.0000   1.0000   1.0000   1.0000   1.0000
     1.0000   1.0000   1.0000   1.0000   1.0000   1.0000   1.0000   1.0000
     1.0000   1.0000   1.0000   1.0000   1.0000   1.0000   1.0000   1.0000
     1.0000   1.0000   1.0000   1.0000   1.0000   1.0000   1.0000   1.0000
     1.0000   1.0000   1.0000   1.0000   1.0000   1.0000   1.0000   1.0000
     1.0000   1.0000   1.0000   1.0000   1.0000   1.0000   1.0000   1.0000
     1.0000   1.0000   1.0000   1.0000   1.0000   1.0000   1.0000   1.0000
     1.0000   1.0000   1.0000   1.0000   1.0000   1.0000   1.0000   1.0000
     1.0000   1.0000   1.0000   1.0000   1.0000   1.0000   1.0000   1.0000
     1.0000   1.0000   1.0000   1.0000   1.0000   1.0000   1.0000   1.0000
     1.0000   1.0000   1.0000   1.0000   1.0000   1.0000   1.0000   1.0000
     1.0000   1.0000   1.0000   1.0000   1.0000   1.0000   1.0000   1.0000
     1.0000   1.0000   1.0000   1.0000   1.0000   1.0000   1.0000   1.0000
     1.0000   1.0000   1.0000   1.0000   1.0000   1.0000   1.0000   1.0000
     1.0000   1.0000   1.0000   1.0000   1.0000   1.0000   1.0000   1.0000
     1.0000   1.0000   1.0000   1.0000   1.0000   1.0000   1.0000   1.0000
     1.0000   1.0000   1.0000   1.0000   1.0000   1.0000   1.0000   1.0000
     1.0000   1.0000   1.0000   1.0000   1.0000   1.0000   1.0000   1.0000
     1.0000   1.0000   1.0000   1.0000   1.0000   1.0000   1.0000   1.0000
     1.0000   1.0000   1.0000   1.0000   1.0000   1.0000   1.0000   1.0000
     1.0000   1.0000   1.0000   1.0000   1.0000   1.0000   1.0000   1.0000
     1.0000   1.0000   1.0000   1.0000   1.0000   1.0000   1.0000   1.0000
     1.0000   1.0000   1.0000   1.0000   1.0000   1.0000   1.0000   1.0000
     1.0000   1.0000   1.0000   1.0000   1.0000   1.0000   1.0000   1.0000
     1.0000   1.0000   1.0000   1.0000   1.0000   1.0000   1.0000   1.0000
     1.0000   1.0000   1.0000   1.0000   1.0000   1.0000   1.0000   1.0000
     1.0000   1.0000   1.0000   1.0000   1.0000   1.0000   1.0000   1.0000
     1.0000   1.0000   1.0000   1.0000   1.0000   1.0000   1.0000   1.0000
     1.0000   1.0000   1.0000   1.0000   1.0000   1.0000   1.0000   1.0000
     1.0000   1.0000   1.0000   1.0000   1.0000   1.0000   1.0000   1.0000
     1.0000   1.0000   1.0000   1.0000   1.0000   1.0000   1.0000   1.0000
     1.0000   1.0000   1.0000   1.0000   1.0000   1.0000   1.0000   1.0000
     1.0000   1.0000   1.0000   1.0000   1.0000   1.0000   1.0000   1.0000
     1.0000   1.0000   1.0000   1.0000   1.0000   1.0000   1.0000   1.0000
     1.0000   1.0000   1.0000   1.0000   1.0000   1.0000   1.0000   1.0000
     1.0000   1.0000   1.0000   1.0000   1.0000   1.0000   1.0000   1.0000
     1.0000   1.0000   1.0000   1.0000   1.0000   1.0000   1.0000   1.0000
     1.0000   1.0000   1.0000   1.0000   1.0000   1.0000   1.0000   1.0000
     1.0000   1.0000   1.0000   1.0000   1.0000   1.0000   1.0000   1.0000
     1.0000   1.0000   1.0000   1.0000   1.0000   1.0000   1.0000   1.0000
     1.0000   1.0000   1.0000   1.0000   1.0000   1.0000   1.0000   1.0000
     1.0000   1.0000   1.0000   1.0000   1.0000   1.0000   1.0000   1.0000
     1.0000   1.0000   1.0000   1.0000   1.0000   1.0000   1.0000   1.0000
     1.0000   1.0000   1.0000   1.0000   1.0000   1.0000   1.0000   1.0000
     1.0000   1.0000   1.0000   1.0000   1.0000   1.0000   1.0000   1.0000
     1.0000   1.0000   1.0000   1.0000   1.0000   1.0000   1.0000   1.0000
     1.0000   1.0000   1.0000   1.0000   1.0000   1.0000   1.0000   1.0000
     1.0000   1.0000   1.0000   1.0000   1.0000   1.0000   1.0000   1.0000
     1.0000   1.0000   1.0000   1.0000   1.0000   1.0000   1.0000   1.0000
     1.0081   1.0101   1.0418   1.0067   0.7537   0.1696   0.1437   0.0853
     0.0311   0.0024   0.0008   0.0000   0.0000   0.0000   0.0000   0.0000
     0.0000   0.0000   0.0000   0.0000   0.0000   0.0000   0.0000   0.0000
     0.0000   0.0000   0.0000   0.0000   0.0000   0.0000   0.0000   0.0000
     0.0000   0.0000   0.0000   0.0000   0.0000   0.0000   0.0000   0.0000
     0.0000   0.0000   0.0000   0.0000   0.0000   0.0000   0.0000   0.0000
     0.0000   0.0000   0.0000   0.0000   0.0000   0.0000   0.0000   0.0000
     0.0000   0.0000   0.0000   0.0000   0.0000   0.0000   0.0000   0.0000
     0.0000   0.0000   0.0000   0.0000   0.0000   0.0000   0.0000   0.0000
     0.0000   0.0000   0.0000   0.0000   0.0000   0.0000   0.0000   0.0000
     0.0000   0.0000   0.0000   0.0000   0.0000   0.0000   0.0000   0.0000
     0.0000   0.0000   0.0000   0.0000   0.0000   0.0000   0.0000   0.0000
     0.0000   0.0000   0.0000   0.0000   0.0000   0.0000   0.0000   0.0000
     0.0000   0.0000

          k = 0.3333 0.4439 0.9230 ( 71974 PWs)   bands (ev):

  -125.1868-125.1865-125.1821-125.1707-125.1688-125.1680-125.1669-125.1506
  -125.0782-125.0766-125.0757-125.0698-125.0685-125.0677-125.0645-125.0613
  -124.9989-124.9974-124.9970-124.9933-124.9911-124.9896-124.9887-124.9882
  -124.9872-124.9860-124.9859-124.9838-124.9351-124.9334-124.9325-124.9311
  -124.8965-124.8954-124.8947-124.8946-124.8939-124.8925-124.8914-124.8897
  -124.8660-124.8632-124.8594-124.8564-124.8351-124.8324-124.8156-124.7841
   -79.3443 -79.3439 -79.3399 -79.3392 -79.3343 -79.3316 -79.3315 -79.3312
   -79.3293 -79.3282 -79.3267 -79.3267 -79.3238 -79.3223 -79.3190 -79.3172
   -79.3156 -79.3149 -79.3139 -79.3085 -79.3066 -79.3017 -79.2960 -79.2953
   -79.2393 -79.2367 -79.2355 -79.2303 -79.2294 -79.2280 -79.2245 -79.2234
   -79.2227 -79.2204 -79.2195 -79.2184 -79.2162 -79.2161 -79.2150 -79.2133
   -79.2114 -79.2110 -79.2106 -79.2095 -79.2077 -79.2055 -79.2036 -79.2026
   -79.1600 -79.1589 -79.1548 -79.1531 -79.1524 -79.1503 -79.1496 -79.1490
   -79.1480 -79.1473 -79.1467 -79.1463 -79.1458 -79.1455 -79.1446 -79.1439
   -79.1434 -79.1419 -79.1408 -79.1407 -79.1402 -79.1397 -79.1391 -79.1386
   -79.1382 -79.1377 -79.1372 -79.1367 -79.1353 -79.1345 -79.1334 -79.1328
   -79.1311 -79.1285 -79.1282 -79.1221 -79.1053 -79.1037 -79.1025 -79.1012
   -79.0827 -79.0813 -79.0807 -79.0794 -79.0787 -79.0740 -79.0684 -79.0677
   -79.0669 -79.0659 -79.0635 -79.0623 -79.0622 -79.0614 -79.0605 -79.0575
   -79.0547 -79.0496 -79.0492 -79.0446 -79.0439 -79.0429 -79.0412 -79.0402
   -79.0390 -79.0378 -79.0373 -79.0370 -79.0356 -79.0336 -79.0325 -79.0318
   -79.0308 -79.0267 -79.0259 -79.0230 -79.0169 -79.0158 -79.0128 -79.0104
   -79.0092 -79.0062 -79.0036 -79.0008 -78.9993 -78.9930 -78.9839 -78.9831
   -78.9809 -78.9794 -78.9755 -78.9639 -78.9552 -78.9509 -78.9349 -78.9332
   -18.4988 -17.0151 -16.2199 -13.8133 -13.7621 -10.7877 -10.5378  -8.6303
    -8.0523  -7.9869  -7.8189  -7.6122  -7.5170  -7.0150  -6.8977  -6.8562
    -6.8345  -6.8147  -6.8020  -6.7995  -6.7333  -6.7223  -6.7185  -6.7140
    -6.6793  -6.6673  -6.6636  -6.6470  -6.6359  -6.6230  -6.6150  -6.6124
    -6.6054  -6.5831  -6.5762  -6.5680  -6.5612  -6.5464  -6.5417  -6.5292
    -6.5211  -6.5007  -6.4922  -6.4857  -6.4779  -6.4692  -6.4647  -6.4538
    -6.4503  -6.4420  -6.4397  -6.4345  -6.4208  -6.4114  -6.4026  -6.3830
    -6.3796  -6.3755  -6.3675  -6.3592  -6.3565  -6.3408  -6.3389  -6.3351
    -6.3237  -6.3202  -6.3033  -6.2962  -6.2894  -6.2879  -6.2802  -6.2744
    -6.2630  -6.2602  -6.2495  -6.2386  -6.2309  -6.2264  -6.2232  -6.2159
    -6.2042  -6.1995  -6.1971  -6.1867  -6.1757  -6.1712  -6.1672  -6.1655
    -6.1639  -6.1557  -6.1377  -6.1350  -6.1246  -6.1224  -6.1080  -6.1059
    -6.1019  -6.0999  -6.0823  -6.0797  -6.0756  -6.0644  -6.0609  -6.0554
    -6.0495  -6.0456  -6.0420  -6.0335  -6.0314  -6.0274  -6.0236  -6.0164
    -6.0131  -6.0044  -6.0003  -5.9927  -5.9893  -5.9833  -5.9790  -5.9758
    -5.9698  -5.9669  -5.9584  -5.9539  -5.9456  -5.9434  -5.9364  -5.9280
    -5.9157  -5.9117  -5.9097  -5.9065  -5.9026  -5.8991  -5.8945  -5.8880
    -5.8807  -5.8709  -5.8659  -5.8635  -5.8555  -5.8477  -5.8452  -5.8386
    -5.8376  -5.8321  -5.8270  -5.8246  -5.8165  -5.8140  -5.8056  -5.8017
    -5.7984  -5.7919  -5.7871  -5.7800  -5.7769  -5.7713  -5.7535  -5.7509
    -5.7429  -5.7394  -5.7335  -5.7305  -5.7207  -5.7182  -5.7119  -5.7091
    -5.7083  -5.7004  -5.6947  -5.6924  -5.6886  -5.6854  -5.6771  -5.6735
    -5.6691  -5.6668  -5.6635  -5.6631  -5.6582  -5.6545  -5.6489  -5.6482
    -5.6371  -5.6344  -5.6323  -5.6307  -5.6289  -5.6244  -5.6215  -5.6142
    -5.6072  -5.6022  -5.6010  -5.5964  -5.5868  -5.5846  -5.5829  -5.5794
    -5.5739  -5.5699  -5.5642  -5.5586  -5.5569  -5.5553  -5.5512  -5.5502
    -5.5428  -5.5416  -5.5355  -5.5344  -5.5306  -5.5263  -5.5220  -5.5193
    -5.5140  -5.5080  -5.5051  -5.5039  -5.5004  -5.4989  -5.4975  -5.4943
    -5.4919  -5.4880  -5.4870  -5.4833  -5.4789  -5.4768  -5.4752  -5.4709
    -5.4667  -5.4600  -5.4537  -5.4526  -5.4512  -5.4474  -5.4443  -5.4394
    -5.4360  -5.4337  -5.4325  -5.4229  -5.4179  -5.4066  -5.4010  -5.3807
    -5.3719  -5.3550  -5.3447  -5.3410  -5.3344  -5.3273  -5.3238  -5.2869
    -5.2265  -5.2178  -5.0589  -4.9370  -4.8187  -4.7838  -4.7313  -4.6547
    -4.4815  -4.3568  -4.1931  -3.9234  -3.7928  -3.6515  -3.4978  -3.3580
    -3.3099  -3.1156  -2.9056  -2.7992  -2.6930  -2.5953  -2.5702  -2.5662
    -2.5253  -2.3651  -2.2871  -2.0979  -2.0469  -1.8601  -1.6314  -1.4623
    -1.4346  -1.2655  -1.0341  -0.9143  -0.7366  -0.6192  -0.4443  -0.4172
    -0.3704  -0.0448  -0.0180   0.1325   0.1673   0.3465   0.5643   0.5945
     0.6768   0.9278   0.9353   1.0068   1.1896   1.3819   1.5713   1.5908
     1.9488   1.9632   2.0461   2.1445   2.2812   2.4155   2.4996   2.5997
     2.7023   2.7233   2.7364   3.0291   3.0528   3.0990   3.1145   3.2764
     3.3872   3.4143   3.5096   3.5964   3.6331   3.7755   3.9890   4.0372
     4.0543   4.0621   4.1122   4.2501   4.4236   4.5755   4.6270   4.6488
     4.6713   4.8401   4.8779   4.9806   5.0585   5.0758   5.2106   5.3043
     5.3297   5.3401   5.3921   5.5183   5.5987   5.6204   5.6871   5.7173
     5.7984   5.8103   5.8418   5.9753   6.0275   6.0574   6.0993   6.1313
     6.1497   6.2082   6.2809   6.3265   6.3540   6.4545   6.4686   6.5137
     6.5655   6.5830   6.6261   6.7000   6.7578   6.7989   6.8259   6.9173
     6.9336   7.0366   7.1143   7.1340   7.1785   7.2669   7.3057   7.3369
     7.3799   7.4813   7.5160   7.5685   7.6291   7.6965   7.7310   7.7722
     7.8233   7.9133   7.9551   8.0095   8.0522   8.0752   8.1321   8.1587
     8.1988   8.2811

     occupation numbers 
     1.0000   1.0000   1.0000   1.0000   1.0000   1.0000   1.0000   1.0000
     1.0000   1.0000   1.0000   1.0000   1.0000   1.0000   1.0000   1.0000
     1.0000   1.0000   1.0000   1.0000   1.0000   1.0000   1.0000   1.0000
     1.0000   1.0000   1.0000   1.0000   1.0000   1.0000   1.0000   1.0000
     1.0000   1.0000   1.0000   1.0000   1.0000   1.0000   1.0000   1.0000
     1.0000   1.0000   1.0000   1.0000   1.0000   1.0000   1.0000   1.0000
     1.0000   1.0000   1.0000   1.0000   1.0000   1.0000   1.0000   1.0000
     1.0000   1.0000   1.0000   1.0000   1.0000   1.0000   1.0000   1.0000
     1.0000   1.0000   1.0000   1.0000   1.0000   1.0000   1.0000   1.0000
     1.0000   1.0000   1.0000   1.0000   1.0000   1.0000   1.0000   1.0000
     1.0000   1.0000   1.0000   1.0000   1.0000   1.0000   1.0000   1.0000
     1.0000   1.0000   1.0000   1.0000   1.0000   1.0000   1.0000   1.0000
     1.0000   1.0000   1.0000   1.0000   1.0000   1.0000   1.0000   1.0000
     1.0000   1.0000   1.0000   1.0000   1.0000   1.0000   1.0000   1.0000
     1.0000   1.0000   1.0000   1.0000   1.0000   1.0000   1.0000   1.0000
     1.0000   1.0000   1.0000   1.0000   1.0000   1.0000   1.0000   1.0000
     1.0000   1.0000   1.0000   1.0000   1.0000   1.0000   1.0000   1.0000
     1.0000   1.0000   1.0000   1.0000   1.0000   1.0000   1.0000   1.0000
     1.0000   1.0000   1.0000   1.0000   1.0000   1.0000   1.0000   1.0000
     1.0000   1.0000   1.0000   1.0000   1.0000   1.0000   1.0000   1.0000
     1.0000   1.0000   1.0000   1.0000   1.0000   1.0000   1.0000   1.0000
     1.0000   1.0000   1.0000   1.0000   1.0000   1.0000   1.0000   1.0000
     1.0000   1.0000   1.0000   1.0000   1.0000   1.0000   1.0000   1.0000
     1.0000   1.0000   1.0000   1.0000   1.0000   1.0000   1.0000   1.0000
     1.0000   1.0000   1.0000   1.0000   1.0000   1.0000   1.0000   1.0000
     1.0000   1.0000   1.0000   1.0000   1.0000   1.0000   1.0000   1.0000
     1.0000   1.0000   1.0000   1.0000   1.0000   1.0000   1.0000   1.0000
     1.0000   1.0000   1.0000   1.0000   1.0000   1.0000   1.0000   1.0000
[...]
     atom   60 type  4   force =    -1.89354087    2.54478081   -8.87773699
     atom   61 type  4   force =    -0.05563938   -3.15400192   -8.84713278
     atom   62 type  4   force =    -0.50371800    3.05437056  -11.51908651
     atom   63 type  4   force =     1.39193279   -2.70366597  -11.57112599
     The core correction contribution to forces
     atom    1 type  1   force =     0.00000000    0.00000000    0.00000000
     atom    2 type  1   force =     0.00000000    0.00000000    0.00000000
     atom    3 type  1   force =     0.00000000    0.00000000    0.00000000
     atom    4 type  1   force =     0.00000000    0.00000000    0.00000000
     atom    5 type  1   force =     0.00000000    0.00000000    0.00000000
     atom    6 type  1   force =     0.00000000    0.00000000    0.00000000
     atom    7 type  1   force =     0.00000000    0.00000000    0.00000000
     atom    8 type  1   force =     0.00000000    0.00000000    0.00000000
     atom    9 type  1   force =     0.00000000    0.00000000    0.00000000
     atom   10 type  1   force =     0.00000000    0.00000000    0.00000000
     atom   11 type  1   force =     0.00000000    0.00000000    0.00000000
     atom   12 type  1   force =     0.00000000    0.00000000    0.00000000
     atom   13 type  1   force =     0.00000000    0.00000000    0.00000000
     atom   14 type  1   force =     0.00000000    0.00000000    0.00000000
     atom   15 type  1   force =     0.00000000    0.00000000    0.00000000
     atom   16 type  1   force =     0.00000000    0.00000000    0.00000000
     atom   17 type  1   force =     0.00000000    0.00000000    0.00000000
     atom   18 type  1   force =     0.00000000    0.00000000    0.00000000
     atom   19 type  1   force =     0.00000000    0.00000000    0.00000000
     atom   20 type  1   force =     0.00000000    0.00000000    0.00000000
     atom   21 type  1   force =     0.00000000    0.00000000    0.00000000
     atom   22 type  1   force =     0.00000000    0.00000000    0.00000000
     atom   23 type  1   force =     0.00000000    0.00000000    0.00000000
     atom   24 type  1   force =     0.00000000    0.00000000    0.00000000
     atom   25 type  1   force =     0.00000000    0.00000000    0.00000000
     atom   26 type  1   force =     0.00000000    0.00000000    0.00000000
     atom   27 type  1   force =     0.00000000    0.00000000    0.00000000
     atom   28 type  1   force =     0.00000000    0.00000000    0.00000000
     atom   29 type  1   force =     0.00000000    0.00000000    0.00000000
     atom   30 type  1   force =     0.00000000    0.00000000    0.00000000
     atom   31 type  1   force =     0.00000000    0.00000000    0.00000000
     atom   32 type  1   force =     0.00000000    0.00000000    0.00000000
     atom   33 type  1   force =     0.00000000    0.00000000    0.00000000
     atom   34 type  1   force =     0.00000000    0.00000000    0.00000000
     atom   35 type  1   force =     0.00000000    0.00000000    0.00000000
     atom   36 type  1   force =     0.00000000    0.00000000    0.00000000
     atom   37 type  1   force =     0.00000000    0.00000000    0.00000000
     atom   38 type  1   force =     0.00000000    0.00000000    0.00000000
     atom   39 type  1   force =     0.00000000    0.00000000    0.00000000
     atom   40 type  1   force =     0.00000000    0.00000000    0.00000000
     atom   41 type  1   force =     0.00000000    0.00000000    0.00000000
     atom   42 type  1   force =     0.00000000    0.00000000    0.00000000
     atom   43 type  1   force =     0.00000000    0.00000000    0.00000000
     atom   44 type  1   force =     0.00000000    0.00000000    0.00000000
     atom   45 type  1   force =     0.00000000    0.00000000    0.00000000
     atom   46 type  1   force =     0.00000000    0.00000000    0.00000000
     atom   47 type  1   force =     0.00000000    0.00000000    0.00000000
     atom   48 type  1   force =     0.00000000    0.00000000    0.00000000
     atom   49 type  3   force =     0.01200396    0.00376965    0.01311644
     atom   50 type  3   force =    -0.00393560   -0.00123163   -0.00423003
     atom   51 type  3   force =    -0.00068282   -0.00069259   -0.00102620
     atom   52 type  3   force =    -0.00098510    0.00010040   -0.00096121
     atom   53 type  3   force =     0.00123429   -0.00029009    0.00128056
     atom   54 type  3   force =     0.00091636    0.00094506    0.00119687
     atom   55 type  3   force =     0.00451550    0.00147024    0.00603999
     atom   56 type  2   force =     0.00645909    0.00206391    0.00721779
     atom   57 type  2   force =     0.00257435    0.00087106   -0.00678550
     atom   58 type  4   force =     0.00000000    0.00000000    0.00000000
     atom   59 type  4   force =     0.00000000    0.00000000    0.00000000
     atom   60 type  4   force =     0.00000000    0.00000000    0.00000000
     atom   61 type  4   force =     0.00000000    0.00000000    0.00000000
     atom   62 type  4   force =     0.00000000    0.00000000    0.00000000
     atom   63 type  4   force =     0.00000000    0.00000000    0.00000000
     The Hubbard contrib.    to forces
     atom    1 type  1   force =     0.00000000    0.00000000    0.00000000
     atom    2 type  1   force =     0.00000000    0.00000000    0.00000000
     atom    3 type  1   force =     0.00000000    0.00000000    0.00000000
     atom    4 type  1   force =     0.00000000    0.00000000    0.00000000
     atom    5 type  1   force =     0.00000000    0.00000000    0.00000000
     atom    6 type  1   force =     0.00000000    0.00000000    0.00000000
     atom    7 type  1   force =     0.00000000    0.00000000    0.00000000
     atom    8 type  1   force =     0.00000000    0.00000000    0.00000000
     atom    9 type  1   force =     0.00000000    0.00000000    0.00000000
     atom   10 type  1   force =     0.00000000    0.00000000    0.00000000
     atom   11 type  1   force =     0.00000000    0.00000000    0.00000000
     atom   12 type  1   force =     0.00000000    0.00000000    0.00000000
     atom   13 type  1   force =     0.00000000    0.00000000    0.00000000
     atom   14 type  1   force =     0.00000000    0.00000000    0.00000000
     atom   15 type  1   force =     0.00000000    0.00000000    0.00000000
     atom   16 type  1   force =     0.00000000    0.00000000    0.00000000
     atom   17 type  1   force =     0.00000000    0.00000000    0.00000000
     atom   18 type  1   force =     0.00000000    0.00000000    0.00000000
     atom   19 type  1   force =     0.00000000    0.00000000    0.00000000
     atom   20 type  1   force =     0.00000000    0.00000000    0.00000000
     atom   21 type  1   force =     0.00000000    0.00000000    0.00000000
     atom   22 type  1   force =     0.00000000    0.00000000    0.00000000
     atom   23 type  1   force =     0.00000000    0.00000000    0.00000000
     atom   24 type  1   force =     0.00000000    0.00000000    0.00000000
     atom   25 type  1   force =     0.00000000    0.00000000    0.00000000
     atom   26 type  1   force =     0.00000000    0.00000000    0.00000000
     atom   27 type  1   force =     0.00000000    0.00000000    0.00000000
     atom   28 type  1   force =     0.00000000    0.00000000    0.00000000
     atom   29 type  1   force =     0.00000000    0.00000000    0.00000000
     atom   30 type  1   force =     0.00000000    0.00000000    0.00000000
     atom   31 type  1   force =     0.00000000    0.00000000    0.00000000
     atom   32 type  1   force =     0.00000000    0.00000000    0.00000000
     atom   33 type  1   force =     0.00000000    0.00000000    0.00000000
     atom   34 type  1   force =     0.00000000    0.00000000    0.00000000
     atom   35 type  1   force =     0.00000000    0.00000000    0.00000000
     atom   36 type  1   force =     0.00000000    0.00000000    0.00000000
     atom   37 type  1   force =     0.00000000    0.00000000    0.00000000
     atom   38 type  1   force =     0.00000000    0.00000000    0.00000000
     atom   39 type  1   force =     0.00000000    0.00000000    0.00000000
     atom   40 type  1   force =     0.00000000    0.00000000    0.00000000
     atom   41 type  1   force =     0.00000000    0.00000000    0.00000000
     atom   42 type  1   force =     0.00000000    0.00000000    0.00000000
     atom   43 type  1   force =     0.00000000    0.00000000    0.00000000
     atom   44 type  1   force =     0.00000000    0.00000000    0.00000000
     atom   45 type  1   force =     0.00000000    0.00000000    0.00000000
     atom   46 type  1   force =     0.00000000    0.00000000    0.00000000
     atom   47 type  1   force =     0.00000000    0.00000000    0.00000000
     atom   48 type  1   force =     0.00000000    0.00000000    0.00000000
     atom   49 type  3   force =     0.00000000    0.00000000    0.00000000
     atom   50 type  3   force =     0.00000000    0.00000000    0.00000000
     atom   51 type  3   force =     0.00000000    0.00000000    0.00000000
     atom   52 type  3   force =     0.00000000    0.00000000    0.00000000
     atom   53 type  3   force =     0.00000000    0.00000000    0.00000000
     atom   54 type  3   force =     0.00000000    0.00000000    0.00000000
     atom   55 type  3   force =     0.00000000    0.00000000    0.00000000
     atom   56 type  2   force =     0.00000000    0.00000000    0.00000000
     atom   57 type  2   force =     0.00000000    0.00000000    0.00000000
     atom   58 type  4   force =     0.00000000    0.00000000    0.00000000
     atom   59 type  4   force =     0.00000000    0.00000000    0.00000000
     atom   60 type  4   force =     0.00000000    0.00000000    0.00000000
     atom   61 type  4   force =     0.00000000    0.00000000    0.00000000
     atom   62 type  4   force =     0.00000000    0.00000000    0.00000000
     atom   63 type  4   force =     0.00000000    0.00000000    0.00000000
     The SCF correction term to forces
     atom    1 type  1   force =    -0.00000000   -0.00000000    0.00000000
     atom    2 type  1   force =    -0.00000000   -0.00000000    0.00000000
     atom    3 type  1   force =     0.00000410    0.00001200   -0.00000957
     atom    4 type  1   force =     0.00000766   -0.00000787   -0.00002161
     atom    5 type  1   force =     0.00003645    0.00002482    0.00001899
     atom    6 type  1   force =     0.00005190    0.00000461    0.00002070
     atom    7 type  1   force =    -0.00000000    0.00000000    0.00000000
     atom    8 type  1   force =    -0.00000000   -0.00000000    0.00000000
     atom    9 type  1   force =     0.00000344    0.00001110   -0.00001108
     atom   10 type  1   force =     0.00000296   -0.00000807   -0.00002431
     atom   11 type  1   force =     0.00004253    0.00001938    0.00002241
     atom   12 type  1   force =     0.00004279    0.00000513    0.00002478
     atom   13 type  1   force =     0.00000000    0.00000000    0.00000000
     atom   14 type  1   force =     0.00000000    0.00000000    0.00000000
     atom   15 type  1   force =    -0.00004204   -0.00000586    0.00001121
     atom   16 type  1   force =    -0.00004805   -0.00001398   -0.00000440
     atom   17 type  1   force =    -0.00004708   -0.00000480   -0.00002069
     atom   18 type  1   force =    -0.00004441   -0.00001511   -0.00003184
     atom   19 type  1   force =     0.00000000    0.00000000    0.00000000
     atom   20 type  1   force =     0.00000000    0.00000000    0.00000000
     atom   21 type  1   force =    -0.00004362    0.00000064    0.00001181
     atom   22 type  1   force =    -0.00004731   -0.00002037   -0.00000271
     atom   23 type  1   force =    -0.00004266   -0.00000081   -0.00002257
     atom   24 type  1   force =    -0.00004967   -0.00001785   -0.00002835
     atom   25 type  1   force =     0.00000000    0.00000000   -0.00000000
     atom   26 type  1   force =     0.00000000    0.00000000    0.00000000
     atom   27 type  1   force =    -0.00005472   -0.00001842    0.00001380
     atom   28 type  1   force =    -0.00005552   -0.00000828    0.00000309
     atom   29 type  1   force =     0.00007511    0.00002165    0.00000422
     atom   30 type  1   force =     0.00007683    0.00002101    0.00000256
     atom   31 type  1   force =     0.00000000    0.00000000   -0.00000000
     atom   32 type  1   force =     0.00000000   -0.00000000   -0.00000000
     atom   33 type  1   force =    -0.00005843    0.00000261    0.00002069
     atom   34 type  1   force =    -0.00005268   -0.00002924   -0.00000172
     atom   35 type  1   force =     0.00007069    0.00003184    0.00000147
     atom   36 type  1   force =     0.00008086    0.00000506    0.00000449
     atom   37 type  1   force =    -0.00000000    0.00000000    0.00000000
     atom   38 type  1   force =    -0.00000000   -0.00000000    0.00000000
     atom   39 type  1   force =     0.00005786    0.00001505    0.00001591
     atom   40 type  1   force =     0.00006494    0.00001652    0.00000771
     atom   41 type  1   force =    -0.00003638   -0.00000646    0.00000263
     atom   42 type  1   force =    -0.00004365   -0.00001174   -0.00000650
     atom   43 type  1   force =    -0.00000000    0.00000000    0.00000000
     atom   44 type  1   force =    -0.00000000   -0.00000000    0.00000000
     atom   45 type  1   force =     0.00005958    0.00002447    0.00001563
     atom   46 type  1   force =     0.00006396    0.00000566    0.00000926
     atom   47 type  1   force =    -0.00003623   -0.00000609    0.00000340
     atom   48 type  1   force =    -0.00004366   -0.00001404   -0.00000217
     atom   49 type  3   force =     0.00001126    0.00000333    0.00000829
     atom   50 type  3   force =    -0.00000460   -0.00000112   -0.00000503
     atom   51 type  3   force =    -0.00000533    0.00000063   -0.00001386
     atom   52 type  3   force =    -0.00000435   -0.00000556   -0.00001390
     atom   53 type  3   force =    -0.00000360   -0.00000435   -0.00001172
     atom   54 type  3   force =    -0.00000695    0.00000147   -0.00001246
     atom   55 type  3   force =    -0.00000423   -0.00000381   -0.00000006
     atom   56 type  2   force =     0.00001727    0.00000607    0.00000427
     atom   57 type  2   force =    -0.00000741   -0.00000254    0.00002297
     atom   58 type  4   force =     0.00000016    0.00000125    0.00000269
     atom   59 type  4   force =     0.00000090   -0.00000135    0.00000273
     atom   60 type  4   force =     0.00000062   -0.00000141   -0.00000164
     atom   61 type  4   force =    -0.00000012    0.00000165   -0.00000150
     atom   62 type  4   force =    -0.00000031    0.00000210   -0.00000099
     atom   63 type  4   force =     0.00000115   -0.00000171   -0.00000083

     DFT-D3 dispersion contribution to forces:
     atom    1 type  1   force =    -0.00077449   -0.00017026    0.00282040
     atom    2 type  1   force =    -0.00075727   -0.00021221    0.00281833
     atom    3 type  1   force =    -0.00118937   -0.00029530   -0.00269088
     atom    4 type  1   force =    -0.00126020   -0.00032238   -0.00263157
     atom    5 type  1   force =     0.00085533    0.00031000   -0.00155651
     atom    6 type  1   force =     0.00013432    0.00013408   -0.00171666
     atom    7 type  1   force =    -0.00076968   -0.00019436    0.00283462
     atom    8 type  1   force =    -0.00077820   -0.00018981    0.00277834
     atom    9 type  1   force =    -0.00124904   -0.00028042   -0.00265894
     atom   10 type  1   force =    -0.00122422   -0.00033624   -0.00267792
     atom   11 type  1   force =     0.00072253    0.00101743   -0.00063632
     atom   12 type  1   force =     0.00100334   -0.00037626   -0.00066377
     atom   13 type  1   force =     0.00060152    0.00013198    0.00294341
     atom   14 type  1   force =     0.00059650    0.00018550    0.00293108
     atom   15 type  1   force =    -0.00029171   -0.00011968   -0.00085432
     atom   16 type  1   force =     0.00027252   -0.00022105   -0.00021439
     atom   17 type  1   force =    -0.00016401   -0.00001514   -0.00261031
     atom   18 type  1   force =    -0.00007207   -0.00003181   -0.00245472
     atom   19 type  1   force =     0.00061939    0.00011515    0.00294521
     atom   20 type  1   force =     0.00058704    0.00017041    0.00293409
     atom   21 type  1   force =     0.00013529    0.00028946   -0.00022900
     atom   22 type  1   force =    -0.00029058   -0.00007462   -0.00083063
     atom   23 type  1   force =    -0.00004503    0.00001486   -0.00251948
     atom   24 type  1   force =    -0.00019363   -0.00008242   -0.00255113
     atom   25 type  1   force =     0.00059100    0.00011834    0.00277895
     atom   26 type  1   force =     0.00053351    0.00015066    0.00277357
     atom   27 type  1   force =     0.00075660    0.00018364    0.00187951
     atom   28 type  1   force =     0.00073522    0.00018568    0.00185907
     atom   29 type  1   force =     0.00077458    0.00017894   -0.00194721
     atom   30 type  1   force =     0.00047875    0.00023287   -0.00157176
     atom   31 type  1   force =     0.00054732    0.00011048    0.00277991
     atom   32 type  1   force =     0.00057512    0.00017470    0.00276777
     atom   33 type  1   force =     0.00072150    0.00019126    0.00186767
     atom   34 type  1   force =     0.00076205    0.00021871    0.00187429
     atom   35 type  1   force =     0.00074618    0.00021985   -0.00192576
     atom   36 type  1   force =     0.00057058    0.00001305   -0.00160756
     atom   37 type  1   force =     0.00033644    0.00008900    0.00260002
     atom   38 type  1   force =     0.00035592    0.00007221    0.00261605
     atom   39 type  1   force =    -0.00111849   -0.00028481    0.00161379
     atom   40 type  1   force =    -0.00100249   -0.00025996    0.00140575
     atom   41 type  1   force =    -0.00038627   -0.00017595   -0.00439013
     atom   42 type  1   force =     0.00027350   -0.00002508   -0.00353391
     atom   43 type  1   force =     0.00036271    0.00007306    0.00260686
     atom   44 type  1   force =     0.00033290    0.00009002    0.00260002
     atom   45 type  1   force =    -0.00103215   -0.00018453    0.00170605
     atom   46 type  1   force =    -0.00100047   -0.00031333    0.00170961
     atom   47 type  1   force =     0.00001860    0.00048866   -0.00379619
     atom   48 type  1   force =     0.00023108   -0.00056557   -0.00381259
     atom   49 type  3   force =     0.00007746    0.00002557   -0.00001682
     atom   50 type  3   force =    -0.00004462   -0.00001252   -0.00017249
     atom   51 type  3   force =    -0.00004122    0.00017080   -0.00019997
     atom   52 type  3   force =     0.00007095   -0.00015513   -0.00020168
     atom   53 type  3   force =    -0.00010433    0.00025473   -0.00066086
     atom   54 type  3   force =     0.00005814   -0.00025041   -0.00066493
     atom   55 type  3   force =    -0.00021345   -0.00005534   -0.00115230
     atom   56 type  2   force =    -0.00022568   -0.00007459   -0.00015495
     atom   57 type  2   force =    -0.00044785   -0.00012431   -0.00118554
     atom   58 type  4   force =    -0.00029214   -0.00014458   -0.00140519
     atom   59 type  4   force =    -0.00031353   -0.00003429   -0.00142425
     atom   60 type  4   force =     0.00000528   -0.00003307   -0.00001282
     atom   61 type  4   force =    -0.00001774    0.00002924   -0.00001104
     atom   62 type  4   force =    -0.00007880   -0.00002292   -0.00053835
     atom   63 type  4   force =    -0.00006445   -0.00000200   -0.00056152

     Total force =     0.002941     Total SCF correction =     0.000314

     DFT-D3 dispersion Force =     0.017857
     SCF correction compared to forces is large: reduce conv_thr to get better values


     Computing stress (Cartesian axis) and pressure


     negative rho (up, down):  4.035E-03 0.000E+00
