--------------------------------------------------------------------------
By default, for Open MPI 4.0 and later, infiniband ports on a device
are not used by default.  The intent is to use UCX for these devices.
You can override this policy by setting the btl_openib_allow_ib MCA parameter
to true.

  Local host:              psid09
  Local adapter:           mlx4_0
  Local port:              1

--------------------------------------------------------------------------
--------------------------------------------------------------------------
WARNING: There was an error initializing an OpenFabrics device.

  Local host:   psid09
  Local device: mlx4_0
--------------------------------------------------------------------------

     Program PWSCF v.7.3.1 starts on 14Apr2025 at  3:45:27 

     This program is part of the open-source Quantum ESPRESSO suite
     for quantum simulation of materials; please cite
         "P. Giannozzi et al., J. Phys.:Condens. Matter 21 395502 (2009);
         "P. Giannozzi et al., J. Phys.:Condens. Matter 29 465901 (2017);
         "P. Giannozzi et al., J. Chem. Phys. 152 154105 (2020);
          URL http://www.quantum-espresso.org", 
     in publications or presentations arising from this work. More details at
     http://www.quantum-espresso.org/quote

     Parallel version (MPI), running on    33 processors

     MPI processes distributed on     1 nodes
     13496 MiB available memory on the printing compute node when the environment starts

     Waiting for input...
     Reading input from standard input
Warning: card &CELL ignored
Warning: card   CELL_DOFREE = 'ALL' ignored
Warning: card / ignored

     Current dimensions of program PWSCF are:
     Max number of different atomic species (ntypx) = 10
     Max number of k-points (npk) =  40000
     Max angular momentum in pseudopotentials (lmaxx) =  4
     file C.pbe-n-kjpaw_psl.1.0.0.UPF: wavefunction(s)  2S 2P renormalized

     R & G space division:  proc/nbgrp/npool/nimage =      33
     Subspace diagonalization in iterative solution of the eigenvalue problem:
     one sub-group per band group will be used
     custom distributed-memory algorithm (size of sub-group:  5*  5 procs)


     Parallelization info
     --------------------
     sticks:   dense  smooth     PW     G-vecs:    dense   smooth      PW
     Min         270     154     42                40385    17444    2529
     Max         271     155     43                40396    17453    2536
     Sum        8941    5109   1411              1332973   575857   83601

     Using Slab Decomposition



     bravais-lattice index     =            0
     lattice parameter (alat)  =      20.9009  a.u.
     unit-cell volume          =   16846.7507 (a.u.)^3
     number of atoms/cell      =           65
     number of atomic types    =            4
     number of electrons       =      1002.00
     number of Kohn-Sham states=          601
     kinetic-energy cutoff     =      40.0000  Ry
     charge density cutoff     =     280.0000  Ry
     scf convergence threshold =      1.0E-06
     mixing beta               =       0.4000
     number of iterations used =            8  plain     mixing
     energy convergence thresh.=      5.0E-05
     force convergence thresh. =      1.0E-03
     Exchange-correlation= PBE
                           (   1   4   3   4   0   0   0)
     nstep                     =          300


     celldm(1)=  20.900943  celldm(2)=   0.000000  celldm(3)=   0.000000
     celldm(4)=   0.000000  celldm(5)=   0.000000  celldm(6)=   0.000000

     crystal axes: (cart. coord. in units of alat)
               a(1) = (   1.000000   0.000000   0.000000 )  
               a(2) = (  -0.223489   0.918700   0.000000 )  
               a(3) = (  -4.200249  -1.021781   2.008375 )  

     reciprocal axes: (cart. coord. in units 2 pi/alat)
               b(1) = (  1.000000  0.243267  2.215131 )  
               b(2) = ( -0.000000  1.088495  0.553783 )  
               b(3) = (  0.000000 -0.000000  0.497915 )  


     PseudoPot. # 1 for Zn read from file:
     /home/ys/qepseudo/SSSP_1.3.0_PBE_efficiency/Zn_pbe_v1.uspp.F.UPF
     MD5 check sum: df62231357ef9e81f77b2b3087fa5675
     Pseudo is Ultrasoft, Zval = 20.0
     Generated by new atomic code, or converted to UPF format
     Using radial grid of  943 points,  6 beta functions with: 
                l(1) =   0
                l(2) =   0
                l(3) =   1
                l(4) =   1
                l(5) =   2
                l(6) =   2
     Q(r) pseudized with  8 coefficients,  rinner =    1.100   1.100   1.100
                                                       1.100   1.100

     PseudoPot. # 2 for N  read from file:
     /home/ys/qepseudo/SSSP_1.3.0_PBE_efficiency/N.pbe-n-radius_5.UPF
     MD5 check sum: 16739722b17309cd8fe442a2ace49922
     Pseudo is Ultrasoft + core correction, Zval =  5.0
     Generated using "atomic" code by A. Dal Corso  v.5.1
     Using radial grid of 1085 points,  4 beta functions with: 
                l(1) =   0
                l(2) =   0
                l(3) =   1
                l(4) =   1
     Q(r) pseudized with 0 coefficients 


     PseudoPot. # 3 for C  read from file:
     /home/ys/qepseudo/SSSP_1.3.0_PBE_efficiency/C.pbe-n-kjpaw_psl.1.0.0.UPF
     MD5 check sum: 5d2aebdfa2cae82b50a7e79e9516da0f
     Pseudo is Projector augmented-wave + core cor, Zval =  4.0
     Generated using "atomic" code by A. Dal Corso  v.5.1
     Shape of augmentation charge: PSQ
     Using radial grid of 1073 points,  4 beta functions with: 
                l(1) =   0
                l(2) =   0
                l(3) =   1
                l(4) =   1
     Q(r) pseudized with 0 coefficients 


     PseudoPot. # 4 for H  read from file:
     /home/ys/qepseudo/SSSP_1.3.0_PBE_efficiency/H.pbe-rrkjus_psl.1.0.0.UPF
     MD5 check sum: f52b6d4d1c606e5624b1dc7b2218f220
     Pseudo is Ultrasoft, Zval =  1.0
     Generated using "atomic" code by A. Dal Corso  v.5.1
     Using radial grid of  929 points,  2 beta functions with: 
                l(1) =   0
                l(2) =   0
     Q(r) pseudized with 0 coefficients 


     atomic species   valence    mass     pseudopotential
     Zn               20.00    65.38000     Zn( 1.00)
     N                 5.00    14.00674     N ( 1.00)
     C                 4.00    12.01070     C ( 1.00)
     H                 1.00     1.00794     H ( 1.00)

     No symmetry found


                                    s                        frac. trans.

      isym =  1     identity                                     

 cryst.   s( 1) = (     1          0          0      )
                  (     0          1          0      )
                  (     0          0          1      )

 cart.    s( 1) = (  1.0000000  0.0000000  0.0000000 )
                  (  0.0000000  1.0000000  0.0000000 )
                  (  0.0000000  0.0000000  1.0000000 )


   Cartesian axes

     site n.     atom                  positions (alat units)
         1        Zn     tau(   1) = (  -0.0970639   0.0980210   0.1082940  )
         2        Zn     tau(   2) = (  -0.2088085   0.5573710   0.1082940  )
         3        Zn     tau(   3) = (  -0.4436296   0.0133021   0.3267644  )
         4        Zn     tau(   4) = (  -0.5553466   0.4727589   0.3266326  )
         5        Zn     tau(   5) = (  -0.8015675  -0.0738560   0.5204735  )
         6        Zn     tau(   6) = (  -0.9136705   0.3857182   0.5203452  )
         7        Zn     tau(   7) = (  -0.1529361   0.3276960   0.1082940  )
         8        Zn     tau(   8) = (  -0.2646808   0.7870460   0.1082940  )
         9        Zn     tau(   9) = (  -0.4994158   0.2431043   0.3267310  )
        10        Zn     tau(  10) = (  -0.6113085   0.7023487   0.3266788  )
        11        Zn     tau(  11) = (  -0.8577155   0.1559534   0.5203020  )
        12        Zn     tau(  12) = (  -0.9693047   0.6153537   0.5205194  )
        13        Zn     tau(  13) = (   0.4029362   0.0980210   0.1082940  )
        14        Zn     tau(  14) = (   0.2911915   0.5573710   0.1082940  )
        15        Zn     tau(  15) = (   0.0565086   0.0133360   0.3241562  )
        16        Zn     tau(  16) = (  -0.0552146   0.4727957   0.3239770  )
        17        Zn     tau(  17) = (  -0.2990019  -0.0732614   0.5203282  )
        18        Zn     tau(  18) = (  -0.4111263   0.3864037   0.5201985  )
        19        Zn     tau(  19) = (   0.3470638   0.3276960   0.1082940  )
        20        Zn     tau(  20) = (   0.2353192   0.7870460   0.1082940  )
        21        Zn     tau(  21) = (   0.0007168   0.2430908   0.3241551  )
        22        Zn     tau(  22) = (  -0.1111493   0.7024087   0.3239982  )
        23        Zn     tau(  23) = (  -0.3551819   0.1565713   0.5201829  )
        24        Zn     tau(  24) = (  -0.4667146   0.6159736   0.5203598  )
        25        Zn     tau(  25) = (   0.1529361   0.0372043   0.0773528  )
        26        Zn     tau(  26) = (   0.0411915   0.4965543   0.0773528  )
        27        Zn     tau(  27) = (  -0.2122732  -0.0516715   0.2654630  )
        28        Zn     tau(  28) = (  -0.3239465   0.4077318   0.2654478  )
        29        Zn     tau(  29) = (  -0.5765287  -0.1406552   0.4574179  )
        30        Zn     tau(  30) = (  -0.6884677   0.3189336   0.4575418  )
        31        Zn     tau(  31) = (   0.0970639   0.2668793   0.0773528  )
        32        Zn     tau(  32) = (  -0.0146808   0.7262293   0.0773528  )
        33        Zn     tau(  33) = (  -0.2680871   0.1780502   0.2653609  )
        34        Zn     tau(  34) = (  -0.3798692   0.6373411   0.2655337  )
        35        Zn     tau(  35) = (  -0.6325059   0.0891251   0.4575687  )
        36        Zn     tau(  36) = (  -0.7442124   0.5485014   0.4573723  )
        37        Zn     tau(  37) = (   0.6529362   0.0372043   0.0773528  )
        38        Zn     tau(  38) = (   0.5411915   0.4965543   0.0773528  )
        39        Zn     tau(  39) = (   0.2881095  -0.0515887   0.2651273  )
        40        Zn     tau(  40) = (   0.1764595   0.4078348   0.2650500  )
        41        Zn     tau(  41) = (  -0.0738569  -0.1399537   0.4576836  )
        42        Zn     tau(  42) = (  -0.1858471   0.3195453   0.4578116  )
        43        Zn     tau(  43) = (   0.5970639   0.2668793   0.0773528  )
        44        Zn     tau(  44) = (   0.4853193   0.7262293   0.0773528  )
        45        Zn     tau(  45) = (   0.2323041   0.1780975   0.2650220  )
        46        Zn     tau(  46) = (   0.1205228   0.6374688   0.2651506  )
        47        Zn     tau(  47) = (  -0.1298290   0.0898017   0.4578049  )
        48        Zn     tau(  48) = (  -0.2415973   0.5491238   0.4576724  )
        49        C      tau(  49) = (  -0.7845242  -0.1191951   0.9605140  )
        50        C      tau(  50) = (  -0.9653742   0.1655380   0.8811058  )
        51        C      tau(  51) = (  -0.7256308   0.0944849   0.9031981  )
        52        C      tau(  52) = (  -0.8737728   0.2509067   0.8589976  )
        53        C      tau(  53) = (  -0.8163355   0.0085990   0.9253936  )
        54        C      tau(  54) = (  -0.7527775   0.2129262   0.8706906  )
        55        C      tau(  55) = (  -0.9363765   0.0471536   0.9135023  )
        56        N      tau(  56) = (  -0.9013035   0.3682459   0.8269475  )
        57        H      tau(  57) = (  -0.7315070  -0.1218802   1.0447305  )
        58        H      tau(  58) = (  -1.0600171   0.1925834   0.8727505  )
        59        H      tau(  59) = (  -0.6308040   0.0679584   0.9115918  )
        60        H      tau(  60) = (  -0.8659231  -0.1742895   0.9745179  )
        61        H      tau(  61) = (  -0.8355275   0.4293024   0.8111146  )
        62        H      tau(  62) = (  -0.9878412   0.3956436   0.8184535  )
        63        H      tau(  63) = (  -0.6797754   0.2774197   0.8541373  )
        64        H      tau(  64) = (  -1.0097657  -0.0168918   0.9300874  )
        65        H      tau(  65) = (  -0.7297031  -0.1637961   0.8903963  )

     --------------------------------------------
     DFT-D3 Dispersion Correction (3-body terms):
     --------------------------------------------
       Reference C6 values for interpolation: 

         atom   Coordination number   C6
         H          0.912             6.05
         H          0.000            15.18
         C          0.000            98.23
         C          0.987            86.49
         C          1.998            58.72
         C          2.999            51.56
         C          3.984            36.41
         N          0.000            50.54
         N          0.994            44.25
         N          2.014            39.35
         N          2.990            31.16
         Zn         0.000           681.04
         Zn         1.942           306.91

       Values used:

         atom   Coordination number  R0_AB[au]  C6      C8
         Zn         5.577            3.053    306.91  23930.67
         Zn         5.581            3.053    306.91  23930.67
         Zn         7.262            3.053    306.91  23930.67
         Zn         7.270            3.053    306.91  23930.67
         Zn         5.106            3.053    306.91  23930.67
         Zn         5.121            3.053    306.91  23930.67
         Zn         5.580            3.053    306.91  23930.67
         Zn         5.578            3.053    306.91  23930.67
         Zn         7.265            3.053    306.91  23930.67
         Zn         7.268            3.053    306.91  23930.67
         Zn         5.117            3.053    306.91  23930.67
         Zn         5.103            3.053    306.91  23930.67
         Zn         5.546            3.053    306.91  23930.67
         Zn         5.549            3.053    306.91  23930.67
         Zn         7.336            3.053    306.91  23930.67
         Zn         7.339            3.053    306.91  23930.67
         Zn         5.108            3.053    306.91  23930.67
         Zn         5.115            3.053    306.91  23930.67
         Zn         5.549            3.053    306.91  23930.67
         Zn         5.547            3.053    306.91  23930.67
         Zn         7.337            3.053    306.91  23930.67
         Zn         7.340            3.053    306.91  23930.67
         Zn         5.111            3.053    306.91  23930.67
         Zn         5.110            3.053    306.91  23930.67
         Zn         5.382            3.053    306.91  23930.67
         Zn         5.384            3.053    306.91  23930.67
         Zn         8.154            3.053    306.91  23930.67
         Zn         8.160            3.053    306.91  23930.67
         Zn         6.503            3.053    306.91  23930.67
         Zn         6.494            3.053    306.91  23930.67
         Zn         5.382            3.053    306.91  23930.67
         Zn         5.383            3.053    306.91  23930.67
         Zn         8.153            3.053    306.91  23930.67
         Zn         8.159            3.053    306.91  23930.67
         Zn         6.493            3.053    306.91  23930.67
         Zn         6.503            3.053    306.91  23930.67
         Zn         5.342            3.053    306.91  23930.67
         Zn         5.343            3.053    306.91  23930.67
         Zn         8.196            3.053    306.91  23930.67
         Zn         8.199            3.053    306.91  23930.67
         Zn         6.508            3.053    306.91  23930.67
         Zn         6.500            3.053    306.91  23930.67
         Zn         5.343            3.053    306.91  23930.67
         Zn         5.342            3.053    306.91  23930.67
         Zn         8.194            3.053    306.91  23930.67
         Zn         8.201            3.053    306.91  23930.67
         Zn         6.500            3.053    306.91  23930.67
         Zn         6.509            3.053    306.91  23930.67
         C          4.039            2.750     36.59   1058.22
         C          3.166            2.750     50.39   1457.43
         C          3.168            2.750     50.38   1457.04
         C          3.144            2.750     50.58   1462.96
         C          3.130            2.750     50.68   1465.89
         C          3.168            2.750     50.38   1457.16
         C          3.165            2.750     50.40   1457.72
         N          3.090            2.478     31.24    689.18
         H          0.997            2.062      6.18     74.75
         H          1.003            2.062      6.18     74.68
         H          1.004            2.062      6.18     74.68
         H          0.998            2.062      6.18     74.74
         H          1.007            2.062      6.17     74.64
         H          1.007            2.062      6.18     74.65
         H          1.003            2.062      6.18     74.68
         H          1.003            2.062      6.18     74.68
         H          0.998            2.062      6.18     74.74

         Molecular C6 ( Ry / a.u.^6 ) =    839461.73


   Crystallographic axes

     site n.     atom                  positions (cryst. coord.)
         1        Zn     tau(   1) = (  0.1666667  0.1666667  0.0539212  )
         2        Zn     tau(   2) = (  0.1666668  0.6666667  0.0539212  )
         3        Zn     tau(   3) = (  0.2834325  0.1954358  0.1627009  )
         4        Zn     tau(   4) = (  0.2831942  0.6954790  0.1626353  )
         5        Zn     tau(   5) = (  0.3333829  0.2078374  0.2591516  )
         6        Zn     tau(   6) = (  0.3327949  0.7080104  0.2590877  )
         7        Zn     tau(   7) = (  0.1666668  0.4166667  0.0539212  )
         8        Zn     tau(   8) = (  0.1666667  0.9166667  0.0539212  )
         9        Zn     tau(   9) = (  0.2834754  0.4455557  0.1626843  )
        10        Zn     tau(  10) = (  0.2831861  0.9454119  0.1626583  )
        11        Zn     tau(  11) = (  0.3327602  0.4578888  0.2590662  )
        12        Zn     tau(  12) = (  0.3334092  0.9580638  0.2591744  )
        13        Zn     tau(  13) = (  0.6666668  0.1666667  0.0539212  )
        14        Zn     tau(  14) = (  0.6666667  0.6666667  0.0539212  )
        15        Zn     tau(  15) = (  0.7778014  0.1940282  0.1614022  )
        16        Zn     tau(  16) = (  0.7774525  0.6940484  0.1613130  )
        17        Zn     tau(  17) = (  0.8357713  0.2084042  0.2590792  )
        18        Zn     tau(  18) = (  0.8351810  0.7086753  0.2590146  )
        19        Zn     tau(  19) = (  0.6666668  0.4166667  0.0539212  )
        20        Zn     tau(  20) = (  0.6666668  0.9166667  0.0539212  )
        21        Zn     tau(  21) = (  0.7778988  0.4441146  0.1614017  )
        22        Zn     tau(  22) = (  0.7774220  0.9439927  0.1613236  )
        23        Zn     tau(  23) = (  0.8351802  0.4584954  0.2590069  )
        24        Zn     tau(  24) = (  0.8357966  0.9586503  0.2590949  )
        25        Zn     tau(  25) = (  0.3333333  0.0833333  0.0385151  )
        26        Zn     tau(  26) = (  0.3333333  0.5833333  0.0385151  )
        27        Zn     tau(  27) = (  0.3631923  0.0907647  0.1321780  )
        28        Zn     tau(  28) = (  0.3632429  0.5908143  0.1321704  )
        29        Zn     tau(  29) = (  0.4024953  0.1002077  0.2277552  )
        30        Zn     tau(  30) = (  0.4026334  0.6005363  0.2278169  )
        31        Zn     tau(  31) = (  0.3333333  0.3333333  0.0385151  )
        32        Zn     tau(  32) = (  0.3333333  0.8333333  0.0385151  )
        33        Zn     tau(  33) = (  0.3630358  0.3407590  0.1321272  )
        34        Zn     tau(  34) = (  0.3633667  0.8407904  0.1322132  )
        35        Zn     tau(  35) = (  0.4027500  0.3504058  0.2278303  )
        36        Zn     tau(  36) = (  0.4023595  0.8503257  0.2277325  )
        37        Zn     tau(  37) = (  0.8333333  0.0833333  0.0385151  )
        38        Zn     tau(  38) = (  0.8333333  0.5833333  0.0385151  )
        39        Zn     tau(  39) = (  0.8628514  0.0906689  0.1320109  )
        40        Zn     tau(  40) = (  0.8627927  0.5907061  0.1319724  )
        41        Zn     tau(  41) = (  0.9059264  0.1011185  0.2278875  )
        42        Zn     tau(  42) = (  0.9060006  0.6013515  0.2279513  )
        43        Zn     tau(  43) = (  0.8333333  0.3333333  0.0385151  )
        44        Zn     tau(  44) = (  0.8333333  0.8333333  0.0385151  )
        45        Zn     tau(  45) = (  0.8626880  0.3406228  0.1319584  )
        46        Zn     tau(  46) = (  0.8629413  0.8407172  0.1320225  )
        47        Zn     tau(  47) = (  0.9061147  0.3512731  0.2279479  )
        48        Zn     tau(  48) = (  0.9057908  0.8511694  0.2278820  )
        49        C      tau(  49) = (  1.3141443  0.4021729  0.4782543  )
        50        C      tau(  50) = (  1.0266608  0.6681284  0.4387158  )
        51        C      tau(  51) = (  1.2980567  0.6030219  0.4497159  )
        52        C      tau(  52) = (  1.0900570  0.7488086  0.4277078  )
        53        C      tau(  53) = (  1.2356248  0.5218271  0.4607674  )
        54        C      tau(  54) = (  1.2277144  0.7139425  0.4335299  )
        55        C      tau(  55) = (  1.0986220  0.5572083  0.4548465  )
        56        N      tau(  56) = (  1.0200758  0.8587830  0.4117496  )
        57        H      tau(  57) = (  1.5530590  0.4458878  0.5201870  )
        58        H      tau(  58) = (  0.9200892  0.6929403  0.4345556  )
        59        H      tau(  59) = (  1.4050236  0.5787962  0.4538952  )
        60        H      tau(  60) = (  1.2503633  0.3499581  0.4852271  )
        61        H      tau(  61) = (  1.0656329  0.9164746  0.4038661  )
        62        H      tau(  62) = (  0.9213877  0.8839014  0.4075203  )
        63        H      tau(  63) = (  1.2797380  0.7749764  0.4252878  )
        64        H      tau(  64) = (  1.0463909  0.4966798  0.4631045  )
        65        H      tau(  65) = (  1.2027956  0.3147950  0.4433417  )

     number of k points=     5  Marzari-Vanderbilt smearing, width (Ry)=  0.0200
                       cart. coord. in units 2pi/alat
        k(    1) = (   0.0000000   0.0000000   0.0000000), wk =   0.2222222
        k(    2) = (   0.0000000   0.3628315   0.1845943), wk =   0.4444444
        k(    3) = (   0.3333333   0.0810890   0.7383771), wk =   0.4444444
        k(    4) = (   0.3333333   0.4439205   0.9229714), wk =   0.4444444
        k(    5) = (   0.3333333  -0.2817426   0.5537829), wk =   0.4444444

                       cryst. coord.
        k(    1) = (   0.0000000   0.0000000   0.0000000), wk =   0.2222222
        k(    2) = (   0.0000000   0.3333333   0.0000000), wk =   0.4444444
        k(    3) = (   0.3333333   0.0000000   0.0000000), wk =   0.4444444
        k(    4) = (   0.3333333   0.3333333   0.0000000), wk =   0.4444444
        k(    5) = (   0.3333333  -0.3333333   0.0000000), wk =   0.4444444

     Dense  grid:  1332973 G-vectors     FFT dimensions: ( 120, 108, 540)

     Smooth grid:   575857 G-vectors     FFT dimensions: (  90,  80, 405)

     Dynamical RAM for                 wfc:      19.99 MB

     Dynamical RAM for     wfc (w. buffer):     119.95 MB

     Dynamical RAM for           str. fact:       2.47 MB

     Dynamical RAM for           local pot:       0.00 MB

     Dynamical RAM for          nlocal pot:      31.47 MB

     Dynamical RAM for                qrad:       5.37 MB

     Dynamical RAM for          rho,v,vnew:       6.89 MB

     Dynamical RAM for               rhoin:       2.30 MB

     Dynamical RAM for            rho*nmix:       9.86 MB

     Dynamical RAM for           G-vectors:       2.44 MB

     Dynamical RAM for          h,s,v(r/c):       2.64 MB

     Dynamical RAM for          <psi|beta>:       8.68 MB

     Dynamical RAM for                 psi:      39.98 MB

     Dynamical RAM for                hpsi:      39.98 MB

     Dynamical RAM for                spsi:      39.98 MB

     Dynamical RAM for      wfcinit/wfcrot:      54.37 MB

     Dynamical RAM for           addusdens:     144.24 MB

     Dynamical RAM for          addusforce:     202.67 MB

     Dynamical RAM for         addusstress:     123.90 MB

     Estimated static dynamical RAM per process >     182.38 MB

     Estimated max dynamical RAM per process >     394.91 MB

     Estimated total dynamical RAM >      12.73 GB

     Initial potential from superposition of free atoms

     starting charge    1001.9928, renormalised to    1002.0000

     negative rho (up, down):  2.625E-03 0.000E+00
     Starting wfcs are  665 randomized atomic wfcs
[psid09:98247] 32 more processes have sent help message help-mpi-btl-openib.txt / ib port not selected
[psid09:98247] Set MCA parameter "orte_base_help_aggregate" to 0 to see all help / error messages
[psid09:98247] 32 more processes have sent help message help-mpi-btl-openib.txt / error in device init
     Checking if some PAW data can be deallocated... 
       PAW data deallocated on   29 nodes for type:  3

     total cpu time spent up to now is       83.2 secs

     Self-consistent Calculation

     iteration #  1     ecut=    40.00 Ry     beta= 0.40
     Davidson diagonalization with overlap

---- Real-time Memory Report at c_bands before calling an iterative solver
           264 MiB given to the printing process from OS
             0 MiB allocation reported by mallinfo(arena+hblkhd)
          6776 MiB available memory on the node where the printing process lives
------------------
     ethr =  1.00E-02,  avg # of iterations =  7.8

     negative rho (up, down):  3.104E-03 0.000E+00

     total cpu time spent up to now is      393.1 secs

     total energy              =  -22309.34730565 Ry
     estimated scf accuracy    <      11.02930621 Ry

     iteration #  2     ecut=    40.00 Ry     beta= 0.40
     Davidson diagonalization with overlap

---- Real-time Memory Report at c_bands before calling an iterative solver
           366 MiB given to the printing process from OS
             0 MiB allocation reported by mallinfo(arena+hblkhd)
          5440 MiB available memory on the node where the printing process lives
------------------
     ethr =  1.10E-03,  avg # of iterations = 10.0

     negative rho (up, down):  4.231E-03 0.000E+00

     total cpu time spent up to now is      713.0 secs

     total energy              =  -22295.07853371 Ry
     estimated scf accuracy    <     267.03893024 Ry

     iteration #  3     ecut=    40.00 Ry     beta= 0.40
     Davidson diagonalization with overlap

---- Real-time Memory Report at c_bands before calling an iterative solver
           383 MiB given to the printing process from OS
             0 MiB allocation reported by mallinfo(arena+hblkhd)
          5419 MiB available memory on the node where the printing process lives
------------------
     ethr =  1.10E-03,  avg # of iterations =  7.0

     negative rho (up, down):  4.292E-03 0.000E+00

     total cpu time spent up to now is     1090.2 secs

     total energy              =  -22313.40451088 Ry
     estimated scf accuracy    <      12.73014792 Ry

     iteration #  4     ecut=    40.00 Ry     beta= 0.40
     Davidson diagonalization with overlap

---- Real-time Memory Report at c_bands before calling an iterative solver
           384 MiB given to the printing process from OS
             0 MiB allocation reported by mallinfo(arena+hblkhd)
          5395 MiB available memory on the node where the printing process lives
------------------
     ethr =  1.10E-03,  avg # of iterations =  3.0

     negative rho (up, down):  4.172E-03 0.000E+00

     total cpu time spent up to now is     1360.8 secs

     total energy              =  -22314.27682987 Ry
     estimated scf accuracy    <       3.15153335 Ry

     iteration #  5     ecut=    40.00 Ry     beta= 0.40
     Davidson diagonalization with overlap

---- Real-time Memory Report at c_bands before calling an iterative solver
           385 MiB given to the printing process from OS
             0 MiB allocation reported by mallinfo(arena+hblkhd)
          5370 MiB available memory on the node where the printing process lives
------------------
     ethr =  3.15E-04,  avg # of iterations =  2.0

     negative rho (up, down):  4.121E-03 0.000E+00

     total cpu time spent up to now is     1615.0 secs

     total energy              =  -22314.46830242 Ry
     estimated scf accuracy    <       0.39942055 Ry

     iteration #  6     ecut=    40.00 Ry     beta= 0.40
     Davidson diagonalization with overlap

---- Real-time Memory Report at c_bands before calling an iterative solver
           386 MiB given to the printing process from OS
             0 MiB allocation reported by mallinfo(arena+hblkhd)
          5348 MiB available memory on the node where the printing process lives
------------------
     ethr =  3.99E-05,  avg # of iterations = 15.6

     negative rho (up, down):  4.161E-03 0.000E+00

     total cpu time spent up to now is     1910.2 secs

     total energy              =  -22314.46015760 Ry
     estimated scf accuracy    <       0.21981022 Ry

     iteration #  7     ecut=    40.00 Ry     beta= 0.40
     Davidson diagonalization with overlap

---- Real-time Memory Report at c_bands before calling an iterative solver
           386 MiB given to the printing process from OS
             0 MiB allocation reported by mallinfo(arena+hblkhd)
          5324 MiB available memory on the node where the printing process lives
------------------
     ethr =  2.19E-05,  avg # of iterations =  6.2

     negative rho (up, down):  4.222E-03 0.000E+00

     total cpu time spent up to now is     2177.8 secs

     total energy              =  -22314.45305795 Ry
     estimated scf accuracy    <       0.18881374 Ry

     iteration #  8     ecut=    40.00 Ry     beta= 0.40
     Davidson diagonalization with overlap

---- Real-time Memory Report at c_bands before calling an iterative solver
           387 MiB given to the printing process from OS
             0 MiB allocation reported by mallinfo(arena+hblkhd)
          5299 MiB available memory on the node where the printing process lives
------------------
     ethr =  1.88E-05,  avg # of iterations =  5.8

     negative rho (up, down):  4.282E-03 0.000E+00

     total cpu time spent up to now is     2436.1 secs

     total energy              =  -22314.45867072 Ry
     estimated scf accuracy    <       0.06287710 Ry

     iteration #  9     ecut=    40.00 Ry     beta= 0.40
     Davidson diagonalization with overlap

---- Real-time Memory Report at c_bands before calling an iterative solver
           388 MiB given to the printing process from OS
             0 MiB allocation reported by mallinfo(arena+hblkhd)
          5278 MiB available memory on the node where the printing process lives
------------------
     c_bands:  1 eigenvalues not converged
     ethr =  6.28E-06,  avg # of iterations = 16.2

     negative rho (up, down):  4.310E-03 0.000E+00

     total cpu time spent up to now is     2721.3 secs

     total energy              =  -22314.45589294 Ry
     estimated scf accuracy    <       0.04017667 Ry

     iteration # 10     ecut=    40.00 Ry     beta= 0.40
     Davidson diagonalization with overlap

---- Real-time Memory Report at c_bands before calling an iterative solver
           389 MiB given to the printing process from OS
             0 MiB allocation reported by mallinfo(arena+hblkhd)
          5253 MiB available memory on the node where the printing process lives
------------------
     c_bands:  1 eigenvalues not converged
     ethr =  4.01E-06,  avg # of iterations =  6.4

     negative rho (up, down):  4.337E-03 0.000E+00

     total cpu time spent up to now is     2975.5 secs

     total energy              =  -22314.45173605 Ry
     estimated scf accuracy    <       0.03234550 Ry

     iteration # 11     ecut=    40.00 Ry     beta= 0.40
     Davidson diagonalization with overlap

---- Real-time Memory Report at c_bands before calling an iterative solver
           389 MiB given to the printing process from OS
             0 MiB allocation reported by mallinfo(arena+hblkhd)
          5255 MiB available memory on the node where the printing process lives
------------------
     ethr =  3.23E-06,  avg # of iterations = 13.4

     negative rho (up, down):  4.453E-03 0.000E+00

     total cpu time spent up to now is     3249.4 secs

     total energy              =  -22314.43607737 Ry
     estimated scf accuracy    <       0.02362294 Ry

     iteration # 12     ecut=    40.00 Ry     beta= 0.40
     Davidson diagonalization with overlap

---- Real-time Memory Report at c_bands before calling an iterative solver
           389 MiB given to the printing process from OS
             0 MiB allocation reported by mallinfo(arena+hblkhd)
          5255 MiB available memory on the node where the printing process lives
------------------
     c_bands:  1 eigenvalues not converged
     ethr =  2.36E-06,  avg # of iterations = 18.6

     negative rho (up, down):  4.442E-03 0.000E+00

     total cpu time spent up to now is     3599.1 secs

     total energy              =  -22314.43980717 Ry
     estimated scf accuracy    <       0.00401095 Ry

     iteration # 13     ecut=    40.00 Ry     beta= 0.40
     Davidson diagonalization with overlap

---- Real-time Memory Report at c_bands before calling an iterative solver
           389 MiB given to the printing process from OS
             0 MiB allocation reported by mallinfo(arena+hblkhd)
          5254 MiB available memory on the node where the printing process lives
------------------
     ethr =  4.00E-07,  avg # of iterations =  2.0

     negative rho (up, down):  4.433E-03 0.000E+00

     total cpu time spent up to now is     3845.1 secs

     total energy              =  -22314.44014851 Ry
     estimated scf accuracy    <       0.00047258 Ry

     iteration # 14     ecut=    40.00 Ry     beta= 0.40
     Davidson diagonalization with overlap

---- Real-time Memory Report at c_bands before calling an iterative solver
           390 MiB given to the printing process from OS
             0 MiB allocation reported by mallinfo(arena+hblkhd)
          5256 MiB available memory on the node where the printing process lives
------------------
     c_bands:  1 eigenvalues not converged
     c_bands:  1 eigenvalues not converged
     ethr =  4.72E-08,  avg # of iterations = 11.8

     negative rho (up, down):  4.432E-03 0.000E+00

     total cpu time spent up to now is     4116.0 secs

     total energy              =  -22314.43994670 Ry
     estimated scf accuracy    <       0.00038772 Ry

     iteration # 15     ecut=    40.00 Ry     beta= 0.40
     Davidson diagonalization with overlap

---- Real-time Memory Report at c_bands before calling an iterative solver
           390 MiB given to the printing process from OS
             0 MiB allocation reported by mallinfo(arena+hblkhd)
          5254 MiB available memory on the node where the printing process lives
------------------
     c_bands:  2 eigenvalues not converged
     c_bands:  1 eigenvalues not converged
     ethr =  3.87E-08,  avg # of iterations = 13.8

     negative rho (up, down):  4.435E-03 0.000E+00

     total cpu time spent up to now is     4395.9 secs

     total energy              =  -22314.43973659 Ry
     estimated scf accuracy    <       0.00027764 Ry

     iteration # 16     ecut=    40.00 Ry     beta= 0.40
     Davidson diagonalization with overlap

---- Real-time Memory Report at c_bands before calling an iterative solver
           390 MiB given to the printing process from OS
             0 MiB allocation reported by mallinfo(arena+hblkhd)
          5255 MiB available memory on the node where the printing process lives
------------------
     c_bands:  1 eigenvalues not converged
     ethr =  2.77E-08,  avg # of iterations = 11.4

     negative rho (up, down):  4.427E-03 0.000E+00

     total cpu time spent up to now is     4674.3 secs

     total energy              =  -22314.43958439 Ry
     estimated scf accuracy    <       0.00224409 Ry

     iteration # 17     ecut=    40.00 Ry     beta= 0.40
     Davidson diagonalization with overlap

---- Real-time Memory Report at c_bands before calling an iterative solver
           390 MiB given to the printing process from OS
             0 MiB allocation reported by mallinfo(arena+hblkhd)
          5254 MiB available memory on the node where the printing process lives
------------------
     ethr =  2.77E-08,  avg # of iterations =  3.0

     negative rho (up, down):  4.424E-03 0.000E+00

     total cpu time spent up to now is     4926.3 secs

     total energy              =  -22314.43983326 Ry
     estimated scf accuracy    <       0.00001341 Ry

     iteration # 18     ecut=    40.00 Ry     beta= 0.40
     Davidson diagonalization with overlap

---- Real-time Memory Report at c_bands before calling an iterative solver
           390 MiB given to the printing process from OS
             0 MiB allocation reported by mallinfo(arena+hblkhd)
          5255 MiB available memory on the node where the printing process lives
------------------
     ethr =  1.34E-09,  avg # of iterations =  3.0

     negative rho (up, down):  4.421E-03 0.000E+00

     total cpu time spent up to now is     5186.0 secs

     total energy              =  -22314.43982610 Ry
     estimated scf accuracy    <       0.00005990 Ry

     iteration # 19     ecut=    40.00 Ry     beta= 0.40
     Davidson diagonalization with overlap

---- Real-time Memory Report at c_bands before calling an iterative solver
           390 MiB given to the printing process from OS
             0 MiB allocation reported by mallinfo(arena+hblkhd)
          5254 MiB available memory on the node where the printing process lives
------------------
     ethr =  1.34E-09,  avg # of iterations =  2.8

     negative rho (up, down):  4.420E-03 0.000E+00

     total cpu time spent up to now is     5444.5 secs

     total energy              =  -22314.43983744 Ry
     estimated scf accuracy    <       0.00001280 Ry

     iteration # 20     ecut=    40.00 Ry     beta= 0.40
     Davidson diagonalization with overlap

---- Real-time Memory Report at c_bands before calling an iterative solver
           390 MiB given to the printing process from OS
             0 MiB allocation reported by mallinfo(arena+hblkhd)
          5253 MiB available memory on the node where the printing process lives
------------------
     ethr =  1.28E-09,  avg # of iterations =  2.0

     negative rho (up, down):  4.420E-03 0.000E+00

     total cpu time spent up to now is     5696.8 secs

     total energy              =  -22314.43983586 Ry
     estimated scf accuracy    <       0.00002327 Ry

     iteration # 21     ecut=    40.00 Ry     beta= 0.40
     Davidson diagonalization with overlap

---- Real-time Memory Report at c_bands before calling an iterative solver
           390 MiB given to the printing process from OS
             0 MiB allocation reported by mallinfo(arena+hblkhd)
          5251 MiB available memory on the node where the printing process lives
------------------
     ethr =  1.28E-09,  avg # of iterations =  2.0

     negative rho (up, down):  4.420E-03 0.000E+00

     total cpu time spent up to now is     5958.2 secs

     total energy              =  -22314.43983695 Ry
     estimated scf accuracy    <       0.00000241 Ry

     iteration # 22     ecut=    40.00 Ry     beta= 0.40
     Davidson diagonalization with overlap

---- Real-time Memory Report at c_bands before calling an iterative solver
           390 MiB given to the printing process from OS
             0 MiB allocation reported by mallinfo(arena+hblkhd)
          5254 MiB available memory on the node where the printing process lives
------------------
     ethr =  2.41E-10,  avg # of iterations =  2.0

     negative rho (up, down):  4.419E-03 0.000E+00

     total cpu time spent up to now is     6220.9 secs

     End of self-consistent calculation

          k = 0.0000 0.0000 0.0000 ( 71933 PWs)   bands (ev):

  -125.2798-125.2777-125.2758-125.2748-125.2673-125.2663-125.2661-125.2649
  -125.2053-125.2041-125.2035-125.2027-125.1956-125.1947-125.1944-125.1933
  -125.1305-125.1284-125.1270-125.1267-125.1255-125.1248-125.1236-125.1234
  -125.0383-125.0357-125.0351-125.0349-125.0342-125.0336-125.0329-125.0315
  -124.9593-124.9571-124.9511-124.9501-124.9468-124.9459-124.9441-124.9432
  -124.8683-124.8624-124.8612-124.8611-124.8599-124.8587-124.8570-124.8499
   -79.4382 -79.4349 -79.4328 -79.4302 -79.4298 -79.4291 -79.4276 -79.4274
   -79.4264 -79.4256 -79.4251 -79.4244 -79.4220 -79.4209 -79.4207 -79.4195
   -79.4174 -79.4164 -79.4161 -79.4149 -79.4147 -79.4143 -79.4129 -79.4024
   -79.3652 -79.3616 -79.3602 -79.3597 -79.3587 -79.3558 -79.3552 -79.3539
   -79.3534 -79.3529 -79.3526 -79.3523 -79.3519 -79.3508 -79.3506 -79.3494
   -79.3455 -79.3446 -79.3443 -79.3435 -79.3432 -79.3431 -79.3403 -79.3310
   -79.2899 -79.2888 -79.2880 -79.2868 -79.2867 -79.2855 -79.2844 -79.2836
   -79.2832 -79.2825 -79.2784 -79.2768 -79.2764 -79.2756 -79.2751 -79.2749
   -79.2746 -79.2741 -79.2736 -79.2731 -79.2721 -79.2715 -79.2633 -79.2621
   -79.1998 -79.1972 -79.1972 -79.1966 -79.1964 -79.1962 -79.1954 -79.1949
   -79.1941 -79.1927 -79.1890 -79.1865 -79.1859 -79.1856 -79.1849 -79.1846
   -79.1843 -79.1842 -79.1839 -79.1838 -79.1834 -79.1821 -79.1718 -79.1716
   -79.1244 -79.1218 -79.1165 -79.1154 -79.1143 -79.1114 -79.1104 -79.1096
   -79.1086 -79.1076 -79.1073 -79.1060 -79.1042 -79.1020 -79.1016 -79.1005
   -79.0973 -79.0964 -79.0948 -79.0938 -79.0936 -79.0933 -79.0898 -79.0811
   -79.0392 -79.0334 -79.0321 -79.0311 -79.0298 -79.0296 -79.0281 -79.0210
   -79.0207 -79.0155 -79.0153 -79.0145 -79.0142 -79.0132 -79.0121 -79.0116
   -79.0103 -79.0037 -79.0013 -78.9994 -78.9991 -78.9974 -78.9869 -78.9839
   -17.3737 -15.1571 -12.9942 -12.6162 -10.9548  -9.4333  -8.7225  -8.3015
    -7.4360  -7.2923  -7.2291  -7.1690  -7.0285  -7.0281  -7.0053  -6.9513
    -6.9181  -6.8573  -6.8279  -6.8192  -6.8070  -6.8020  -6.7789  -6.7788
    -6.7759  -6.7448  -6.7440  -6.7095  -6.6968  -6.6519  -6.6512  -6.6468
    -6.6333  -6.6256  -6.6253  -6.6195  -6.6125  -6.6122  -6.6082  -6.5755
    -6.5751  -6.5706  -6.5705  -6.5656  -6.5647  -6.5494  -6.5492  -6.5357
    -6.5356  -6.5102  -6.5071  -6.5068  -6.4996  -6.4995  -6.4962  -6.4791
    -6.4788  -6.4513  -6.4472  -6.4462  -6.4460  -6.4410  -6.4166  -6.4164
    -6.4083  -6.4081  -6.3877  -6.3850  -6.3652  -6.3397  -6.3392  -6.3373
    -6.3338  -6.3086  -6.3083  -6.2987  -6.2952  -6.2884  -6.2793  -6.2746
    -6.2723  -6.2718  -6.2715  -6.2667  -6.2522  -6.2519  -6.2288  -6.2285
    -6.2249  -6.2235  -6.2234  -6.1995  -6.1814  -6.1812  -6.1786  -6.1786
    -6.1642  -6.1625  -6.1503  -6.1500  -6.1428  -6.1402  -6.1221  -6.1191
    -6.1176  -6.1176  -6.1173  -6.1021  -6.0982  -6.0978  -6.0952  -6.0950
    -6.0830  -6.0634  -6.0631  -6.0552  -6.0550  -6.0479  -6.0444  -6.0319
    -6.0312  -6.0222  -6.0184  -6.0183  -6.0176  -6.0069  -6.0066  -5.9916
    -5.9914  -5.9851  -5.9850  -5.9806  -5.9804  -5.9613  -5.9540  -5.9523
    -5.9520  -5.9428  -5.9427  -5.9287  -5.9209  -5.9208  -5.9196  -5.9195
    -5.9190  -5.9148  -5.9146  -5.8980  -5.8849  -5.8692  -5.8690  -5.8662
    -5.8660  -5.8569  -5.8568  -5.8486  -5.8482  -5.8394  -5.8260  -5.8258
    -5.8247  -5.8247  -5.8238  -5.8159  -5.8141  -5.8140  -5.7957  -5.7945
    -5.7894  -5.7894  -5.7860  -5.7811  -5.7809  -5.7773  -5.7765  -5.7629
    -5.7626  -5.7597  -5.7533  -5.7527  -5.7512  -5.7508  -5.7361  -5.7361
    -5.7270  -5.7236  -5.7231  -5.7228  -5.7176  -5.7157  -5.7010  -5.7008
    -5.6958  -5.6957  -5.6901  -5.6794  -5.6777  -5.6724  -5.6723  -5.6709
    -5.6696  -5.6688  -5.6595  -5.6582  -5.6541  -5.6518  -5.6516  -5.6492
    -5.6488  -5.6428  -5.6419  -5.6418  -5.6413  -5.6325  -5.6299  -5.6204
    -5.6201  -5.6182  -5.6176  -5.6139  -5.6137  -5.6011  -5.5992  -5.5916
    -5.5906  -5.5836  -5.5818  -5.5811  -5.5791  -5.5770  -5.5650  -5.5650
    -5.5384  -5.5377  -5.5371  -5.5353  -5.5252  -5.5236  -5.5233  -5.5113
    -5.5101  -5.4852  -5.4773  -5.4764  -5.4658  -5.4646  -5.4518  -5.4407
    -5.4392  -5.3968  -5.3845  -5.3769  -5.3595  -5.3536  -5.2996  -5.2993
    -5.2648  -5.2646  -5.1204  -4.7044  -4.6443  -4.4595  -4.3628  -4.3341
    -4.3303  -4.1023  -4.0704  -4.0700  -3.7197  -3.6891  -3.6076  -3.4527
    -2.8211  -2.7724  -2.4446  -2.3014  -2.2971  -2.2782  -2.1608  -2.1126
    -2.1108  -1.8449  -1.7497  -1.7458  -1.7055  -1.5603  -1.5579  -1.4841
    -1.4448  -1.0132  -0.7726  -0.7615  -0.5527  -0.4883  -0.3487  -0.2229
    -0.2164  -0.1672  -0.1649   0.2588   0.2630   0.4607   0.4716   0.5133
     0.5150   0.5645   0.8275   0.8648   0.8974   1.2352   1.5578   1.5655
     1.8640   1.8750   2.1796   2.2115   2.4143   2.4203   2.4297   2.4481
     2.5404   2.5459   2.9584   2.9632   3.0579   3.1150   3.1303   3.2041
     3.2170   3.4609   3.4890   3.7233   3.8091   3.8637   3.8678   4.2357
     4.2692   4.3488   4.5565   4.7666   4.7961   4.9359   5.0033   5.0694
     5.1842   5.3304   5.3324   5.4092   5.4464   5.5056   5.5081   5.5145
     5.5371   5.5751   5.6248   5.8011   5.8511   5.8522   5.8860   5.8891
     5.9607   6.0047   6.0541   6.0735   6.0990   6.1429   6.1590   6.1679
     6.2778   6.3066   6.3174   6.3535   6.4746   6.5451   6.5535   6.5814
     6.6031   6.6581   6.6953   6.7338   6.7982   6.8552   6.9031   6.9860
     7.0836   7.1267   7.1631   7.2244   7.2284   7.3032   7.3723   7.3932
     7.4322   7.5223   7.5433   7.5625   7.6144   7.6160   7.7697   7.7887
     7.8261   7.8633   7.8780   7.8990   7.9283   7.9291   7.9606   8.0208
     8.0714

     occupation numbers 
     1.0000   1.0000   1.0000   1.0000   1.0000   1.0000   1.0000   1.0000
     1.0000   1.0000   1.0000   1.0000   1.0000   1.0000   1.0000   1.0000
     1.0000   1.0000   1.0000   1.0000   1.0000   1.0000   1.0000   1.0000
     1.0000   1.0000   1.0000   1.0000   1.0000   1.0000   1.0000   1.0000
     1.0000   1.0000   1.0000   1.0000   1.0000   1.0000   1.0000   1.0000
     1.0000   1.0000   1.0000   1.0000   1.0000   1.0000   1.0000   1.0000
     1.0000   1.0000   1.0000   1.0000   1.0000   1.0000   1.0000   1.0000
     1.0000   1.0000   1.0000   1.0000   1.0000   1.0000   1.0000   1.0000
     1.0000   1.0000   1.0000   1.0000   1.0000   1.0000   1.0000   1.0000
     1.0000   1.0000   1.0000   1.0000   1.0000   1.0000   1.0000   1.0000
     1.0000   1.0000   1.0000   1.0000   1.0000   1.0000   1.0000   1.0000
     1.0000   1.0000   1.0000   1.0000   1.0000   1.0000   1.0000   1.0000
     1.0000   1.0000   1.0000   1.0000   1.0000   1.0000   1.0000   1.0000
     1.0000   1.0000   1.0000   1.0000   1.0000   1.0000   1.0000   1.0000
     1.0000   1.0000   1.0000   1.0000   1.0000   1.0000   1.0000   1.0000
     1.0000   1.0000   1.0000   1.0000   1.0000   1.0000   1.0000   1.0000
     1.0000   1.0000   1.0000   1.0000   1.0000   1.0000   1.0000   1.0000
     1.0000   1.0000   1.0000   1.0000   1.0000   1.0000   1.0000   1.0000
     1.0000   1.0000   1.0000   1.0000   1.0000   1.0000   1.0000   1.0000
     1.0000   1.0000   1.0000   1.0000   1.0000   1.0000   1.0000   1.0000
     1.0000   1.0000   1.0000   1.0000   1.0000   1.0000   1.0000   1.0000
     1.0000   1.0000   1.0000   1.0000   1.0000   1.0000   1.0000   1.0000
     1.0000   1.0000   1.0000   1.0000   1.0000   1.0000   1.0000   1.0000
     1.0000   1.0000   1.0000   1.0000   1.0000   1.0000   1.0000   1.0000
     1.0000   1.0000   1.0000   1.0000   1.0000   1.0000   1.0000   1.0000
     1.0000   1.0000   1.0000   1.0000   1.0000   1.0000   1.0000   1.0000
     1.0000   1.0000   1.0000   1.0000   1.0000   1.0000   1.0000   1.0000
     1.0000   1.0000   1.0000   1.0000   1.0000   1.0000   1.0000   1.0000
     1.0000   1.0000   1.0000   1.0000   1.0000   1.0000   1.0000   1.0000
     1.0000   1.0000   1.0000   1.0000   1.0000   1.0000   1.0000   1.0000
     1.0000   1.0000   1.0000   1.0000   1.0000   1.0000   1.0000   1.0000
     1.0000   1.0000   1.0000   1.0000   1.0000   1.0000   1.0000   1.0000
     1.0000   1.0000   1.0000   1.0000   1.0000   1.0000   1.0000   1.0000
     1.0000   1.0000   1.0000   1.0000   1.0000   1.0000   1.0000   1.0000
     1.0000   1.0000   1.0000   1.0000   1.0000   1.0000   1.0000   1.0000
     1.0000   1.0000   1.0000   1.0000   1.0000   1.0000   1.0000   1.0000
     1.0000   1.0000   1.0000   1.0000   1.0000   1.0000   1.0000   1.0000
     1.0000   1.0000   1.0000   1.0000   1.0000   1.0000   1.0000   1.0000
     1.0000   1.0000   1.0000   1.0000   1.0000   1.0000   1.0000   1.0000
     1.0000   1.0000   1.0000   1.0000   1.0000   1.0000   1.0000   1.0000
     1.0000   1.0000   1.0000   1.0000   1.0000   1.0000   1.0000   1.0000
     1.0000   1.0000   1.0000   1.0000   1.0000   1.0000   1.0000   1.0000
     1.0000   1.0000   1.0000   1.0000   1.0000   1.0000   1.0000   1.0000
     1.0000   1.0000   1.0000   1.0000   1.0000   1.0000   1.0000   1.0000
     1.0000   1.0000   1.0000   1.0000   1.0000   1.0000   1.0000   1.0000
     1.0000   1.0000   1.0000   1.0000   1.0000   1.0000   1.0000   1.0000
     1.0000   1.0000   1.0000   1.0000   1.0000   1.0000   1.0000   1.0000
     1.0000   1.0000   1.0000   1.0000   1.0000   1.0000   1.0000   1.0000
     1.0000   1.0000   1.0000   1.0000   1.0000   1.0000   1.0000   1.0000
     1.0000   1.0000   1.0000   1.0000   1.0000   1.0000   1.0000   1.0000
     1.0000   1.0000   1.0000   1.0000   1.0000   1.0000   1.0000   1.0000
     1.0000   1.0000   1.0000   1.0000   1.0000   1.0000   1.0000   1.0000
     1.0000   1.0000   1.0000   1.0000   1.0000   1.0000   1.0000   1.0000
     1.0000   1.0000   1.0000   1.0000   1.0000   1.0000   1.0000   1.0000
     1.0000   1.0000   1.0000   1.0000   1.0000   1.0000   1.0000   1.0000
     1.0000   1.0000   1.0000   1.0000   1.0000   1.0000   1.0000   1.0000
     1.0000   1.0000   1.0000   1.0000   1.0000   1.0000   1.0000   1.0000
     1.0000   1.0000   1.0000   1.0000   1.0000   1.0000   1.0000   1.0000
     1.0000   1.0000   1.0000   1.0000   1.0000   1.0000   1.0000   1.0000
     1.0000   1.0000   1.0000   1.0000   1.0000   1.0000   1.0000   1.0000
     1.0000   1.0000   1.0000   1.0000   1.0000   1.0000   1.0000   1.0000
     1.0000   1.0000   1.0000   1.0001   1.0001   1.0025   1.0029   1.0054
     1.0055   1.0105   1.0804   1.0832   1.0780   0.4235   0.0168   0.0151
     0.0001   0.0001   0.0000   0.0000   0.0000   0.0000   0.0000   0.0000
     0.0000   0.0000   0.0000   0.0000   0.0000   0.0000   0.0000   0.0000
     0.0000   0.0000   0.0000   0.0000   0.0000   0.0000   0.0000   0.0000
     0.0000   0.0000   0.0000   0.0000   0.0000   0.0000   0.0000   0.0000
     0.0000   0.0000   0.0000   0.0000   0.0000   0.0000   0.0000   0.0000
     0.0000   0.0000   0.0000   0.0000   0.0000   0.0000   0.0000   0.0000
     0.0000   0.0000   0.0000   0.0000   0.0000   0.0000   0.0000   0.0000
     0.0000   0.0000   0.0000   0.0000   0.0000   0.0000   0.0000   0.0000
     0.0000   0.0000   0.0000   0.0000   0.0000   0.0000   0.0000   0.0000
     0.0000   0.0000   0.0000   0.0000   0.0000   0.0000   0.0000   0.0000
     0.0000   0.0000   0.0000   0.0000   0.0000   0.0000   0.0000   0.0000
     0.0000   0.0000   0.0000   0.0000   0.0000   0.0000   0.0000   0.0000
     0.0000

          k = 0.0000 0.3628 0.1846 ( 71963 PWs)   bands (ev):

  -125.2798-125.2777-125.2758-125.2749-125.2673-125.2665-125.2659-125.2649
  -125.2053-125.2042-125.2034-125.2027-125.1955-125.1949-125.1942-125.1934
  -125.1305-125.1284-125.1270-125.1266-125.1256-125.1248-125.1236-125.1234
  -125.0383-125.0357-125.0352-125.0350-125.0341-125.0335-125.0330-125.0315
  -124.9593-124.9571-124.9511-124.9501-124.9467-124.9459-124.9440-124.9432
  -124.8683-124.8623-124.8612-124.8611-124.8599-124.8587-124.8570-124.8499
   -79.4367 -79.4349 -79.4328 -79.4317 -79.4302 -79.4297 -79.4291 -79.4276
   -79.4258 -79.4257 -79.4246 -79.4219 -79.4212 -79.4211 -79.4204 -79.4195
   -79.4194 -79.4173 -79.4165 -79.4156 -79.4146 -79.4145 -79.4086 -79.4040
   -79.3636 -79.3615 -79.3604 -79.3597 -79.3590 -79.3585 -79.3552 -79.3542
   -79.3541 -79.3532 -79.3524 -79.3518 -79.3511 -79.3504 -79.3496 -79.3492
   -79.3466 -79.3455 -79.3449 -79.3440 -79.3431 -79.3419 -79.3372 -79.3326
   -79.2899 -79.2881 -79.2874 -79.2868 -79.2856 -79.2851 -79.2845 -79.2835
   -79.2833 -79.2826 -79.2818 -79.2804 -79.2784 -79.2767 -79.2750 -79.2746
   -79.2739 -79.2731 -79.2722 -79.2715 -79.2703 -79.2682 -79.2647 -79.2637
   -79.1998 -79.1971 -79.1966 -79.1963 -79.1956 -79.1954 -79.1949 -79.1948
   -79.1941 -79.1927 -79.1903 -79.1901 -79.1890 -79.1864 -79.1858 -79.1856
   -79.1847 -79.1842 -79.1835 -79.1821 -79.1784 -79.1780 -79.1734 -79.1730
   -79.1244 -79.1218 -79.1155 -79.1153 -79.1143 -79.1113 -79.1104 -79.1096
   -79.1086 -79.1085 -79.1076 -79.1073 -79.1044 -79.1016 -79.1006 -79.0996
   -79.0975 -79.0973 -79.0964 -79.0947 -79.0938 -79.0909 -79.0875 -79.0827
   -79.0392 -79.0334 -79.0321 -79.0310 -79.0298 -79.0296 -79.0281 -79.0210
   -79.0207 -79.0155 -79.0153 -79.0143 -79.0138 -79.0132 -79.0121 -79.0103
   -79.0102 -79.0053 -79.0043 -79.0037 -78.9944 -78.9932 -78.9884 -78.9846
   -17.3737 -15.1574 -12.9929 -12.6162 -10.9582  -9.4335  -8.7185  -8.1352
    -7.6598  -7.3413  -7.2901  -7.2282  -7.0580  -7.0310  -6.9148  -6.8796
    -6.8388  -6.8022  -6.7945  -6.7796  -6.7772  -6.7715  -6.7620  -6.7565
    -6.7461  -6.7217  -6.7180  -6.7104  -6.7070  -6.7008  -6.6927  -6.6878
    -6.6700  -6.6563  -6.6528  -6.6455  -6.6450  -6.6324  -6.6260  -6.6121
    -6.6068  -6.6016  -6.5906  -6.5884  -6.5850  -6.5807  -6.5788  -6.5569
    -6.5454  -6.5414  -6.5371  -6.5359  -6.5203  -6.4813  -6.4761  -6.4732
    -6.4681  -6.4600  -6.4573  -6.4269  -6.4200  -6.4198  -6.4164  -6.3945
    -6.3887  -6.3802  -6.3731  -6.3678  -6.3624  -6.3515  -6.3483  -6.3364
    -6.3231  -6.3222  -6.3203  -6.3151  -6.3050  -6.2995  -6.2946  -6.2911
    -6.2907  -6.2791  -6.2726  -6.2651  -6.2608  -6.2602  -6.2553  -6.2470
    -6.2427  -6.2337  -6.2310  -6.2102  -6.1981  -6.1876  -6.1779  -6.1717
    -6.1670  -6.1655  -6.1649  -6.1556  -6.1522  -6.1417  -6.1343  -6.1303
    -6.1292  -6.1239  -6.1212  -6.1156  -6.1131  -6.1053  -6.1050  -6.1015
    -6.1002  -6.0957  -6.0870  -6.0781  -6.0772  -6.0596  -6.0576  -6.0498
    -6.0464  -6.0369  -6.0324  -6.0233  -6.0190  -6.0176  -6.0123  -6.0061
    -6.0043  -6.0000  -5.9911  -5.9863  -5.9807  -5.9787  -5.9578  -5.9536
    -5.9467  -5.9389  -5.9364  -5.9331  -5.9329  -5.9326  -5.9287  -5.9234
    -5.9125  -5.9085  -5.9007  -5.8994  -5.8893  -5.8696  -5.8607  -5.8481
    -5.8447  -5.8423  -5.8414  -5.8398  -5.8350  -5.8191  -5.8181  -5.8122
    -5.8108  -5.8089  -5.8056  -5.8027  -5.7979  -5.7952  -5.7931  -5.7896
    -5.7839  -5.7831  -5.7819  -5.7693  -5.7681  -5.7593  -5.7469  -5.7425
    -5.7418  -5.7400  -5.7384  -5.7353  -5.7278  -5.7230  -5.7228  -5.7207
    -5.7192  -5.7078  -5.7038  -5.7013  -5.6997  -5.6977  -5.6935  -5.6890
    -5.6880  -5.6824  -5.6811  -5.6743  -5.6717  -5.6714  -5.6634  -5.6606
    -5.6541  -5.6526  -5.6518  -5.6510  -5.6468  -5.6414  -5.6362  -5.6344
    -5.6329  -5.6289  -5.6281  -5.6261  -5.6175  -5.6145  -5.6116  -5.6084
    -5.6055  -5.6023  -5.5997  -5.5968  -5.5929  -5.5883  -5.5869  -5.5836
    -5.5724  -5.5634  -5.5606  -5.5579  -5.5529  -5.5520  -5.5517  -5.5493
    -5.5450  -5.5394  -5.5382  -5.5373  -5.5348  -5.5340  -5.5189  -5.5114
    -5.5057  -5.5049  -5.5034  -5.4974  -5.4856  -5.4777  -5.4639  -5.4389
    -5.4313  -5.4217  -5.4217  -5.4114  -5.3601  -5.3569  -5.3499  -5.2817
    -5.1228  -4.9724  -4.9311  -4.9172  -4.6494  -4.5759  -4.5732  -4.4583
    -4.3623  -4.2442  -3.8816  -3.6377  -3.5015  -3.4500  -3.3078  -3.2587
    -3.2443  -2.8329  -2.7994  -2.7546  -2.6760  -2.5361  -2.4943  -2.2814
    -2.1981  -1.7812  -1.7455  -1.6771  -1.6533  -1.5396  -1.4514  -1.3720
    -1.1396  -1.0070  -0.7871  -0.7431  -0.6601  -0.5498  -0.5204  -0.4928
    -0.4665  -0.1265   0.0677   0.1537   0.2750   0.4220   0.5442   0.6196
     0.7838   0.8271   0.8806   0.9580   1.3369   1.3650   1.5143   1.5212
     1.7627   1.8985   2.1247   2.1917   2.3774   2.4161   2.4435   2.5656
     2.6360   3.0171   3.0830   3.1269   3.3619   3.3737   3.5380   3.5479
     3.6774   3.7439   3.7794   3.7855   3.8891   3.9163   4.0925   4.3044
     4.3946   4.4171   4.4438   4.5147   4.5289   4.6046   4.6356   4.6762
     4.7735   4.8434   4.9151   4.9789   4.9960   5.0445   5.0754   5.1289
     5.2764   5.3221   5.3915   5.4762   5.5345   5.5657   5.5986   5.6607
     5.7131   5.8246   5.9049   5.9700   6.0522   6.1030   6.1925   6.2307
     6.3339   6.3458   6.3764   6.3937   6.4241   6.4617   6.5597   6.6741
     6.7179   6.7597   6.7724   6.8843   6.9400   6.9924   7.0072   7.0522
     7.1397   7.2514   7.3026   7.3149   7.3428   7.3660   7.4165   7.4837
     7.5019   7.5387   7.5609   7.6089   7.6449   7.6996   7.7279   7.7675
     7.8343   7.8569   7.9066   7.9296   8.0018   8.0546   8.1196   8.1416
     8.1557

     occupation numbers 
     1.0000   1.0000   1.0000   1.0000   1.0000   1.0000   1.0000   1.0000
     1.0000   1.0000   1.0000   1.0000   1.0000   1.0000   1.0000   1.0000
     1.0000   1.0000   1.0000   1.0000   1.0000   1.0000   1.0000   1.0000
     1.0000   1.0000   1.0000   1.0000   1.0000   1.0000   1.0000   1.0000
     1.0000   1.0000   1.0000   1.0000   1.0000   1.0000   1.0000   1.0000
     1.0000   1.0000   1.0000   1.0000   1.0000   1.0000   1.0000   1.0000
     1.0000   1.0000   1.0000   1.0000   1.0000   1.0000   1.0000   1.0000
     1.0000   1.0000   1.0000   1.0000   1.0000   1.0000   1.0000   1.0000
     1.0000   1.0000   1.0000   1.0000   1.0000   1.0000   1.0000   1.0000
     1.0000   1.0000   1.0000   1.0000   1.0000   1.0000   1.0000   1.0000
     1.0000   1.0000   1.0000   1.0000   1.0000   1.0000   1.0000   1.0000
     1.0000   1.0000   1.0000   1.0000   1.0000   1.0000   1.0000   1.0000
     1.0000   1.0000   1.0000   1.0000   1.0000   1.0000   1.0000   1.0000
     1.0000   1.0000   1.0000   1.0000   1.0000   1.0000   1.0000   1.0000
     1.0000   1.0000   1.0000   1.0000   1.0000   1.0000   1.0000   1.0000
     1.0000   1.0000   1.0000   1.0000   1.0000   1.0000   1.0000   1.0000
     1.0000   1.0000   1.0000   1.0000   1.0000   1.0000   1.0000   1.0000
     1.0000   1.0000   1.0000   1.0000   1.0000   1.0000   1.0000   1.0000
     1.0000   1.0000   1.0000   1.0000   1.0000   1.0000   1.0000   1.0000
     1.0000   1.0000   1.0000   1.0000   1.0000   1.0000   1.0000   1.0000
     1.0000   1.0000   1.0000   1.0000   1.0000   1.0000   1.0000   1.0000
     1.0000   1.0000   1.0000   1.0000   1.0000   1.0000   1.0000   1.0000
     1.0000   1.0000   1.0000   1.0000   1.0000   1.0000   1.0000   1.0000
     1.0000   1.0000   1.0000   1.0000   1.0000   1.0000   1.0000   1.0000
     1.0000   1.0000   1.0000   1.0000   1.0000   1.0000   1.0000   1.0000
     1.0000   1.0000   1.0000   1.0000   1.0000   1.0000   1.0000   1.0000
     1.0000   1.0000   1.0000   1.0000   1.0000   1.0000   1.0000   1.0000
     1.0000   1.0000   1.0000   1.0000   1.0000   1.0000   1.0000   1.0000
     1.0000   1.0000   1.0000   1.0000   1.0000   1.0000   1.0000   1.0000
     1.0000   1.0000   1.0000   1.0000   1.0000   1.0000   1.0000   1.0000
     1.0000   1.0000   1.0000   1.0000   1.0000   1.0000   1.0000   1.0000
     1.0000   1.0000   1.0000   1.0000   1.0000   1.0000   1.0000   1.0000
     1.0000   1.0000   1.0000   1.0000   1.0000   1.0000   1.0000   1.0000
     1.0000   1.0000   1.0000   1.0000   1.0000   1.0000   1.0000   1.0000
     1.0000   1.0000   1.0000   1.0000   1.0000   1.0000   1.0000   1.0000
     1.0000   1.0000   1.0000   1.0000   1.0000   1.0000   1.0000   1.0000
     1.0000   1.0000   1.0000   1.0000   1.0000   1.0000   1.0000   1.0000
     1.0000   1.0000   1.0000   1.0000   1.0000   1.0000   1.0000   1.0000
     1.0000   1.0000   1.0000   1.0000   1.0000   1.0000   1.0000   1.0000
     1.0000   1.0000   1.0000   1.0000   1.0000   1.0000   1.0000   1.0000
     1.0000   1.0000   1.0000   1.0000   1.0000   1.0000   1.0000   1.0000
     1.0000   1.0000   1.0000   1.0000   1.0000   1.0000   1.0000   1.0000
     1.0000   1.0000   1.0000   1.0000   1.0000   1.0000   1.0000   1.0000
     1.0000   1.0000   1.0000   1.0000   1.0000   1.0000   1.0000   1.0000
     1.0000   1.0000   1.0000   1.0000   1.0000   1.0000   1.0000   1.0000
     1.0000   1.0000   1.0000   1.0000   1.0000   1.0000   1.0000   1.0000
     1.0000   1.0000   1.0000   1.0000   1.0000   1.0000   1.0000   1.0000
     1.0000   1.0000   1.0000   1.0000   1.0000   1.0000   1.0000   1.0000
     1.0000   1.0000   1.0000   1.0000   1.0000   1.0000   1.0000   1.0000
     1.0000   1.0000   1.0000   1.0000   1.0000   1.0000   1.0000   1.0000
     1.0000   1.0000   1.0000   1.0000   1.0000   1.0000   1.0000   1.0000
     1.0000   1.0000   1.0000   1.0000   1.0000   1.0000   1.0000   1.0000
     1.0000   1.0000   1.0000   1.0000   1.0000   1.0000   1.0000   1.0000
     1.0000   1.0000   1.0000   1.0000   1.0000   1.0000   1.0000   1.0000
     1.0000   1.0000   1.0000   1.0000   1.0000   1.0000   1.0000   1.0000
     1.0000   1.0000   1.0000   1.0000   1.0000   1.0000   1.0000   1.0000
     1.0000   1.0000   1.0000   1.0000   1.0000   1.0000   1.0000   1.0000
     1.0000   1.0000   1.0000   1.0000   1.0000   1.0000   1.0000   1.0000
     1.0000   1.0000   1.0000   1.0000   1.0000   1.0000   1.0000   1.0000
     1.0000   1.0000   1.0000   1.0000   1.0000   1.0000   1.0000   1.0000
     1.0000   1.0000   1.0000   1.0000   1.0000   1.0000   1.0000   1.0000
     1.0000   1.0000   1.0000   1.0000   1.0001   1.0014   1.0081   1.0197
     1.0694   1.0803   1.0817   1.0412   0.2022   0.1578   0.0303   0.0277
     0.0005   0.0000   0.0000   0.0000   0.0000   0.0000   0.0000   0.0000
     0.0000   0.0000   0.0000   0.0000   0.0000   0.0000   0.0000   0.0000
     0.0000   0.0000   0.0000   0.0000   0.0000   0.0000   0.0000   0.0000
     0.0000   0.0000   0.0000   0.0000   0.0000   0.0000   0.0000   0.0000
     0.0000   0.0000   0.0000   0.0000   0.0000   0.0000   0.0000   0.0000
     0.0000   0.0000   0.0000   0.0000   0.0000   0.0000   0.0000   0.0000
     0.0000   0.0000   0.0000   0.0000   0.0000   0.0000   0.0000   0.0000
     0.0000   0.0000   0.0000   0.0000   0.0000   0.0000   0.0000   0.0000
     0.0000   0.0000   0.0000   0.0000   0.0000   0.0000   0.0000   0.0000
     0.0000   0.0000   0.0000   0.0000   0.0000   0.0000   0.0000   0.0000
     0.0000   0.0000   0.0000   0.0000   0.0000   0.0000   0.0000   0.0000
     0.0000   0.0000   0.0000   0.0000   0.0000   0.0000   0.0000   0.0000
     0.0000

          k = 0.3333 0.0811 0.7384 ( 72005 PWs)   bands (ev):

  -125.2798-125.2777-125.2758-125.2748-125.2673-125.2663-125.2661-125.2649
  -125.2053-125.2041-125.2035-125.2027-125.1956-125.1947-125.1944-125.1933
  -125.1305-125.1284-125.1270-125.1267-125.1255-125.1248-125.1236-125.1234
  -125.0383-125.0357-125.0351-125.0349-125.0342-125.0336-125.0329-125.0315
  -124.9593-124.9571-124.9511-124.9501-124.9468-124.9459-124.9441-124.9432
  -124.8683-124.8624-124.8612-124.8611-124.8599-124.8587-124.8570-124.8499
   -79.4382 -79.4349 -79.4328 -79.4302 -79.4298 -79.4291 -79.4276 -79.4274
   -79.4264 -79.4256 -79.4251 -79.4244 -79.4220 -79.4209 -79.4207 -79.4195
   -79.4174 -79.4164 -79.4161 -79.4149 -79.4147 -79.4143 -79.4129 -79.4024
   -79.3652 -79.3616 -79.3602 -79.3597 -79.3587 -79.3558 -79.3552 -79.3539
   -79.3534 -79.3529 -79.3526 -79.3523 -79.3519 -79.3508 -79.3506 -79.3494
   -79.3455 -79.3446 -79.3443 -79.3435 -79.3432 -79.3431 -79.3403 -79.3310
   -79.2899 -79.2888 -79.2880 -79.2868 -79.2867 -79.2855 -79.2844 -79.2836
   -79.2832 -79.2825 -79.2784 -79.2768 -79.2764 -79.2756 -79.2751 -79.2749
   -79.2746 -79.2741 -79.2736 -79.2731 -79.2721 -79.2715 -79.2633 -79.2621
   -79.1998 -79.1972 -79.1972 -79.1966 -79.1964 -79.1962 -79.1954 -79.1949
   -79.1941 -79.1927 -79.1890 -79.1865 -79.1859 -79.1856 -79.1849 -79.1846
   -79.1843 -79.1842 -79.1839 -79.1838 -79.1834 -79.1821 -79.1718 -79.1716
   -79.1244 -79.1218 -79.1165 -79.1154 -79.1143 -79.1114 -79.1104 -79.1096
   -79.1086 -79.1076 -79.1073 -79.1060 -79.1042 -79.1020 -79.1016 -79.1005
   -79.0973 -79.0964 -79.0948 -79.0938 -79.0936 -79.0933 -79.0898 -79.0811
   -79.0392 -79.0334 -79.0321 -79.0311 -79.0298 -79.0296 -79.0281 -79.0210
   -79.0207 -79.0155 -79.0153 -79.0145 -79.0142 -79.0132 -79.0121 -79.0116
   -79.0103 -79.0037 -79.0013 -78.9994 -78.9991 -78.9974 -78.9869 -78.9839
   -17.3737 -15.1571 -12.9942 -12.6162 -10.9548  -9.4333  -8.7225  -8.1682
    -7.7989  -7.2923  -7.2290  -7.0678  -7.0365  -7.0024  -6.9562  -6.9415
    -6.9274  -6.8665  -6.8413  -6.8364  -6.8215  -6.7979  -6.7855  -6.7829
    -6.7341  -6.7293  -6.7180  -6.7085  -6.7080  -6.6638  -6.6588  -6.6568
    -6.6379  -6.6286  -6.6278  -6.6185  -6.6163  -6.6120  -6.6045  -6.5811
    -6.5764  -6.5681  -6.5660  -6.5561  -6.5420  -6.5401  -6.5393  -6.5369
    -6.5345  -6.5185  -6.5091  -6.5084  -6.5054  -6.5012  -6.4993  -6.4810
    -6.4719  -6.4571  -6.4542  -6.4492  -6.4454  -6.4174  -6.4140  -6.4112
    -6.4072  -6.4065  -6.3881  -6.3848  -6.3844  -6.3502  -6.3313  -6.3237
    -6.3150  -6.3133  -6.3038  -6.3029  -6.2965  -6.2954  -6.2781  -6.2737
    -6.2679  -6.2675  -6.2652  -6.2645  -6.2398  -6.2382  -6.2367  -6.2331
    -6.2173  -6.2139  -6.2135  -6.2087  -6.1980  -6.1940  -6.1897  -6.1786
    -6.1745  -6.1697  -6.1666  -6.1533  -6.1494  -6.1476  -6.1404  -6.1386
    -6.1174  -6.1104  -6.0945  -6.0920  -6.0914  -6.0889  -6.0881  -6.0871
    -6.0848  -6.0843  -6.0730  -6.0647  -6.0581  -6.0565  -6.0492  -6.0314
    -6.0197  -6.0177  -6.0162  -6.0131  -6.0017  -5.9926  -5.9908  -5.9888
    -5.9878  -5.9874  -5.9863  -5.9835  -5.9749  -5.9713  -5.9629  -5.9561
    -5.9556  -5.9403  -5.9289  -5.9255  -5.9234  -5.9227  -5.9142  -5.9141
    -5.9063  -5.9012  -5.9002  -5.8996  -5.8726  -5.8708  -5.8682  -5.8677
    -5.8573  -5.8543  -5.8541  -5.8530  -5.8526  -5.8509  -5.8468  -5.8422
    -5.8360  -5.8321  -5.8300  -5.8210  -5.8169  -5.8147  -5.8096  -5.8091
    -5.8084  -5.8008  -5.7922  -5.7913  -5.7753  -5.7710  -5.7623  -5.7613
    -5.7594  -5.7571  -5.7557  -5.7551  -5.7537  -5.7507  -5.7417  -5.7385
    -5.7359  -5.7331  -5.7194  -5.7170  -5.7111  -5.7092  -5.7057  -5.7029
    -5.6995  -5.6960  -5.6943  -5.6885  -5.6854  -5.6763  -5.6751  -5.6739
    -5.6716  -5.6689  -5.6625  -5.6593  -5.6575  -5.6462  -5.6446  -5.6419
    -5.6341  -5.6330  -5.6321  -5.6308  -5.6245  -5.6211  -5.6196  -5.6175
    -5.6159  -5.6113  -5.6078  -5.6002  -5.5979  -5.5960  -5.5932  -5.5905
    -5.5834  -5.5815  -5.5809  -5.5787  -5.5781  -5.5752  -5.5614  -5.5546
    -5.5481  -5.5463  -5.5445  -5.5341  -5.5295  -5.5217  -5.5121  -5.5114
    -5.4852  -5.4844  -5.4791  -5.4660  -5.4636  -5.4610  -5.4403  -5.4394
    -5.4381  -5.3828  -5.3788  -5.3528  -5.3475  -5.3384  -5.2961  -5.2957
    -5.1222  -5.1170  -5.0335  -5.0129  -4.6452  -4.5209  -4.4621  -4.4043
    -4.3625  -4.1888  -3.9754  -3.9067  -3.6456  -3.4975  -3.4530  -3.3921
    -3.3762  -2.8436  -2.8070  -2.7340  -2.7094  -2.2802  -2.1644  -1.9225
    -1.9201  -1.9121  -1.8106  -1.7123  -1.5235  -1.4604  -1.2839  -1.1451
    -1.1442  -0.9171  -0.7581  -0.5931  -0.5256  -0.4910  -0.4075  -0.3654
    -0.3449  -0.3439  -0.2285  -0.2246   0.4106   0.5264   0.5409   0.7157
     0.7269   0.7621   0.8824   0.9762   1.3546   1.4145   1.4525   1.4959
     1.4978   1.8117   1.9067   1.9303   2.0964   2.1747   2.3271   2.6833
     2.7628   2.7686   2.8873   2.9008   2.9192   2.9705   3.4566   3.4963
     3.5000   3.6759   3.6864   3.7932   3.8968   4.1317   4.2742   4.3099
     4.3215   4.3921   4.4024   4.4823   4.5594   4.6029   4.6665   4.8578
     4.9040   4.9903   4.9954   5.0282   5.0465   5.0865   5.1437   5.2882
     5.3149   5.3949   5.4788   5.5337   5.6713   5.7144   5.7375   5.7679
     5.8477   5.9529   6.0867   6.1019   6.1199   6.2685   6.3019   6.3335
     6.4372   6.5035   6.5645   6.6113   6.6253   6.6455   6.7331   6.7661
     6.7937   6.8813   6.9109   6.9190   6.9524   7.0164   7.0562   7.1211
     7.1782   7.1947   7.2382   7.2671   7.3167   7.3713   7.4533   7.4778
     7.4879   7.5218   7.5749   7.6037   7.6380   7.6604   7.6923   7.7475
     7.8169   7.8932   7.9310   7.9549   7.9817   8.0117   8.0239   8.0648
     8.1079

     occupation numbers 
     1.0000   1.0000   1.0000   1.0000   1.0000   1.0000   1.0000   1.0000
     1.0000   1.0000   1.0000   1.0000   1.0000   1.0000   1.0000   1.0000
     1.0000   1.0000   1.0000   1.0000   1.0000   1.0000   1.0000   1.0000
     1.0000   1.0000   1.0000   1.0000   1.0000   1.0000   1.0000   1.0000
     1.0000   1.0000   1.0000   1.0000   1.0000   1.0000   1.0000   1.0000
     1.0000   1.0000   1.0000   1.0000   1.0000   1.0000   1.0000   1.0000
     1.0000   1.0000   1.0000   1.0000   1.0000   1.0000   1.0000   1.0000
     1.0000   1.0000   1.0000   1.0000   1.0000   1.0000   1.0000   1.0000
     1.0000   1.0000   1.0000   1.0000   1.0000   1.0000   1.0000   1.0000
     1.0000   1.0000   1.0000   1.0000   1.0000   1.0000   1.0000   1.0000
     1.0000   1.0000   1.0000   1.0000   1.0000   1.0000   1.0000   1.0000
     1.0000   1.0000   1.0000   1.0000   1.0000   1.0000   1.0000   1.0000
     1.0000   1.0000   1.0000   1.0000   1.0000   1.0000   1.0000   1.0000
     1.0000   1.0000   1.0000   1.0000   1.0000   1.0000   1.0000   1.0000
     1.0000   1.0000   1.0000   1.0000   1.0000   1.0000   1.0000   1.0000
     1.0000   1.0000   1.0000   1.0000   1.0000   1.0000   1.0000   1.0000
     1.0000   1.0000   1.0000   1.0000   1.0000   1.0000   1.0000   1.0000
     1.0000   1.0000   1.0000   1.0000   1.0000   1.0000   1.0000   1.0000
     1.0000   1.0000   1.0000   1.0000   1.0000   1.0000   1.0000   1.0000
     1.0000   1.0000   1.0000   1.0000   1.0000   1.0000   1.0000   1.0000
     1.0000   1.0000   1.0000   1.0000   1.0000   1.0000   1.0000   1.0000
     1.0000   1.0000   1.0000   1.0000   1.0000   1.0000   1.0000   1.0000
     1.0000   1.0000   1.0000   1.0000   1.0000   1.0000   1.0000   1.0000
     1.0000   1.0000   1.0000   1.0000   1.0000   1.0000   1.0000   1.0000
     1.0000   1.0000   1.0000   1.0000   1.0000   1.0000   1.0000   1.0000
     1.0000   1.0000   1.0000   1.0000   1.0000   1.0000   1.0000   1.0000
     1.0000   1.0000   1.0000   1.0000   1.0000   1.0000   1.0000   1.0000
     1.0000   1.0000   1.0000   1.0000   1.0000   1.0000   1.0000   1.0000
     1.0000   1.0000   1.0000   1.0000   1.0000   1.0000   1.0000   1.0000
     1.0000   1.0000   1.0000   1.0000   1.0000   1.0000   1.0000   1.0000
     1.0000   1.0000   1.0000   1.0000   1.0000   1.0000   1.0000   1.0000
     1.0000   1.0000   1.0000   1.0000   1.0000   1.0000   1.0000   1.0000
     1.0000   1.0000   1.0000   1.0000   1.0000   1.0000   1.0000   1.0000
     1.0000   1.0000   1.0000   1.0000   1.0000   1.0000   1.0000   1.0000
     1.0000   1.0000   1.0000   1.0000   1.0000   1.0000   1.0000   1.0000
     1.0000   1.0000   1.0000   1.0000   1.0000   1.0000   1.0000   1.0000
     1.0000   1.0000   1.0000   1.0000   1.0000   1.0000   1.0000   1.0000
     1.0000   1.0000   1.0000   1.0000   1.0000   1.0000   1.0000   1.0000
     1.0000   1.0000   1.0000   1.0000   1.0000   1.0000   1.0000   1.0000
     1.0000   1.0000   1.0000   1.0000   1.0000   1.0000   1.0000   1.0000
     1.0000   1.0000   1.0000   1.0000   1.0000   1.0000   1.0000   1.0000
     1.0000   1.0000   1.0000   1.0000   1.0000   1.0000   1.0000   1.0000
     1.0000   1.0000   1.0000   1.0000   1.0000   1.0000   1.0000   1.0000
     1.0000   1.0000   1.0000   1.0000   1.0000   1.0000   1.0000   1.0000
     1.0000   1.0000   1.0000   1.0000   1.0000   1.0000   1.0000   1.0000
     1.0000   1.0000   1.0000   1.0000   1.0000   1.0000   1.0000   1.0000
     1.0000   1.0000   1.0000   1.0000   1.0000   1.0000   1.0000   1.0000
     1.0000   1.0000   1.0000   1.0000   1.0000   1.0000   1.0000   1.0000
     1.0000   1.0000   1.0000   1.0000   1.0000   1.0000   1.0000   1.0000
     1.0000   1.0000   1.0000   1.0000   1.0000   1.0000   1.0000   1.0000
     1.0000   1.0000   1.0000   1.0000   1.0000   1.0000   1.0000   1.0000
     1.0000   1.0000   1.0000   1.0000   1.0000   1.0000   1.0000   1.0000
     1.0000   1.0000   1.0000   1.0000   1.0000   1.0000   1.0000   1.0000
     1.0000   1.0000   1.0000   1.0000   1.0000   1.0000   1.0000   1.0000
     1.0000   1.0000   1.0000   1.0000   1.0000   1.0000   1.0000   1.0000
     1.0000   1.0000   1.0000   1.0000   1.0000   1.0000   1.0000   1.0000
     1.0000   1.0000   1.0000   1.0000   1.0000   1.0000   1.0000   1.0000
     1.0000   1.0000   1.0000   1.0000   1.0000   1.0000   1.0000   1.0000
     1.0000   1.0000   1.0000   1.0000   1.0000   1.0000   1.0000   1.0000
     1.0000   1.0000   1.0000   1.0000   1.0000   1.0000   1.0000   1.0000
     1.0000   1.0000   1.0000   1.0000   1.0000   1.0000   1.0000   1.0000
     1.0000   1.0000   1.0000   1.0000   1.0011   1.0064   1.0078   1.0464
     1.0502   1.0623   1.0814   1.0221   0.1735   0.0972   0.0643   0.0383
     0.0374   0.0002   0.0000   0.0000   0.0000   0.0000   0.0000   0.0000
     0.0000   0.0000   0.0000   0.0000   0.0000   0.0000   0.0000   0.0000
     0.0000   0.0000   0.0000   0.0000   0.0000   0.0000   0.0000   0.0000
     0.0000   0.0000   0.0000   0.0000   0.0000   0.0000   0.0000   0.0000
     0.0000   0.0000   0.0000   0.0000   0.0000   0.0000   0.0000   0.0000
     0.0000   0.0000   0.0000   0.0000   0.0000   0.0000   0.0000   0.0000
     0.0000   0.0000   0.0000   0.0000   0.0000   0.0000   0.0000   0.0000
     0.0000   0.0000   0.0000   0.0000   0.0000   0.0000   0.0000   0.0000
     0.0000   0.0000   0.0000   0.0000   0.0000   0.0000   0.0000   0.0000
     0.0000   0.0000   0.0000   0.0000   0.0000   0.0000   0.0000   0.0000
     0.0000   0.0000   0.0000   0.0000   0.0000   0.0000   0.0000   0.0000
     0.0000   0.0000   0.0000   0.0000   0.0000   0.0000   0.0000   0.0000
     0.0000

          k = 0.3333 0.4439 0.9230 ( 71974 PWs)   bands (ev):

  -125.2798-125.2777-125.2758-125.2749-125.2673-125.2665-125.2659-125.2649
  -125.2053-125.2042-125.2034-125.2027-125.1955-125.1949-125.1942-125.1934
  -125.1305-125.1284-125.1270-125.1266-125.1256-125.1248-125.1236-125.1234
  -125.0383-125.0357-125.0352-125.0350-125.0341-125.0335-125.0330-125.0315
  -124.9593-124.9571-124.9511-124.9501-124.9467-124.9459-124.9440-124.9432
  -124.8683-124.8623-124.8612-124.8611-124.8599-124.8587-124.8570-124.8499
   -79.4367 -79.4349 -79.4328 -79.4317 -79.4302 -79.4297 -79.4291 -79.4276
   -79.4258 -79.4257 -79.4246 -79.4219 -79.4212 -79.4211 -79.4204 -79.4195
   -79.4194 -79.4173 -79.4165 -79.4156 -79.4146 -79.4145 -79.4086 -79.4040
   -79.3636 -79.3615 -79.3604 -79.3597 -79.3590 -79.3585 -79.3552 -79.3541
   -79.3541 -79.3532 -79.3524 -79.3518 -79.3511 -79.3504 -79.3496 -79.3492
   -79.3466 -79.3455 -79.3449 -79.3440 -79.3431 -79.3419 -79.3372 -79.3326
   -79.2899 -79.2881 -79.2874 -79.2868 -79.2856 -79.2851 -79.2845 -79.2835
   -79.2833 -79.2826 -79.2818 -79.2804 -79.2784 -79.2767 -79.2750 -79.2746
   -79.2739 -79.2731 -79.2722 -79.2715 -79.2703 -79.2682 -79.2647 -79.2637
   -79.1998 -79.1971 -79.1966 -79.1963 -79.1956 -79.1954 -79.1949 -79.1948
   -79.1941 -79.1927 -79.1903 -79.1901 -79.1890 -79.1864 -79.1858 -79.1856
   -79.1847 -79.1842 -79.1835 -79.1821 -79.1784 -79.1780 -79.1734 -79.1730
   -79.1244 -79.1218 -79.1155 -79.1153 -79.1143 -79.1113 -79.1104 -79.1096
   -79.1086 -79.1085 -79.1076 -79.1073 -79.1044 -79.1016 -79.1006 -79.0996
   -79.0975 -79.0973 -79.0964 -79.0947 -79.0938 -79.0909 -79.0875 -79.0827
   -79.0392 -79.0334 -79.0321 -79.0310 -79.0298 -79.0296 -79.0281 -79.0210
   -79.0207 -79.0155 -79.0153 -79.0143 -79.0138 -79.0132 -79.0121 -79.0103
   -79.0102 -79.0053 -79.0043 -79.0037 -78.9944 -78.9932 -78.9884 -78.9846
   -17.3737 -15.1574 -12.9929 -12.6162 -10.9582  -9.4335  -8.7185  -7.9402
    -7.7556  -7.6597  -7.2903  -7.2282  -7.0581  -6.9341  -6.9173  -6.8648
    -6.8569  -6.8226  -6.8058  -6.7709  -6.7614  -6.7567  -6.7539  -6.7469
    -6.7291  -6.7173  -6.7171  -6.7071  -6.7012  -6.6925  -6.6876  -6.6870
    -6.6703  -6.6638  -6.6561  -6.6523  -6.6452  -6.6423  -6.6360  -6.6226
    -6.6131  -6.6120  -6.6067  -6.5884  -6.5807  -6.5622  -6.5606  -6.5568
    -6.5453  -6.5412  -6.5205  -6.5166  -6.5051  -6.4814  -6.4761  -6.4735
    -6.4731  -6.4682  -6.4575  -6.4412  -6.4200  -6.4152  -6.3947  -6.3922
    -6.3890  -6.3801  -6.3786  -6.3785  -6.3624  -6.3590  -6.3487  -6.3361
    -6.3218  -6.3148  -6.3139  -6.3015  -6.2999  -6.2982  -6.2947  -6.2905
    -6.2893  -6.2807  -6.2653  -6.2650  -6.2604  -6.2542  -6.2429  -6.2372
    -6.2338  -6.2314  -6.2293  -6.2113  -6.2102  -6.2036  -6.1977  -6.1839
    -6.1716  -6.1664  -6.1654  -6.1646  -6.1555  -6.1512  -6.1428  -6.1414
    -6.1304  -6.1292  -6.1233  -6.1213  -6.1156  -6.1055  -6.1005  -6.0956
    -6.0939  -6.0806  -6.0778  -6.0723  -6.0718  -6.0599  -6.0576  -6.0368
    -6.0333  -6.0320  -6.0259  -6.0234  -6.0218  -6.0186  -6.0177  -6.0062
    -6.0043  -5.9909  -5.9856  -5.9813  -5.9785  -5.9769  -5.9560  -5.9518
    -5.9490  -5.9388  -5.9367  -5.9341  -5.9330  -5.9329  -5.9264  -5.9235
    -5.9230  -5.9127  -5.8992  -5.8939  -5.8895  -5.8797  -5.8729  -5.8695
    -5.8605  -5.8588  -5.8449  -5.8424  -5.8345  -5.8210  -5.8189  -5.8180
    -5.8176  -5.8162  -5.8107  -5.8026  -5.8010  -5.7979  -5.7898  -5.7842
    -5.7821  -5.7814  -5.7801  -5.7772  -5.7682  -5.7592  -5.7552  -5.7468
    -5.7427  -5.7424  -5.7419  -5.7387  -5.7253  -5.7252  -5.7241  -5.7228
    -5.7224  -5.7203  -5.7011  -5.6980  -5.6954  -5.6890  -5.6879  -5.6839
    -5.6825  -5.6816  -5.6802  -5.6753  -5.6743  -5.6627  -5.6543  -5.6536
    -5.6519  -5.6515  -5.6470  -5.6432  -5.6414  -5.6390  -5.6364  -5.6343
    -5.6331  -5.6263  -5.6249  -5.6178  -5.6172  -5.6145  -5.6145  -5.6115
    -5.6082  -5.6054  -5.6011  -5.6003  -5.5929  -5.5877  -5.5851  -5.5833
    -5.5821  -5.5723  -5.5640  -5.5603  -5.5580  -5.5531  -5.5518  -5.5492
    -5.5440  -5.5427  -5.5417  -5.5393  -5.5372  -5.5206  -5.5190  -5.5114
    -5.5052  -5.5049  -5.5020  -5.4856  -5.4826  -5.4777  -5.4759  -5.4316
    -5.4296  -5.4269  -5.4216  -5.3888  -5.3698  -5.3331  -5.1626  -5.1228
    -5.0193  -4.9725  -4.9311  -4.9176  -4.6551  -4.6480  -4.5739  -4.4620
    -4.3625  -4.2440  -4.0652  -3.6885  -3.6392  -3.4500  -3.2589  -3.2444
    -2.9743  -2.8329  -2.7978  -2.7549  -2.7402  -2.6043  -2.4941  -2.2816
    -2.1995  -2.1669  -2.0953  -1.9948  -1.9732  -1.6928  -1.4512  -1.3727
    -1.0072  -0.9490  -0.7430  -0.5503  -0.5056  -0.4670  -0.3409  -0.1272
     0.0308   0.0629   0.1543   0.1660   0.5426   0.5742   0.6747   0.7075
     0.7750   0.8336   0.9191   0.9826   1.0883   1.4745   1.5161   1.5958
     1.7628   1.8978   2.0718   2.1243   2.3548   2.3780   2.3814   2.4251
     2.6371   2.8315   3.0164   3.0409   3.0826   3.2363   3.2553   3.3735
     3.5370   3.5480   3.6532   3.7835   3.8102   3.8350   4.0848   4.2044
     4.2220   4.2376   4.3045   4.3923   4.4600   4.5338   4.6008   4.6375
     4.6749   4.8961   4.9464   4.9808   5.1029   5.1187   5.1593   5.2641
     5.3502   5.4710   5.4831   5.5113   5.6020   5.6292   5.6560   5.6711
     5.8444   5.8823   5.9785   6.0351   6.1104   6.1372   6.2272   6.2624
     6.3506   6.3616   6.3911   6.4234   6.4549   6.4875   6.5842   6.6610
     6.7018   6.7167   6.7591   6.7691   6.8027   6.9005   6.9510   7.0414
     7.1134   7.1791   7.2260   7.2840   7.3101   7.3207   7.4395   7.5217
     7.5265   7.6354   7.6622   7.7032   7.7771   7.8225   7.9042   7.9322
     7.9846   8.0196   8.0895   8.1099   8.1401   8.1525   8.1808   8.2011
     8.2332

     occupation numbers 
     1.0000   1.0000   1.0000   1.0000   1.0000   1.0000   1.0000   1.0000
[...]
     atom   30 type  1   force =    -0.00019748   -0.00012347    0.00003033
     atom   31 type  1   force =    -0.00000000    0.00000000    0.00000000
     atom   32 type  1   force =     0.00000000   -0.00000000   -0.00000000
     atom   33 type  1   force =     0.00017186   -0.00015205   -0.00004009
     atom   34 type  1   force =    -0.00013284    0.00016476   -0.00010320
     atom   35 type  1   force =    -0.00019317   -0.00003821    0.00013234
     atom   36 type  1   force =    -0.00007759   -0.00000842   -0.00011029
     atom   37 type  1   force =     0.00000000   -0.00000000   -0.00000000
     atom   38 type  1   force =    -0.00000000    0.00000000   -0.00000000
     atom   39 type  1   force =     0.00004929   -0.00002359    0.00013140
     atom   40 type  1   force =    -0.00009811    0.00003203   -0.00004371
     atom   41 type  1   force =     0.00008768    0.00030698    0.00010210
     atom   42 type  1   force =     0.00027654   -0.00020531   -0.00000832
     atom   43 type  1   force =     0.00000000   -0.00000000   -0.00000000
     atom   44 type  1   force =    -0.00000000    0.00000000   -0.00000000
     atom   45 type  1   force =    -0.00017034    0.00008757    0.00018801
     atom   46 type  1   force =     0.00014284   -0.00008850   -0.00009591
     atom   47 type  1   force =     0.00021397    0.00000192    0.00001972
     atom   48 type  1   force =     0.00015087    0.00007229    0.00008362
     atom   49 type  3   force =    -0.00000691    0.00001879   -0.00001017
     atom   50 type  3   force =     0.00000116    0.00001343   -0.00001365
     atom   51 type  3   force =    -0.00001080   -0.00002054    0.00001280
     atom   52 type  3   force =    -0.00001294    0.00001869    0.00000554
     atom   53 type  3   force =     0.00000058    0.00000026    0.00000245
     atom   54 type  3   force =    -0.00000640    0.00001301   -0.00000984
     atom   55 type  3   force =     0.00000910   -0.00001277    0.00000827
     atom   56 type  2   force =    -0.00001337    0.00003257   -0.00001756
     atom   57 type  4   force =    -0.00000157    0.00000536    0.00000040
     atom   58 type  4   force =    -0.00000142    0.00000224   -0.00000594
     atom   59 type  4   force =    -0.00000194   -0.00000119    0.00000118
     atom   60 type  4   force =    -0.00000049    0.00000485   -0.00000120
     atom   61 type  4   force =    -0.00000506   -0.00000374   -0.00000354
     atom   62 type  4   force =     0.00000408   -0.00000191   -0.00000454
     atom   63 type  4   force =    -0.00000248    0.00000164   -0.00000407
     atom   64 type  4   force =     0.00000135    0.00000069    0.00000001
     atom   65 type  4   force =    -0.00000296    0.00000516   -0.00000129

     DFT-D3 dispersion contribution to forces:
     atom    1 type  1   force =    -0.00131592   -0.00036832    0.00200370
     atom    2 type  1   force =    -0.00129247   -0.00024388    0.00205295
     atom    3 type  1   force =     0.00106161    0.00030418    0.00070202
     atom    4 type  1   force =     0.00098763    0.00015431    0.00078140
     atom    5 type  1   force =     0.00035093    0.00049919   -0.00017786
     atom    6 type  1   force =     0.00095942   -0.00022005    0.00091341
     atom    7 type  1   force =    -0.00135463   -0.00030624    0.00192709
     atom    8 type  1   force =    -0.00125446   -0.00032280    0.00208935
     atom    9 type  1   force =     0.00096699    0.00024744    0.00076111
     atom   10 type  1   force =     0.00107092    0.00020227    0.00072293
     atom   11 type  1   force =     0.00035748    0.00031680    0.00021348
     atom   12 type  1   force =     0.00039142   -0.00037304   -0.00085826
     atom   13 type  1   force =    -0.00127670   -0.00031833    0.00196903
     atom   14 type  1   force =    -0.00126601   -0.00027890    0.00194831
     atom   15 type  1   force =     0.00094168    0.00028552    0.00047312
     atom   16 type  1   force =     0.00085371    0.00010521    0.00020797
     atom   17 type  1   force =     0.00075356    0.00025279   -0.00193203
     atom   18 type  1   force =     0.00053328    0.00008862   -0.00190840
     atom   19 type  1   force =    -0.00124238   -0.00030436    0.00196133
     atom   20 type  1   force =    -0.00129411   -0.00029799    0.00194306
     atom   21 type  1   force =     0.00084416    0.00020520    0.00043412
     atom   22 type  1   force =     0.00088702    0.00026783    0.00033841
     atom   23 type  1   force =     0.00071434    0.00020252   -0.00181360
     atom   24 type  1   force =     0.00062955    0.00012603   -0.00204813
     atom   25 type  1   force =     0.00055076    0.00012207    0.00254221
     atom   26 type  1   force =     0.00053783    0.00016785    0.00245610
     atom   27 type  1   force =    -0.00079208   -0.00015394    0.00003842
     atom   28 type  1   force =    -0.00096604   -0.00020997   -0.00000129
     atom   29 type  1   force =    -0.00029475    0.00000199   -0.00303284
     atom   30 type  1   force =    -0.00034772   -0.00008540   -0.00216914
     atom   31 type  1   force =     0.00055337    0.00010983    0.00235159
     atom   32 type  1   force =     0.00053951    0.00013262    0.00258324
     atom   33 type  1   force =    -0.00091389   -0.00019440   -0.00001842
     atom   34 type  1   force =    -0.00079440   -0.00019488    0.00005454
     atom   35 type  1   force =    -0.00042101    0.00014399   -0.00257325
     atom   36 type  1   force =    -0.00033352   -0.00038427   -0.00274298
     atom   37 type  1   force =     0.00055506    0.00012706    0.00251282
     atom   38 type  1   force =     0.00060168    0.00015210    0.00248904
     atom   39 type  1   force =    -0.00075431   -0.00010267    0.00015583
     atom   40 type  1   force =    -0.00084585   -0.00020521    0.00030434
     atom   41 type  1   force =     0.00021570    0.00015300   -0.00291197
     atom   42 type  1   force =     0.00051264    0.00001893   -0.00290905
     atom   43 type  1   force =     0.00057826    0.00014541    0.00249757
     atom   44 type  1   force =     0.00057643    0.00013795    0.00249085
     atom   45 type  1   force =    -0.00064059   -0.00022454    0.00015111
     atom   46 type  1   force =    -0.00071235   -0.00004491    0.00012795
     atom   47 type  1   force =     0.00036017    0.00015560   -0.00259443
     atom   48 type  1   force =     0.00020982    0.00006781   -0.00297366
     atom   49 type  3   force =     0.00009215   -0.00014186   -0.00044105
     atom   50 type  3   force =    -0.00021282   -0.00023628   -0.00105596
     atom   51 type  3   force =     0.00018544   -0.00008394   -0.00085082
     atom   52 type  3   force =     0.00000046    0.00004955   -0.00093257
     atom   53 type  3   force =    -0.00001559    0.00007523   -0.00074521
     atom   54 type  3   force =     0.00028561   -0.00013184   -0.00116536
     atom   55 type  3   force =    -0.00016415   -0.00000638   -0.00079972
     atom   56 type  2   force =     0.00000906    0.00011212   -0.00098545
     atom   57 type  4   force =    -0.00004034    0.00013597   -0.00004108
     atom   58 type  4   force =     0.00003848    0.00000631   -0.00058703
     atom   59 type  4   force =    -0.00002307   -0.00006580   -0.00023236
     atom   60 type  4   force =     0.00004255   -0.00019819   -0.00009782
     atom   61 type  4   force =    -0.00023127    0.00015418   -0.00100414
     atom   62 type  4   force =     0.00019878    0.00024097   -0.00097989
     atom   63 type  4   force =    -0.00009870   -0.00001577   -0.00077880
     atom   64 type  4   force =    -0.00000419    0.00002802   -0.00018903
     atom   65 type  4   force =    -0.00004413    0.00001765   -0.00064678

     Total force =     0.023391     Total SCF correction =     0.001199

     DFT-D3 dispersion Force =     0.014372


     Computing stress (Cartesian axis) and pressure


     negative rho (up, down):  4.411E-03 0.000E+00
          total   stress  (Ry/bohr**3)                   (kbar)     P=      -14.91
  -0.00016314   0.00000139   0.00000448          -24.00        0.20        0.66
   0.00000139  -0.00011954   0.00000309            0.20      -17.58        0.46
   0.00000448   0.00000309  -0.00002147            0.66        0.46       -3.16

     kinetic stress (kbar)  11635.17      5.58      7.58
                                5.58  11625.34     13.68
                                7.58     13.68  11722.81

     local   stress (kbar)-854710.12   3410.61   3212.66
                             3410.61-867635.51   1588.66
                             3212.66   1588.66 863384.53

     nonloc. stress (kbar)  -1123.96     -5.19     -3.17
                               -5.19  -1103.06     -2.62
                               -3.17     -2.62  -1143.92

     hartree stress (kbar) 452310.86  -1508.84  -1401.56
                            -1508.84 458034.80   -669.85
                            -1401.56   -669.85-400246.45

     exc-cor stress (kbar)  -5692.32     -0.70     -0.64
                               -0.70  -5689.78     -1.06
                               -0.64     -1.06  -5699.07

     corecor stress (kbar)    -72.19     -0.04     -0.01
                               -0.04    -71.98      0.26
                               -0.01      0.26    -71.31

     ewald   stress (kbar) 397634.94  -1901.68  -1814.66
                            -1901.68 404830.79   -928.70
                            -1814.66   -928.70-467946.22

     hubbard stress (kbar)      0.00      0.00      0.00
                                0.00      0.00      0.00
                                0.00      0.00      0.00

     DFT-D   stress (kbar)     -6.38      0.46      0.45
                                0.46     -8.17      0.08
                                0.45      0.08     -3.51

     XDM     stress (kbar)      0.00      0.00      0.00
                                0.00      0.00      0.00
                                0.00      0.00      0.00

     dft-nl  stress (kbar)      0.00      0.00      0.00
                                0.00      0.00      0.00
                                0.00      0.00      0.00

     TS-vdW  stress (kbar)      0.00      0.00      0.00
                                0.00      0.00      0.00
                                0.00      0.00      0.00

     MDB     stress (kbar)      0.00      0.00      0.00
                                0.00      0.00      0.00
                                0.00      0.00      0.00

     3D-RISM stress (kbar)      0.00      0.00      0.00
                                0.00      0.00      0.00
                                0.00      0.00      0.00

     Energy error            =      5.3E-04 Ry
     Gradient error          =      1.1E-02 Ry/Bohr

     number of scf cycles    =  22
     number of bfgs steps    =  21

     energy             old  =  -22314.4515528140 Ry
     energy             new  =  -22314.4520834884 Ry

     CASE: energy            _new < energy            _old

     new trust radius        =       0.0629788529 bohr
     new conv_thr            =       0.0000001061 Ry


ATOMIC_POSITIONS (angstrom)
Zn              -1.0735560000        1.0841420000        1.1977640000    0   0   0
Zn              -2.3094850000        6.1646920000        1.1977640000    0   0   0
Zn              -4.9037718395        0.1523215956        3.6495280221
Zn              -6.1614036588        5.2162902282        3.6644018368
Zn              -8.8821096777       -0.8386099891        5.8495336636
Zn             -10.0213295113        4.2561321789        6.2566480986
Zn              -1.6915200000        3.6244170000        1.1977640000    0   0   0
Zn              -2.9274500000        8.7049670000        1.1977640000    0   0   0
Zn              -5.5379725438        2.6892921295        3.6606351107
Zn              -6.7606527730        7.7587930769        3.6588709736
Zn              -9.4982436693        1.6859138504        5.8675242863
Zn             -10.7565900592        6.7684176366        5.8241457860
Zn               4.4565960000        1.0841420000        1.1977640000    0   0   0
Zn               3.2206660000        6.1646920000        1.1977640000    0   0   0
Zn               0.6434336130        0.1594405875        3.6125057346
Zn              -0.5657768347        5.2146618346        3.6354586035
Zn              -3.2807988690       -0.7982801249        5.7446156715
Zn              -4.5163313464        4.2788112590        5.7456111363
Zn               3.8386310000        3.6244170000        1.1977640000    0   0   0
Zn               2.6027020000        8.7049670000        1.1977640000    0   0   0
Zn               0.0761674302        2.7201487273        3.7053005239
Zn              -1.2167198810        7.7667413961        3.5867218390
Zn              -3.8967053336        1.7431778158        5.7461223460
Zn              -5.1347540005        6.8124725932        5.7399489019
Zn               1.6915200000        0.4114910000        0.8555450000    0   0   0
Zn               0.4555910000        5.4920410000        0.8555450000    0   0   0
Zn              -2.3444917942       -0.5648586305        2.9528572500
Zn              -3.5979448033        4.5037572709        2.9487572186
Zn              -6.4120800192       -1.5686111516        5.0612667991
Zn              -7.6907118339        3.5041575862        5.0935018507
Zn               1.0735560000        2.9517660000        0.8555450000    0   0   0
Zn              -0.1623740000        8.0323160000        0.8555450000    0   0   0
Zn              -2.9703551084        1.9722799122        2.9495012342
Zn              -4.2044684495        7.0449949087        2.9530244951
Zn              -7.0285031554        0.9760850631        5.0760500404
Zn              -8.2981343099        6.0314814053        5.0861067222
Zn               7.2216720000        0.4114910000        0.8555450000    0   0   0
Zn               5.9857420000        5.4920410000        0.8555450000    0   0   0
Zn               3.1845604437       -0.5675446606        2.9560238613
Zn               1.9543949009        4.5087994667        2.9550527434
Zn              -0.7824544303       -1.5374593888        5.0836255936
Zn              -2.0205893995        3.5395128063        5.0769045311
Zn               6.6037070000        2.9517660000        0.8555450000    0   0   0
Zn               5.3677780000        8.0323160000        0.8555450000    0   0   0
Zn               2.5744050130        1.9680273697        2.9631186432
Zn               1.3296516628        7.0478718721        2.9578881394
Zn              -1.3976008429        1.0088851160        5.0975684595
Zn              -2.6253430124        6.0805440713        5.0850724803
C               -8.6913218210       -1.2732378315       10.5864666297
C              -10.6831800082        1.8174225689        9.5575405075
C               -8.0225236122        1.0650289399        9.8930800997
C               -9.6667486471        2.7284474090        9.2605413185
C               -9.0332059358        0.1326364746       10.1724528686
C               -8.3320156648        2.3476411144        9.4378525598
C              -10.3653127223        0.5347594447       10.0140958645
N               -9.9843045947        4.0153513592        8.7149767021
H               -8.1007837930       -1.2992301338       11.5143930311
H              -11.7266597073        2.1167475607        9.4352493255
H               -6.9746423585        0.7940294687       10.0512803796
H               -9.6031972117       -1.8628662000       10.7475047673
H               -9.2789347345        4.7093781068        8.9508130602
H              -10.8851859316        4.3545316857        9.0488903036
H               -7.5362028851        3.0632307823        9.2147549711
H              -11.1725101941       -0.1564030539       10.2703245785
H               -8.1037026251       -1.7581171154        9.7912187935



     Writing config-only to output data dir ./tmp/Zn101_3layer_ptoluidine_relax.save/ :
     XML data file
     NEW-OLD atomic charge density approx. for the potential

     negative rho (up, down):  4.438E-03 0.000E+00

     total cpu time spent up to now is    73065.2 secs

     Self-consistent Calculation

     iteration #  1     ecut=    40.00 Ry     beta= 0.40
     Davidson diagonalization with overlap

---- Real-time Memory Report at c_bands before calling an iterative solver
           466 MiB given to the printing process from OS
             0 MiB allocation reported by mallinfo(arena+hblkhd)
          8155 MiB available memory on the node where the printing process lives
------------------
     ethr =  1.00E-06,  avg # of iterations =  5.0

     negative rho (up, down):  4.427E-03 0.000E+00

     total cpu time spent up to now is    73553.6 secs

     total energy              =  -22314.45259623 Ry
     estimated scf accuracy    <       0.00113821 Ry

     iteration #  2     ecut=    40.00 Ry     beta= 0.40
     Davidson diagonalization with overlap

---- Real-time Memory Report at c_bands before calling an iterative solver
           466 MiB given to the printing process from OS
             0 MiB allocation reported by mallinfo(arena+hblkhd)
          8047 MiB available memory on the node where the printing process lives
------------------
     ethr =  1.14E-07,  avg # of iterations =  3.0

     negative rho (up, down):  4.418E-03 0.000E+00

     total cpu time spent up to now is    73810.4 secs

     total energy              =  -22314.45264377 Ry
     estimated scf accuracy    <       0.00029316 Ry

     iteration #  3     ecut=    40.00 Ry     beta= 0.40
     Davidson diagonalization with overlap

---- Real-time Memory Report at c_bands before calling an iterative solver
           466 MiB given to the printing process from OS
             0 MiB allocation reported by mallinfo(arena+hblkhd)
          8023 MiB available memory on the node where the printing process lives
------------------
     ethr =  2.93E-08,  avg # of iterations =  2.0

     negative rho (up, down):  4.417E-03 0.000E+00

     total cpu time spent up to now is    74066.7 secs

     total energy              =  -22314.45252187 Ry
     estimated scf accuracy    <       0.00218878 Ry

     iteration #  4     ecut=    40.00 Ry     beta= 0.40
     Davidson diagonalization with overlap

---- Real-time Memory Report at c_bands before calling an iterative solver
           466 MiB given to the printing process from OS
             0 MiB allocation reported by mallinfo(arena+hblkhd)
          8001 MiB available memory on the node where the printing process lives
------------------
     ethr =  2.93E-08,  avg # of iterations =  2.2

     negative rho (up, down):  4.415E-03 0.000E+00

     total cpu time spent up to now is    74322.7 secs

     total energy              =  -22314.45267889 Ry
     estimated scf accuracy    <       0.00034600 Ry

     iteration #  5     ecut=    40.00 Ry     beta= 0.40
     Davidson diagonalization with overlap

---- Real-time Memory Report at c_bands before calling an iterative solver
           466 MiB given to the printing process from OS
             0 MiB allocation reported by mallinfo(arena+hblkhd)
          7983 MiB available memory on the node where the printing process lives
------------------
     ethr =  2.93E-08,  avg # of iterations =  2.0

     negative rho (up, down):  4.412E-03 0.000E+00

     total cpu time spent up to now is    74583.5 secs

     total energy              =  -22314.45270653 Ry
     estimated scf accuracy    <       0.00004187 Ry

     iteration #  6     ecut=    40.00 Ry     beta= 0.40
     Davidson diagonalization with overlap

---- Real-time Memory Report at c_bands before calling an iterative solver
           466 MiB given to the printing process from OS
             0 MiB allocation reported by mallinfo(arena+hblkhd)
          7945 MiB available memory on the node where the printing process lives
------------------
