--------------------------------------------------------------------------
By default, for Open MPI 4.0 and later, infiniband ports on a device
are not used by default.  The intent is to use UCX for these devices.
You can override this policy by setting the btl_openib_allow_ib MCA parameter
to true.

  Local host:              psid01
  Local adapter:           mlx5_0
  Local port:              1

--------------------------------------------------------------------------
--------------------------------------------------------------------------
WARNING: There was an error initializing an OpenFabrics device.

  Local host:   psid01
  Local device: mlx5_0
--------------------------------------------------------------------------

     Program PWSCF v.7.3.1 starts on 17Mar2025 at 17:29:48 

     This program is part of the open-source Quantum ESPRESSO suite
     for quantum simulation of materials; please cite
         "P. Giannozzi et al., J. Phys.:Condens. Matter 21 395502 (2009);
         "P. Giannozzi et al., J. Phys.:Condens. Matter 29 465901 (2017);
         "P. Giannozzi et al., J. Chem. Phys. 152 154105 (2020);
          URL http://www.quantum-espresso.org", 
     in publications or presentations arising from this work. More details at
     http://www.quantum-espresso.org/quote

     Parallel version (MPI), running on    30 processors

     MPI processes distributed on     1 nodes
     65444 MiB available memory on the printing compute node when the environment starts

     Waiting for input...
     Reading input from standard input
Warning: card &CELL ignored
Warning: card   CELL_DOFREE = 'ALL' ignored
Warning: card / ignored

     Current dimensions of program PWSCF are:
     Max number of different atomic species (ntypx) = 10
     Max number of k-points (npk) =  40000
     Max angular momentum in pseudopotentials (lmaxx) =  4
     Found identity + (  0.5000  0.0000  0.0000) symmetry
     This is a supercell, fractional translations are disabled

     R & G space division:  proc/nbgrp/npool/nimage =      30
     Subspace diagonalization in iterative solution of the eigenvalue problem:
     one sub-group per band group will be used
     custom distributed-memory algorithm (size of sub-group:  5*  5 procs)


     Parallelization info
     --------------------
     sticks:   dense  smooth     PW     G-vecs:    dense   smooth      PW
     Min         108     108     28                11236    11236    1566
     Max         109     109     29                11246    11246    1581
     Sum        3241    3241    859               337189   337189   47187

     Using Slab Decomposition



     bravais-lattice index     =            0
     lattice parameter (alat)  =      19.7617  a.u.
     unit-cell volume          =   15176.5939 (a.u.)^3
     number of atoms/cell      =           64
     number of atomic types    =            1
     number of electrons       =      1280.00
     number of Kohn-Sham states=          768
     kinetic-energy cutoff     =      30.0000  Ry
     charge density cutoff     =     120.0000  Ry
     scf convergence threshold =      7.3E-07
     mixing beta               =       0.7000
     number of iterations used =            8  plain     mixing
     energy convergence thresh.=      1.0E-05
     force convergence thresh. =      5.0E-04
     Exchange-correlation= SLA  PW   PBE  PBE
                           (   1   4   3   4   0   0   0)
     nstep                     =          100


     celldm(1)=  19.761696  celldm(2)=   0.000000  celldm(3)=   0.000000
     celldm(4)=   0.000000  celldm(5)=   0.000000  celldm(6)=   0.000000

     crystal axes: (cart. coord. in units of alat)
               a(1) = (   1.000000   0.000000   0.000000 )  
               a(2) = (  -0.500000   0.866025   0.000000 )  
               a(3) = (   0.000000   0.000000   2.270759 )  

     reciprocal axes: (cart. coord. in units 2 pi/alat)
               b(1) = (  1.000000  0.577350 -0.000000 )  
               b(2) = (  0.000000  1.154701  0.000000 )  
               b(3) = (  0.000000 -0.000000  0.440381 )  


     PseudoPot. # 1 for Zn read from file:
     /home/ys/qepseudo/SSSP_1.3.0_PBE_efficiency/Zn_pbe_v1.uspp.F.UPF
     MD5 check sum: df62231357ef9e81f77b2b3087fa5675
     Pseudo is Ultrasoft, Zval = 20.0
     Generated by new atomic code, or converted to UPF format
     Using radial grid of  943 points,  6 beta functions with: 
                l(1) =   0
                l(2) =   0
                l(3) =   1
                l(4) =   1
                l(5) =   2
                l(6) =   2
     Q(r) pseudized with  8 coefficients,  rinner =    1.100   1.100   1.100
                                                       1.100   1.100

     atomic species   valence    mass     pseudopotential
     Zn               20.00    65.38000     Zn( 1.00)

     No symmetry found


                                    s                        frac. trans.

      isym =  1     identity                                     

 cryst.   s( 1) = (     1          0          0      )
                  (     0          1          0      )
                  (     0          0          1      )

 cart.    s( 1) = (  1.0000000  0.0000000  0.0000000 )
                  (  0.0000000  1.0000000  0.0000000 )
                  (  0.0000000  0.0000000  1.0000000 )


   Cartesian axes

     site n.     atom                  positions (alat units)
         1        Zn     tau(   1) = (  -0.0000000   0.1443376   0.1164999  )
         2        Zn     tau(   2) = (   0.5000000   0.1443376   0.1164999  )
         3        Zn     tau(   3) = (  -0.0000000   0.1443376   0.5824993  )
         4        Zn     tau(   4) = (   0.5000000   0.1443376   0.5824993  )
         5        Zn     tau(   5) = (  -0.1250000   0.3608439   0.1164999  )
         6        Zn     tau(   6) = (   0.3750000   0.3608439   0.1164999  )
         7        Zn     tau(   7) = (  -0.1250000   0.3608439   0.5824993  )
         8        Zn     tau(   8) = (   0.3750000   0.3608439   0.5824993  )
         9        Zn     tau(   9) = (  -0.2500000   0.5773503   0.1164999  )
        10        Zn     tau(  10) = (   0.2500000   0.5773503   0.1164999  )
        11        Zn     tau(  11) = (  -0.2500000   0.5773503   0.5824993  )
        12        Zn     tau(  12) = (   0.2500000   0.5773503   0.5824993  )
        13        Zn     tau(  13) = (  -0.3750000   0.7938566   0.1164999  )
        14        Zn     tau(  14) = (   0.1250000   0.7938566   0.1164999  )
        15        Zn     tau(  15) = (  -0.3750000   0.7938566   0.5824993  )
        16        Zn     tau(  16) = (   0.1250000   0.7938566   0.5824993  )
        17        Zn     tau(  17) = (   0.2500000   0.1443376   0.1164999  )
        18        Zn     tau(  18) = (   0.7500000   0.1443376   0.1164999  )
        19        Zn     tau(  19) = (   0.2500000   0.1443376   0.5824993  )
        20        Zn     tau(  20) = (   0.7500000   0.1443376   0.5824993  )
        21        Zn     tau(  21) = (   0.1250000   0.3608439   0.1164999  )
        22        Zn     tau(  22) = (   0.6250000   0.3608439   0.1164999  )
        23        Zn     tau(  23) = (   0.1250000   0.3608439   0.5824993  )
        24        Zn     tau(  24) = (   0.6250000   0.3608439   0.5824993  )
        25        Zn     tau(  25) = (  -0.0000000   0.5773503   0.1164999  )
        26        Zn     tau(  26) = (   0.5000000   0.5773503   0.1164999  )
        27        Zn     tau(  27) = (  -0.0000000   0.5773503   0.5824993  )
        28        Zn     tau(  28) = (   0.5000000   0.5773503   0.5824993  )
        29        Zn     tau(  29) = (  -0.1250000   0.7938566   0.1164999  )
        30        Zn     tau(  30) = (   0.3750000   0.7938566   0.1164999  )
        31        Zn     tau(  31) = (  -0.1250000   0.7938566   0.5824993  )
        32        Zn     tau(  32) = (   0.3750000   0.7938566   0.5824993  )
        33        Zn     tau(  33) = (   0.1250000   0.0721688   0.3494996  )
        34        Zn     tau(  34) = (   0.6250000   0.0721688   0.3494996  )
        35        Zn     tau(  35) = (   0.1250000   0.0721688   0.8154990  )
        36        Zn     tau(  36) = (   0.6250000   0.0721688   0.8154990  )
        37        Zn     tau(  37) = (   0.0000000   0.2886751   0.3494996  )
        38        Zn     tau(  38) = (   0.5000000   0.2886751   0.3494996  )
        39        Zn     tau(  39) = (   0.0000000   0.2886751   0.8154990  )
        40        Zn     tau(  40) = (   0.5000000   0.2886751   0.8154990  )
        41        Zn     tau(  41) = (  -0.1250000   0.5051815   0.3494996  )
        42        Zn     tau(  42) = (   0.3750000   0.5051815   0.3494996  )
        43        Zn     tau(  43) = (  -0.1250000   0.5051815   0.8154990  )
        44        Zn     tau(  44) = (   0.3750000   0.5051815   0.8154990  )
        45        Zn     tau(  45) = (  -0.2500000   0.7216878   0.3494996  )
        46        Zn     tau(  46) = (   0.2500000   0.7216878   0.3494996  )
        47        Zn     tau(  47) = (  -0.2500000   0.7216878   0.8154990  )
        48        Zn     tau(  48) = (   0.2500000   0.7216878   0.8154990  )
        49        Zn     tau(  49) = (   0.3750000   0.0721688   0.3494996  )
        50        Zn     tau(  50) = (   0.8750000   0.0721688   0.3494996  )
        51        Zn     tau(  51) = (   0.3750000   0.0721688   0.8154990  )
        52        Zn     tau(  52) = (   0.8750000   0.0721688   0.8154990  )
        53        Zn     tau(  53) = (   0.2500000   0.2886751   0.3494996  )
        54        Zn     tau(  54) = (   0.7500000   0.2886751   0.3494996  )
        55        Zn     tau(  55) = (   0.2500000   0.2886751   0.8154990  )
        56        Zn     tau(  56) = (   0.7500000   0.2886751   0.8154990  )
        57        Zn     tau(  57) = (   0.1250000   0.5051815   0.3494996  )
        58        Zn     tau(  58) = (   0.6250000   0.5051815   0.3494996  )
        59        Zn     tau(  59) = (   0.1250000   0.5051815   0.8154990  )
        60        Zn     tau(  60) = (   0.6250000   0.5051815   0.8154990  )
        61        Zn     tau(  61) = (   0.0000000   0.7216878   0.3494996  )
        62        Zn     tau(  62) = (   0.5000000   0.7216878   0.3494996  )
        63        Zn     tau(  63) = (   0.0000000   0.7216878   0.8154990  )
        64        Zn     tau(  64) = (   0.5000000   0.7216878   0.8154990  )

   Crystallographic axes

     site n.     atom                  positions (cryst. coord.)
         1        Zn     tau(   1) = (  0.0833333  0.1666667  0.0513044  )
         2        Zn     tau(   2) = (  0.5833333  0.1666667  0.0513044  )
         3        Zn     tau(   3) = (  0.0833333  0.1666667  0.2565219  )
         4        Zn     tau(   4) = (  0.5833333  0.1666667  0.2565219  )
         5        Zn     tau(   5) = (  0.0833333  0.4166667  0.0513044  )
         6        Zn     tau(   6) = (  0.5833333  0.4166667  0.0513044  )
         7        Zn     tau(   7) = (  0.0833333  0.4166667  0.2565219  )
         8        Zn     tau(   8) = (  0.5833333  0.4166667  0.2565219  )
         9        Zn     tau(   9) = (  0.0833333  0.6666667  0.0513044  )
        10        Zn     tau(  10) = (  0.5833333  0.6666667  0.0513044  )
        11        Zn     tau(  11) = (  0.0833333  0.6666667  0.2565219  )
        12        Zn     tau(  12) = (  0.5833333  0.6666667  0.2565219  )
        13        Zn     tau(  13) = (  0.0833333  0.9166667  0.0513044  )
        14        Zn     tau(  14) = (  0.5833333  0.9166667  0.0513044  )
        15        Zn     tau(  15) = (  0.0833333  0.9166667  0.2565219  )
        16        Zn     tau(  16) = (  0.5833333  0.9166667  0.2565219  )
        17        Zn     tau(  17) = (  0.3333333  0.1666667  0.0513044  )
        18        Zn     tau(  18) = (  0.8333333  0.1666667  0.0513044  )
        19        Zn     tau(  19) = (  0.3333333  0.1666667  0.2565219  )
        20        Zn     tau(  20) = (  0.8333333  0.1666667  0.2565219  )
        21        Zn     tau(  21) = (  0.3333333  0.4166667  0.0513044  )
        22        Zn     tau(  22) = (  0.8333333  0.4166667  0.0513044  )
        23        Zn     tau(  23) = (  0.3333333  0.4166667  0.2565219  )
        24        Zn     tau(  24) = (  0.8333333  0.4166667  0.2565219  )
        25        Zn     tau(  25) = (  0.3333333  0.6666667  0.0513044  )
        26        Zn     tau(  26) = (  0.8333333  0.6666667  0.0513044  )
        27        Zn     tau(  27) = (  0.3333333  0.6666667  0.2565219  )
        28        Zn     tau(  28) = (  0.8333333  0.6666667  0.2565219  )
        29        Zn     tau(  29) = (  0.3333333  0.9166667  0.0513044  )
        30        Zn     tau(  30) = (  0.8333333  0.9166667  0.0513044  )
        31        Zn     tau(  31) = (  0.3333333  0.9166667  0.2565219  )
        32        Zn     tau(  32) = (  0.8333333  0.9166667  0.2565219  )
        33        Zn     tau(  33) = (  0.1666667  0.0833333  0.1539131  )
        34        Zn     tau(  34) = (  0.6666667  0.0833333  0.1539131  )
        35        Zn     tau(  35) = (  0.1666667  0.0833333  0.3591306  )
        36        Zn     tau(  36) = (  0.6666667  0.0833333  0.3591306  )
        37        Zn     tau(  37) = (  0.1666667  0.3333333  0.1539131  )
        38        Zn     tau(  38) = (  0.6666667  0.3333333  0.1539131  )
        39        Zn     tau(  39) = (  0.1666667  0.3333333  0.3591306  )
        40        Zn     tau(  40) = (  0.6666667  0.3333333  0.3591306  )
        41        Zn     tau(  41) = (  0.1666667  0.5833333  0.1539131  )
        42        Zn     tau(  42) = (  0.6666667  0.5833333  0.1539131  )
        43        Zn     tau(  43) = (  0.1666667  0.5833333  0.3591306  )
        44        Zn     tau(  44) = (  0.6666667  0.5833333  0.3591306  )
        45        Zn     tau(  45) = (  0.1666667  0.8333333  0.1539131  )
        46        Zn     tau(  46) = (  0.6666667  0.8333333  0.1539131  )
        47        Zn     tau(  47) = (  0.1666667  0.8333333  0.3591306  )
        48        Zn     tau(  48) = (  0.6666667  0.8333333  0.3591306  )
        49        Zn     tau(  49) = (  0.4166667  0.0833333  0.1539131  )
        50        Zn     tau(  50) = (  0.9166667  0.0833333  0.1539131  )
        51        Zn     tau(  51) = (  0.4166667  0.0833333  0.3591306  )
        52        Zn     tau(  52) = (  0.9166667  0.0833333  0.3591306  )
        53        Zn     tau(  53) = (  0.4166667  0.3333333  0.1539131  )
        54        Zn     tau(  54) = (  0.9166667  0.3333333  0.1539131  )
        55        Zn     tau(  55) = (  0.4166667  0.3333333  0.3591306  )
        56        Zn     tau(  56) = (  0.9166667  0.3333333  0.3591306  )
        57        Zn     tau(  57) = (  0.4166667  0.5833333  0.1539131  )
        58        Zn     tau(  58) = (  0.9166667  0.5833333  0.1539131  )
        59        Zn     tau(  59) = (  0.4166667  0.5833333  0.3591306  )
        60        Zn     tau(  60) = (  0.9166667  0.5833333  0.3591306  )
        61        Zn     tau(  61) = (  0.4166667  0.8333333  0.1539131  )
        62        Zn     tau(  62) = (  0.9166667  0.8333333  0.1539131  )
        63        Zn     tau(  63) = (  0.4166667  0.8333333  0.3591306  )
        64        Zn     tau(  64) = (  0.9166667  0.8333333  0.3591306  )

     number of k points=     5  Marzari-Vanderbilt smearing, width (Ry)=  0.0200
                       cart. coord. in units 2pi/alat
        k(    1) = (   0.0000000   0.0000000   0.0000000), wk =   0.2222222
        k(    2) = (   0.0000000   0.3849002   0.0000000), wk =   0.4444444
        k(    3) = (   0.3333333   0.1924501   0.0000000), wk =   0.4444444
        k(    4) = (   0.3333333   0.5773503   0.0000000), wk =   0.4444444
        k(    5) = (   0.3333333  -0.1924501   0.0000000), wk =   0.4444444

                       cryst. coord.
        k(    1) = (   0.0000000   0.0000000   0.0000000), wk =   0.2222222
        k(    2) = (   0.0000000   0.3333333   0.0000000), wk =   0.4444444
        k(    3) = (   0.3333333   0.0000000   0.0000000), wk =   0.4444444
        k(    4) = (   0.3333333   0.3333333   0.0000000), wk =   0.4444444
        k(    5) = (   0.3333333  -0.3333333   0.0000000), wk =   0.4444444

     Dense  grid:   337189 G-vectors     FFT dimensions: (  72,  72, 160)

     Dynamical RAM for                 wfc:      16.44 MB

     Dynamical RAM for     wfc (w. buffer):      98.65 MB

     Dynamical RAM for           str. fact:       0.17 MB

     Dynamical RAM for           local pot:       0.00 MB

     Dynamical RAM for          nlocal pot:      24.66 MB

     Dynamical RAM for                qrad:       0.88 MB

     Dynamical RAM for          rho,v,vnew:       1.23 MB

     Dynamical RAM for               rhoin:       0.41 MB

     Dynamical RAM for            rho*nmix:       2.75 MB

     Dynamical RAM for           G-vectors:       0.73 MB

     Dynamical RAM for          h,s,v(r/c):       4.31 MB

     Dynamical RAM for          <psi|beta>:      13.50 MB

     Dynamical RAM for                 psi:      32.88 MB

     Dynamical RAM for                hpsi:      32.88 MB

     Dynamical RAM for                spsi:      32.88 MB

     Dynamical RAM for      wfcinit/wfcrot:      51.47 MB

     Dynamical RAM for           addusdens:      42.90 MB

     Dynamical RAM for          addusforce:      64.86 MB

     Dynamical RAM for         addusstress:      34.49 MB

     Estimated static dynamical RAM per process >     128.26 MB

     Estimated max dynamical RAM per process >     247.47 MB

     Estimated total dynamical RAM >       7.25 GB

     Initial potential from superposition of free atoms

     starting charge    1279.9910, renormalised to    1280.0000

     negative rho (up, down):  1.642E-03 0.000E+00
     Starting wfcs are  832 randomized atomic wfcs
[psid01:46577] 29 more processes have sent help message help-mpi-btl-openib.txt / ib port not selected
[psid01:46577] Set MCA parameter "orte_base_help_aggregate" to 0 to see all help / error messages
[psid01:46577] 29 more processes have sent help message help-mpi-btl-openib.txt / error in device init

     total cpu time spent up to now is       66.4 secs

     Self-consistent Calculation

     iteration #  1     ecut=    30.00 Ry     beta= 0.70
     Davidson diagonalization with overlap

---- Real-time Memory Report at c_bands before calling an iterative solver
           206 MiB given to the printing process from OS
             0 MiB allocation reported by mallinfo(arena+hblkhd)
         61283 MiB available memory on the node where the printing process lives
------------------
     ethr =  1.00E-02,  avg # of iterations =  9.0

     Threshold (ethr) on eigenvalues was too large:
     Diagonalizing with lowered threshold

     Davidson diagonalization with overlap

---- Real-time Memory Report at c_bands before calling an iterative solver
           285 MiB given to the printing process from OS
             0 MiB allocation reported by mallinfo(arena+hblkhd)
         60005 MiB available memory on the node where the printing process lives
------------------
     ethr =  2.17E-04,  avg # of iterations =  3.8

     negative rho (up, down):  6.050E-03 0.000E+00

     total cpu time spent up to now is      586.5 secs

     total energy              =  -29533.99744179 Ry
     estimated scf accuracy    <       2.96682195 Ry

     iteration #  2     ecut=    30.00 Ry     beta= 0.70
     Davidson diagonalization with overlap

---- Real-time Memory Report at c_bands before calling an iterative solver
           300 MiB given to the printing process from OS
             0 MiB allocation reported by mallinfo(arena+hblkhd)
         59987 MiB available memory on the node where the printing process lives
------------------
     ethr =  2.32E-04,  avg # of iterations =  3.0

     negative rho (up, down):  7.473E-03 0.000E+00

     total cpu time spent up to now is      903.4 secs

     total energy              =  -29534.61103787 Ry
     estimated scf accuracy    <       5.22220642 Ry

     iteration #  3     ecut=    30.00 Ry     beta= 0.70
     Davidson diagonalization with overlap

---- Real-time Memory Report at c_bands before calling an iterative solver
           301 MiB given to the printing process from OS
             0 MiB allocation reported by mallinfo(arena+hblkhd)
         59963 MiB available memory on the node where the printing process lives
------------------
     ethr =  2.32E-04,  avg # of iterations =  8.4

     negative rho (up, down):  7.780E-03 0.000E+00

     total cpu time spent up to now is     1223.8 secs

     total energy              =  -29535.37317400 Ry
     estimated scf accuracy    <       1.44786514 Ry

     iteration #  4     ecut=    30.00 Ry     beta= 0.70
     Davidson diagonalization with overlap

---- Real-time Memory Report at c_bands before calling an iterative solver
           302 MiB given to the printing process from OS
             0 MiB allocation reported by mallinfo(arena+hblkhd)
         59939 MiB available memory on the node where the printing process lives
------------------
     ethr =  1.13E-04,  avg # of iterations =  3.0

     negative rho (up, down):  9.892E-03 0.000E+00

     total cpu time spent up to now is     1454.0 secs

     total energy              =  -29535.57122671 Ry
     estimated scf accuracy    <       0.15476834 Ry

     iteration #  5     ecut=    30.00 Ry     beta= 0.70
     Davidson diagonalization with overlap

---- Real-time Memory Report at c_bands before calling an iterative solver
           302 MiB given to the printing process from OS
             0 MiB allocation reported by mallinfo(arena+hblkhd)
         59929 MiB available memory on the node where the printing process lives
------------------
     ethr =  1.21E-05,  avg # of iterations =  3.8

     negative rho (up, down):  1.013E-02 0.000E+00

     total cpu time spent up to now is     1680.8 secs

     total energy              =  -29535.58598181 Ry
     estimated scf accuracy    <       0.00716199 Ry

     iteration #  6     ecut=    30.00 Ry     beta= 0.70
     Davidson diagonalization with overlap

---- Real-time Memory Report at c_bands before calling an iterative solver
           303 MiB given to the printing process from OS
             0 MiB allocation reported by mallinfo(arena+hblkhd)
         59916 MiB available memory on the node where the printing process lives
------------------
     ethr =  5.60E-07,  avg # of iterations =  7.2

     negative rho (up, down):  1.016E-02 0.000E+00

     total cpu time spent up to now is     1967.2 secs

     total energy              =  -29535.58640944 Ry
     estimated scf accuracy    <       0.01115001 Ry

     iteration #  7     ecut=    30.00 Ry     beta= 0.70
     Davidson diagonalization with overlap

---- Real-time Memory Report at c_bands before calling an iterative solver
           303 MiB given to the printing process from OS
             0 MiB allocation reported by mallinfo(arena+hblkhd)
         59905 MiB available memory on the node where the printing process lives
------------------
     ethr =  5.60E-07,  avg # of iterations =  3.0

     negative rho (up, down):  1.026E-02 0.000E+00

     total cpu time spent up to now is     2190.2 secs

     total energy              =  -29535.58718322 Ry
     estimated scf accuracy    <       0.00234994 Ry

     iteration #  8     ecut=    30.00 Ry     beta= 0.70
     Davidson diagonalization with overlap

---- Real-time Memory Report at c_bands before calling an iterative solver
           303 MiB given to the printing process from OS
             0 MiB allocation reported by mallinfo(arena+hblkhd)
         59896 MiB available memory on the node where the printing process lives
------------------
     ethr =  1.84E-07,  avg # of iterations =  1.0

     negative rho (up, down):  1.030E-02 0.000E+00

     total cpu time spent up to now is     2368.5 secs

     total energy              =  -29535.58732482 Ry
     estimated scf accuracy    <       0.00005549 Ry

     iteration #  9     ecut=    30.00 Ry     beta= 0.70
     Davidson diagonalization with overlap

---- Real-time Memory Report at c_bands before calling an iterative solver
           304 MiB given to the printing process from OS
             0 MiB allocation reported by mallinfo(arena+hblkhd)
         59885 MiB available memory on the node where the printing process lives
------------------
     ethr =  4.34E-09,  avg # of iterations =  2.0

     negative rho (up, down):  1.030E-02 0.000E+00

     total cpu time spent up to now is     2629.6 secs

     total energy              =  -29535.58733970 Ry
     estimated scf accuracy    <       0.00000222 Ry

     iteration # 10     ecut=    30.00 Ry     beta= 0.70
     Davidson diagonalization with overlap

---- Real-time Memory Report at c_bands before calling an iterative solver
           304 MiB given to the printing process from OS
             0 MiB allocation reported by mallinfo(arena+hblkhd)
         59876 MiB available memory on the node where the printing process lives
------------------
     ethr =  1.73E-10,  avg # of iterations =  2.2

     negative rho (up, down):  1.030E-02 0.000E+00

     total cpu time spent up to now is     2875.3 secs

     total energy              =  -29535.58733936 Ry
     estimated scf accuracy    <       0.00000268 Ry

     iteration # 11     ecut=    30.00 Ry     beta= 0.70
     Davidson diagonalization with overlap

---- Real-time Memory Report at c_bands before calling an iterative solver
           305 MiB given to the printing process from OS
             0 MiB allocation reported by mallinfo(arena+hblkhd)
         59864 MiB available memory on the node where the printing process lives
------------------
     ethr =  1.73E-10,  avg # of iterations =  2.0

     negative rho (up, down):  1.030E-02 0.000E+00

     total cpu time spent up to now is     3098.2 secs

     End of self-consistent calculation

          k = 0.0000 0.0000 0.0000 ( 42115 PWs)   bands (ev):

  -123.3672-123.3623-123.3622-123.3620-123.3620-123.3619-123.3618-123.3616
  -123.3608-123.3607-123.3605-123.3603-123.3603-123.3602-123.3600-123.3599
  -123.3599-123.3598-123.3597-123.3597-123.3596-123.3596-123.3595-123.3595
  -123.3594-123.3593-123.3593-123.3592-123.3592-123.3591-123.3589-123.3589
  -123.1159-123.1152-123.1122-123.1122-123.1121-123.1121-123.1120-123.1120
  -123.1118-123.1116-123.1116-123.1115-123.1115-123.1115-123.1115-123.1114
  -123.1113-123.1113-123.1112-123.1112-123.1110-123.1110-123.1109-123.1109
  -123.1108-123.1107-123.1107-123.1107-123.1106-123.1105-123.1105-123.1105
   -77.4736 -77.4736 -77.4736 -77.4731 -77.4731 -77.4731 -77.4651 -77.4651
   -77.4651 -77.4651 -77.4650 -77.4650 -77.4630 -77.4630 -77.4630 -77.4630
   -77.4629 -77.4629 -77.4569 -77.4492 -77.4491 -77.4490 -77.4488 -77.4487
   -77.4486 -77.4470 -77.4469 -77.4469 -77.4469 -77.4466 -77.4466 -77.4459
   -77.4458 -77.4457 -77.4442 -77.4441 -77.4440 -77.4437 -77.4436 -77.4434
   -77.4434 -77.4433 -77.4432 -77.4429 -77.4429 -77.4428 -77.4427 -77.4427
   -77.4426 -77.4422 -77.4422 -77.4422 -77.4420 -77.4419 -77.4418 -77.4417
   -77.4417 -77.4411 -77.4391 -77.4391 -77.4390 -77.4390 -77.4389 -77.4389
   -77.4386 -77.4386 -77.4385 -77.4385 -77.4384 -77.4384 -77.4380 -77.4379
   -77.4379 -77.4377 -77.4377 -77.4377 -77.4371 -77.4371 -77.4371 -77.4371
   -77.4370 -77.4370 -77.4347 -77.4347 -77.4347 -77.4320 -77.4320 -77.4320
   -77.4313 -77.4312 -77.4276 -77.4275 -77.4274 -77.4274 -77.4274 -77.4273
   -77.2224 -77.2224 -77.2224 -77.2217 -77.2217 -77.2217 -77.2130 -77.2130
   -77.2129 -77.2129 -77.2129 -77.2129 -77.2120 -77.2120 -77.2119 -77.2119
   -77.2119 -77.2119 -77.2078 -77.2055 -77.2048 -77.2047 -77.2046 -77.2046
   -77.2045 -77.2045 -77.2045 -77.2044 -77.2044 -77.2044 -77.2043 -77.2043
   -77.2043 -77.2042 -77.2042 -77.2041 -77.2041 -77.2040 -77.2040 -77.2039
   -77.2039 -77.2032 -77.2031 -77.2031 -77.2031 -77.2030 -77.2030 -77.2028
   -77.2028 -77.2027 -77.1904 -77.1904 -77.1903 -77.1903 -77.1903 -77.1903
   -77.1882 -77.1882 -77.1881 -77.1881 -77.1881 -77.1881 -77.1867 -77.1867
   -77.1866 -77.1866 -77.1866 -77.1866 -77.1857 -77.1857 -77.1856 -77.1856
   -77.1855 -77.1855 -77.1854 -77.1854 -77.1841 -77.1840 -77.1825 -77.1824
   -77.1824 -77.1824 -77.1824 -77.1824 -77.1823 -77.1822 -77.1822 -77.1812
   -77.1812 -77.1812 -77.1803 -77.1803 -77.1803 -77.1803 -77.1802 -77.1802
    -6.9562  -6.0602  -5.3517  -5.3517  -5.3516  -5.3515  -5.3514  -5.3514
    -5.3218  -5.2593  -5.1107  -5.1107  -5.1107  -5.0868  -5.0868  -5.0868
    -4.9470  -4.9470  -4.9470  -4.9470  -4.9469  -4.9469  -4.9229  -4.9229
    -4.9229  -4.8006  -4.8006  -4.8006  -4.7587  -4.7586  -4.7586  -4.7585
    -4.7585  -4.7584  -4.7297  -4.7297  -4.7296  -4.7296  -4.7294  -4.7294
    -4.7168  -4.7168  -4.7168  -4.6945  -4.6945  -4.6945  -4.6828  -4.6828
    -4.6827  -4.6827  -4.6827  -4.6826  -4.6723  -4.6723  -4.6723  -4.6723
    -4.6723  -4.6723  -4.6309  -4.6309  -4.6308  -4.6308  -4.6308  -4.6308
    -4.5279  -4.5271  -4.5271  -4.5270  -4.5269  -4.5269  -4.5268  -4.5239
    -4.5239  -4.5238  -4.5238  -4.5237  -4.5237  -4.4596  -4.4596  -4.4595
    -4.4595  -4.4595  -4.4595  -4.4550  -4.4550  -4.4549  -4.4549  -4.4548
    -4.4548  -4.4282  -4.4282  -4.4282  -4.3962  -4.3962  -4.3961  -4.3961
    -4.3961  -4.3961  -4.3545  -4.3544  -4.3544  -4.3543  -4.3543  -4.3543
    -4.3326  -4.3326  -4.3239  -4.3239  -4.3239  -4.3239  -4.3239  -4.3239
    -4.3128  -4.3128  -4.2910  -4.2910  -4.2910  -4.2910  -4.2910  -4.2910
    -4.2854  -4.2854  -4.2854  -4.2794  -4.2434  -4.2434  -4.2434  -4.2434
    -4.2434  -4.2434  -4.2414  -4.2414  -4.2414  -4.2414  -4.2414  -4.2414
    -4.1781  -4.1781  -4.1780  -4.1780  -4.1780  -4.1780  -4.1656  -4.1656
    -4.1656  -4.1656  -4.1656  -4.1655  -4.0926  -4.0926  -4.0926  -4.0863
    -4.0863  -4.0863  -4.0863  -4.0863  -4.0863  -4.0686  -4.0686  -4.0662
    -4.0662  -4.0122  -4.0122  -4.0122  -4.0121  -4.0121  -4.0121  -4.0044
    -4.0043  -4.0043  -4.0042  -4.0042  -4.0041  -4.0009  -4.0009  -4.0008
    -4.0008  -4.0007  -4.0007  -3.9717  -3.9717  -3.9717  -3.9468  -3.9468
    -3.9468  -3.9468  -3.9468  -3.9468  -3.9429  -3.9429  -3.9428  -3.9428
    -3.9427  -3.9427  -3.9348  -3.9348  -3.9348  -3.9348  -3.9347  -3.9347
    -3.9293  -3.9293  -3.9293  -3.9293  -3.9293  -3.9293  -3.9135  -3.9135
    -3.9135  -3.9135  -3.9135  -3.9135  -3.9018  -3.9017  -3.9017  -3.9016
    -3.9016  -3.9016  -3.8947  -3.8947  -3.8947  -3.8587  -3.8587  -3.8533
    -3.8533  -3.8533  -3.8533  -3.8533  -3.8533  -3.8053  -3.8053  -3.8053
    -3.8052  -3.8052  -3.8051  -3.7864  -3.7863  -3.7863  -3.7862  -3.7862
    -3.7862  -3.7790  -3.7790  -3.7789  -3.7789  -3.7789  -3.7789  -3.7566
    -3.7566  -3.7564  -3.7564  -3.7563  -3.7563  -3.7439  -3.7439  -3.7037
    -3.7037  -3.7037  -3.6530  -3.6530  -3.6530  -3.6521  -3.6521  -3.6520
    -3.6520  -3.6519  -3.6519  -3.6466  -3.6466  -3.6466  -3.6466  -3.6465
    -3.6465  -3.6465  -3.6464  -3.6464  -3.6195  -3.6195  -3.6195  -3.6195
    -3.6194  -3.6194  -3.6147  -3.6147  -3.6147  -3.5811  -3.5810  -3.5810
    -3.5810  -3.5809  -3.5809  -3.5642  -3.5642  -3.5642  -3.5641  -3.5641
    -3.5641  -3.5534  -3.5534  -3.5534  -3.5323  -3.5323  -3.5234  -3.5234
    -3.4918  -3.4918  -3.4918  -3.4918  -3.4918  -3.4918  -3.4912  -3.4912
    -3.4912  -3.4836  -3.4836  -3.4836  -3.4718  -3.4718  -3.4718  -3.4718
    -3.4717  -3.4717  -3.3576  -3.2364  -3.2364  -3.2364  -3.2346  -3.2346
    -3.2346  -3.2134  -3.2134  -3.2133  -3.2132  -3.2131  -3.2131  -1.7886
    -1.7885  -1.7884  -1.7883  -1.7882  -1.7882  -1.2004  -0.4482  -0.4482
    -0.4482  -0.4482  -0.4482  -0.4482   0.2619   0.2620   0.2621   0.2622
     0.2623   0.2623   0.4821   0.4821   0.4821   0.4821   0.4821   0.4821
     0.8381   0.8381   0.8381   0.9000   1.4174   1.4174   1.4174   1.8543
     1.8543   1.8543   1.9346   1.9346   1.9346   1.9346   1.9346   1.9346
     2.0851   2.0851   2.0851   3.2091   3.2091   3.2092   3.2093   3.2094
     3.2094   3.7670   3.7670   3.7670   3.7670   3.7670   3.7670   4.0797
     4.2428   4.2428   4.2428   4.5058   4.5058   4.5058   5.4790   5.4790
     5.4790   5.9148   5.9148   5.9149   5.9150   5.9151   5.9152   6.3714
     6.3714   6.3714   6.4574   7.0757   7.0757   7.0757   7.0757   7.0757
     7.0757   7.1051   7.1051   7.1052   7.1052   7.1053   7.1053   7.2725
     7.2725   7.2726   7.2726   7.2727   7.2727   7.2851   7.2963   8.0938
     8.0938   8.0939   8.0939   8.0940   8.0940   8.1842   8.1842   8.1843
     8.1843   8.1844   8.1844   8.2181   8.2182   8.2182   8.2182   8.2183
     8.2183   8.2557   8.2557   8.2557   8.9293   9.0892   9.0892   9.0892
     9.0893   9.0893   9.0893   9.1027   9.1288   9.1288   9.1288   9.1288
     9.1289   9.1289   9.3647   9.3647   9.3647   9.3647   9.3647   9.3647
     9.6683   9.6683   9.6684   9.6684   9.6685   9.6685   9.7572   9.7572
     9.7573   9.7573   9.7573   9.7573   9.9215   9.9215   9.9215  10.6921
    10.6921  10.6922  10.6922  10.6922  10.6922  10.8715  10.8716  10.8716
    10.8716  10.8716  10.8717  10.9852  10.9852  10.9852  10.9852  10.9852
    10.9852  11.2590  11.2590  11.2590  11.4817  11.4817  11.4818  11.4818

     occupation numbers 
     1.0000   1.0000   1.0000   1.0000   1.0000   1.0000   1.0000   1.0000
     1.0000   1.0000   1.0000   1.0000   1.0000   1.0000   1.0000   1.0000
     1.0000   1.0000   1.0000   1.0000   1.0000   1.0000   1.0000   1.0000
     1.0000   1.0000   1.0000   1.0000   1.0000   1.0000   1.0000   1.0000
     1.0000   1.0000   1.0000   1.0000   1.0000   1.0000   1.0000   1.0000
     1.0000   1.0000   1.0000   1.0000   1.0000   1.0000   1.0000   1.0000
     1.0000   1.0000   1.0000   1.0000   1.0000   1.0000   1.0000   1.0000
     1.0000   1.0000   1.0000   1.0000   1.0000   1.0000   1.0000   1.0000
     1.0000   1.0000   1.0000   1.0000   1.0000   1.0000   1.0000   1.0000
     1.0000   1.0000   1.0000   1.0000   1.0000   1.0000   1.0000   1.0000
     1.0000   1.0000   1.0000   1.0000   1.0000   1.0000   1.0000   1.0000
     1.0000   1.0000   1.0000   1.0000   1.0000   1.0000   1.0000   1.0000
     1.0000   1.0000   1.0000   1.0000   1.0000   1.0000   1.0000   1.0000
     1.0000   1.0000   1.0000   1.0000   1.0000   1.0000   1.0000   1.0000
     1.0000   1.0000   1.0000   1.0000   1.0000   1.0000   1.0000   1.0000
     1.0000   1.0000   1.0000   1.0000   1.0000   1.0000   1.0000   1.0000
     1.0000   1.0000   1.0000   1.0000   1.0000   1.0000   1.0000   1.0000
     1.0000   1.0000   1.0000   1.0000   1.0000   1.0000   1.0000   1.0000
     1.0000   1.0000   1.0000   1.0000   1.0000   1.0000   1.0000   1.0000
     1.0000   1.0000   1.0000   1.0000   1.0000   1.0000   1.0000   1.0000
     1.0000   1.0000   1.0000   1.0000   1.0000   1.0000   1.0000   1.0000
     1.0000   1.0000   1.0000   1.0000   1.0000   1.0000   1.0000   1.0000
     1.0000   1.0000   1.0000   1.0000   1.0000   1.0000   1.0000   1.0000
     1.0000   1.0000   1.0000   1.0000   1.0000   1.0000   1.0000   1.0000
     1.0000   1.0000   1.0000   1.0000   1.0000   1.0000   1.0000   1.0000
     1.0000   1.0000   1.0000   1.0000   1.0000   1.0000   1.0000   1.0000
     1.0000   1.0000   1.0000   1.0000   1.0000   1.0000   1.0000   1.0000
     1.0000   1.0000   1.0000   1.0000   1.0000   1.0000   1.0000   1.0000
     1.0000   1.0000   1.0000   1.0000   1.0000   1.0000   1.0000   1.0000
     1.0000   1.0000   1.0000   1.0000   1.0000   1.0000   1.0000   1.0000
     1.0000   1.0000   1.0000   1.0000   1.0000   1.0000   1.0000   1.0000
     1.0000   1.0000   1.0000   1.0000   1.0000   1.0000   1.0000   1.0000
     1.0000   1.0000   1.0000   1.0000   1.0000   1.0000   1.0000   1.0000
     1.0000   1.0000   1.0000   1.0000   1.0000   1.0000   1.0000   1.0000
     1.0000   1.0000   1.0000   1.0000   1.0000   1.0000   1.0000   1.0000
     1.0000   1.0000   1.0000   1.0000   1.0000   1.0000   1.0000   1.0000
     1.0000   1.0000   1.0000   1.0000   1.0000   1.0000   1.0000   1.0000
     1.0000   1.0000   1.0000   1.0000   1.0000   1.0000   1.0000   1.0000
     1.0000   1.0000   1.0000   1.0000   1.0000   1.0000   1.0000   1.0000
     1.0000   1.0000   1.0000   1.0000   1.0000   1.0000   1.0000   1.0000
     1.0000   1.0000   1.0000   1.0000   1.0000   1.0000   1.0000   1.0000
     1.0000   1.0000   1.0000   1.0000   1.0000   1.0000   1.0000   1.0000
     1.0000   1.0000   1.0000   1.0000   1.0000   1.0000   1.0000   1.0000
     1.0000   1.0000   1.0000   1.0000   1.0000   1.0000   1.0000   1.0000
     1.0000   1.0000   1.0000   1.0000   1.0000   1.0000   1.0000   1.0000
     1.0000   1.0000   1.0000   1.0000   1.0000   1.0000   1.0000   1.0000
     1.0000   1.0000   1.0000   1.0000   1.0000   1.0000   1.0000   1.0000
     1.0000   1.0000   1.0000   1.0000   1.0000   1.0000   1.0000   1.0000
     1.0000   1.0000   1.0000   1.0000   1.0000   1.0000   1.0000   1.0000
     1.0000   1.0000   1.0000   1.0000   1.0000   1.0000   1.0000   1.0000
     1.0000   1.0000   1.0000   1.0000   1.0000   1.0000   1.0000   1.0000
     1.0000   1.0000   1.0000   1.0000   1.0000   1.0000   1.0000   1.0000
     1.0000   1.0000   1.0000   1.0000   1.0000   1.0000   1.0000   1.0000
     1.0000   1.0000   1.0000   1.0000   1.0000   1.0000   1.0000   1.0000
     1.0000   1.0000   1.0000   1.0000   1.0000   1.0000   1.0000   1.0000
     1.0000   1.0000   1.0000   1.0000   1.0000   1.0000   1.0000   1.0000
     1.0000   1.0000   1.0000   1.0000   1.0000   1.0000   1.0000   1.0000
     1.0000   1.0000   1.0000   1.0000   1.0000   1.0000   1.0000   1.0000
     1.0000   1.0000   1.0000   1.0000   1.0000   1.0000   1.0000   1.0000
     1.0000   1.0000   1.0000   1.0000   1.0000   1.0000   1.0000   1.0000
     1.0000   1.0000   1.0000   1.0000   1.0000   1.0000   1.0000   1.0000
     1.0000   1.0000   1.0000   1.0000   1.0000   1.0000   1.0000   1.0000
     1.0000   1.0000   1.0000   1.0000   1.0000   1.0000   1.0000   1.0000
     1.0000   1.0000   1.0000   1.0000   1.0000   1.0000   1.0000   1.0000
     1.0000   1.0000   1.0000   1.0000   1.0000   1.0000   1.0000   1.0000
     1.0000   1.0000   1.0000   1.0000   1.0000   1.0000   1.0000   1.0000
     1.0000   1.0000   1.0000   1.0000   1.0000   1.0000   1.0000   1.0000
     1.0000   1.0000   1.0000   1.0000   1.0000   1.0000   1.0000   1.0000
     1.0000   1.0000   1.0000   1.0000   1.0000   1.0000   1.0000   1.0000
     1.0000   1.0000   1.0000   1.0000   1.0000   1.0000   1.0000   1.0000
     1.0000   1.0000   1.0000   1.0000   1.0000   1.0000   1.0000   1.0000
     1.0000   1.0000   1.0000   1.0000   1.0000   1.0000   1.0000   1.0000
     1.0000   1.0000   1.0000   1.0000   1.0000   1.0000   1.0000   1.0000
     1.0000   1.0000   1.0000   1.0000   1.0000   1.0000   1.0000   1.0000
     1.0000   1.0000   1.0000   1.0000   1.0000   1.0000   1.0000   1.0000
     1.0000   1.0000   1.0000   1.0000   1.0000   1.0000   1.0000   1.0000
     1.0000   1.0000   1.0000   1.0000   1.0000   1.0000   1.0000   1.0000
     1.0000   1.0000   1.0000   1.0000   1.0000   1.0000   1.0000   1.0000
     1.0000   1.0000   1.0000   1.0000   1.0000   1.0000   1.0000   1.0000
     1.0000   1.0000   1.0000   1.0386   1.0386   1.0387   1.0387   1.0387
     1.0388   0.3869   0.3869   0.3869   0.3869   0.3868   0.3868   0.0158
     0.0011   0.0011   0.0011   0.0000   0.0000   0.0000   0.0000   0.0000
     0.0000   0.0000   0.0000   0.0000   0.0000   0.0000   0.0000   0.0000
     0.0000   0.0000   0.0000   0.0000   0.0000   0.0000   0.0000   0.0000
     0.0000   0.0000   0.0000   0.0000   0.0000   0.0000   0.0000   0.0000
     0.0000   0.0000   0.0000   0.0000   0.0000   0.0000   0.0000   0.0000
     0.0000   0.0000   0.0000   0.0000   0.0000   0.0000   0.0000   0.0000
     0.0000   0.0000   0.0000   0.0000   0.0000   0.0000   0.0000   0.0000
     0.0000   0.0000   0.0000   0.0000   0.0000   0.0000   0.0000   0.0000
     0.0000   0.0000   0.0000   0.0000   0.0000   0.0000   0.0000   0.0000
     0.0000   0.0000   0.0000   0.0000   0.0000   0.0000   0.0000   0.0000
     0.0000   0.0000   0.0000   0.0000   0.0000   0.0000   0.0000   0.0000
     0.0000   0.0000   0.0000   0.0000   0.0000   0.0000   0.0000   0.0000
     0.0000   0.0000   0.0000   0.0000   0.0000   0.0000   0.0000   0.0000
     0.0000   0.0000   0.0000   0.0000   0.0000   0.0000   0.0000   0.0000
     0.0000   0.0000   0.0000   0.0000   0.0000   0.0000   0.0000   0.0000

          k = 0.0000 0.3849 0.0000 ( 42150 PWs)   bands (ev):

  -123.3654-123.3625-123.3618-123.3617-123.3612-123.3612-123.3612-123.3610
  -123.3610-123.3609-123.3608-123.3607-123.3607-123.3606-123.3605-123.3605
  -123.3604-123.3603-123.3602-123.3602-123.3601-123.3601-123.3600-123.3599
  -123.3599-123.3598-123.3597-123.3597-123.3595-123.3594-123.3593-123.3591
  -123.1144-123.1140-123.1129-123.1123-123.1123-123.1122-123.1121-123.1120
  -123.1119-123.1119-123.1119-123.1118-123.1118-123.1117-123.1117-123.1116
  -123.1116-123.1115-123.1115-123.1114-123.1114-123.1114-123.1113-123.1112
  -123.1112-123.1112-123.1111-123.1110-123.1108-123.1107-123.1106-123.1105
   -77.4733 -77.4733 -77.4714 -77.4713 -77.4702 -77.4671 -77.4667 -77.4667
   -77.4660 -77.4660 -77.4652 -77.4652 -77.4637 -77.4637 -77.4611 -77.4611
   -77.4563 -77.4563 -77.4549 -77.4530 -77.4527 -77.4522 -77.4515 -77.4515
   -77.4515 -77.4514 -77.4505 -77.4505 -77.4493 -77.4484 -77.4484 -77.4479
   -77.4479 -77.4461 -77.4459 -77.4456 -77.4456 -77.4454 -77.4454 -77.4451
   -77.4451 -77.4448 -77.4448 -77.4447 -77.4447 -77.4446 -77.4446 -77.4444
   -77.4443 -77.4442 -77.4439 -77.4438 -77.4437 -77.4435 -77.4435 -77.4433
   -77.4431 -77.4430 -77.4430 -77.4428 -77.4428 -77.4428 -77.4427 -77.4427
   -77.4414 -77.4413 -77.4407 -77.4391 -77.4391 -77.4383 -77.4383 -77.4381
   -77.4381 -77.4372 -77.4372 -77.4353 -77.4352 -77.4349 -77.4347 -77.4333
   -77.4330 -77.4329 -77.4325 -77.4316 -77.4315 -77.4315 -77.4315 -77.4298
   -77.4297 -77.4290 -77.4287 -77.4286 -77.4282 -77.4259 -77.4258 -77.4240
   -77.2209 -77.2209 -77.2207 -77.2207 -77.2195 -77.2155 -77.2155 -77.2147
   -77.2139 -77.2139 -77.2131 -77.2131 -77.2128 -77.2127 -77.2091 -77.2089
   -77.2089 -77.2081 -77.2081 -77.2077 -77.2075 -77.2068 -77.2066 -77.2065
   -77.2057 -77.2057 -77.2049 -77.2048 -77.2046 -77.2045 -77.2043 -77.2042
   -77.2041 -77.2040 -77.2040 -77.2039 -77.2038 -77.2038 -77.2035 -77.2034
   -77.2033 -77.2030 -77.2029 -77.2028 -77.2023 -77.2023 -77.2020 -77.2020
   -77.2018 -77.2001 -77.2001 -77.2000 -77.1990 -77.1990 -77.1976 -77.1976
   -77.1973 -77.1973 -77.1950 -77.1950 -77.1928 -77.1928 -77.1917 -77.1917
   -77.1889 -77.1889 -77.1874 -77.1873 -77.1872 -77.1872 -77.1866 -77.1866
   -77.1849 -77.1848 -77.1838 -77.1838 -77.1829 -77.1829 -77.1824 -77.1818
   -77.1818 -77.1811 -77.1806 -77.1801 -77.1797 -77.1792 -77.1789 -77.1788
   -77.1787 -77.1787 -77.1786 -77.1783 -77.1783 -77.1773 -77.1765 -77.1745
    -6.7446  -6.1388  -5.8640  -5.5954  -5.5954  -5.3454  -5.1818  -5.1536
    -5.0845  -5.0577  -5.0537  -5.0460  -5.0460  -5.0139  -5.0138  -5.0133
    -5.0132  -4.9770  -4.9729  -4.9729  -4.9107  -4.8889  -4.8811  -4.8811
    -4.8600  -4.8600  -4.8587  -4.8539  -4.8539  -4.8148  -4.8148  -4.7988
    -4.7747  -4.7747  -4.7715  -4.7715  -4.7714  -4.7548  -4.7548  -4.7401
    -4.7401  -4.7303  -4.7303  -4.7186  -4.7186  -4.7128  -4.7127  -4.7127
    -4.7042  -4.7042  -4.6958  -4.6723  -4.6723  -4.6581  -4.6541  -4.6541
    -4.6530  -4.6530  -4.6458  -4.6458  -4.6336  -4.6336  -4.6328  -4.6216
    -4.6216  -4.5989  -4.5989  -4.5786  -4.5786  -4.5785  -4.5785  -4.5634
    -4.5447  -4.5447  -4.5072  -4.5072  -4.5045  -4.5045  -4.5023  -4.4832
    -4.4832  -4.4821  -4.4821  -4.4692  -4.4692  -4.4632  -4.4626  -4.4626
    -4.4566  -4.4566  -4.4154  -4.4154  -4.4151  -4.4151  -4.4129  -4.4122
    -4.4019  -4.4019  -4.3952  -4.3952  -4.3857  -4.3857  -4.3757  -4.3727
    -4.3727  -4.3699  -4.3699  -4.3693  -4.3666  -4.3666  -4.3542  -4.3354
    -4.3321  -4.3024  -4.3024  -4.2930  -4.2930  -4.2920  -4.2843  -4.2843
    -4.2783  -4.2707  -4.2707  -4.2678  -4.2678  -4.2590  -4.2557  -4.2483
    -4.2483  -4.2402  -4.2402  -4.2365  -4.2365  -4.2111  -4.2111  -4.2054
    -4.2021  -4.1679  -4.1679  -4.1617  -4.1617  -4.1530  -4.1530  -4.1412
    -4.1412  -4.1365  -4.1365  -4.1336  -4.1294  -4.1294  -4.1256  -4.1256
    -4.1197  -4.1197  -4.1142  -4.1091  -4.0916  -4.0892  -4.0892  -4.0876
    -4.0847  -4.0800  -4.0751  -4.0751  -4.0742  -4.0742  -4.0449  -4.0431
    -4.0318  -4.0318  -4.0202  -4.0201  -4.0201  -4.0127  -4.0127  -4.0119
    -3.9974  -3.9974  -3.9959  -3.9829  -3.9829  -3.9742  -3.9742  -3.9671
    -3.9671  -3.9532  -3.9532  -3.9465  -3.9465  -3.9456  -3.9274  -3.9274
    -3.9261  -3.9235  -3.9235  -3.9206  -3.9206  -3.9093  -3.9093  -3.9085
    -3.9085  -3.9004  -3.9004  -3.8968  -3.8968  -3.8857  -3.8778  -3.8778
    -3.8750  -3.8742  -3.8725  -3.8725  -3.8672  -3.8671  -3.8667  -3.8667
    -3.8526  -3.8481  -3.8481  -3.8475  -3.8424  -3.8424  -3.8304  -3.8290
    -3.8179  -3.8179  -3.8009  -3.8009  -3.7877  -3.7877  -3.7831  -3.7831
    -3.7624  -3.7624  -3.7565  -3.7477  -3.7447  -3.7405  -3.7405  -3.7375
    -3.7375  -3.7299  -3.7299  -3.7289  -3.7249  -3.7200  -3.7200  -3.7157
    -3.7157  -3.7124  -3.7110  -3.7110  -3.7095  -3.7095  -3.7024  -3.7024
    -3.6966  -3.6966  -3.6953  -3.6953  -3.6879  -3.6879  -3.6698  -3.6698
    -3.6662  -3.6662  -3.6507  -3.6417  -3.6417  -3.6416  -3.6416  -3.6401
    -3.6401  -3.6098  -3.6098  -3.6097  -3.6096  -3.6096  -3.6054  -3.6012
    -3.6009  -3.6008  -3.5982  -3.5897  -3.5863  -3.5863  -3.5853  -3.5853
    -3.5808  -3.5740  -3.5739  -3.5721  -3.5715  -3.5715  -3.5702  -3.5702
    -3.5572  -3.5568  -3.5568  -3.5493  -3.5493  -3.5461  -3.5451  -3.5451
    -3.5415  -3.5400  -3.5400  -3.5377  -3.5365  -3.5258  -3.4988  -3.4988
    -3.4717  -3.4717  -3.4704  -3.4704  -3.4513  -3.4513  -3.4453  -3.4428
    -3.3744  -3.3744  -3.3335  -3.3335  -3.3276  -3.3276  -3.2934  -3.2908
    -3.2211  -3.2211  -3.1100  -2.8986  -2.6177  -2.4979  -2.4979  -2.1212
    -2.1212  -2.0941  -2.0941  -1.9934  -1.2302  -1.2302  -1.0853  -1.0428
    -1.0198  -1.0198  -0.5683  -0.4660  -0.2986  -0.2986  -0.1600  -0.0726
    -0.0726   0.1935   0.1935   0.2339   0.2339   0.6289   0.6289   0.9864
     0.9864   1.0783   1.0783   1.1851   1.2756   1.5106   1.6356   1.6356
     1.9874   2.0568   2.0568   2.1592   2.1592   2.2926   2.2926   2.5705
     2.5705   2.6538   2.6538   2.7351   2.7351   2.8775   3.6919   3.6919
     3.8910   3.8910   4.0910   4.0910   4.1268   4.1268   4.2856   4.4382
     4.4382   4.7515   4.7746   4.9021   4.9686   4.9686   5.2240   5.2240
     5.4280   5.4280   5.4285   5.4423   5.4423   5.5149   5.5149   5.5638
     5.5638   5.9823   5.9823   6.0174   6.0174   6.3565   6.6543   6.7095
     6.7095   6.7102   6.7102   6.7675   6.7675   7.0271   7.0271   7.1092
     7.1692   7.2442   7.3456   7.3456   7.4863   7.5012   7.5677   7.6787
     7.6787   7.7621   7.7621   7.8017   7.8017   7.8328   7.8328   7.8918
     7.8918   8.0895   8.1096   8.1096   8.1145   8.3234   8.4714   8.5634
     8.5634   8.6918   8.6918   8.7257   8.7257   8.9658   8.9658   8.9701
     8.9701   8.9831   8.9831   9.0392   9.0392   9.1337   9.3043   9.3045
     9.3045   9.3609   9.3609   9.3829   9.5855   9.7108   9.7108   9.7428
     9.8666   9.8666   9.9002   9.9002   9.9063   9.9886   9.9886  10.1209
    10.1219  10.1219  10.2972  10.2972  10.3449  10.3449  10.3599  10.3599
    10.4059  10.4059  10.5035  10.5035  10.5716  10.6035  10.6858  10.6858
    10.7712  10.7712  10.9211  10.9212  11.0219  11.0219  11.1162  11.1162
    11.1683  11.1683  11.4320  11.4320  11.4348  11.4748  11.4748  11.5584

     occupation numbers 
     1.0000   1.0000   1.0000   1.0000   1.0000   1.0000   1.0000   1.0000
     1.0000   1.0000   1.0000   1.0000   1.0000   1.0000   1.0000   1.0000
     1.0000   1.0000   1.0000   1.0000   1.0000   1.0000   1.0000   1.0000
     1.0000   1.0000   1.0000   1.0000   1.0000   1.0000   1.0000   1.0000
     1.0000   1.0000   1.0000   1.0000   1.0000   1.0000   1.0000   1.0000
     1.0000   1.0000   1.0000   1.0000   1.0000   1.0000   1.0000   1.0000
     1.0000   1.0000   1.0000   1.0000   1.0000   1.0000   1.0000   1.0000
     1.0000   1.0000   1.0000   1.0000   1.0000   1.0000   1.0000   1.0000
     1.0000   1.0000   1.0000   1.0000   1.0000   1.0000   1.0000   1.0000
     1.0000   1.0000   1.0000   1.0000   1.0000   1.0000   1.0000   1.0000
     1.0000   1.0000   1.0000   1.0000   1.0000   1.0000   1.0000   1.0000
     1.0000   1.0000   1.0000   1.0000   1.0000   1.0000   1.0000   1.0000
     1.0000   1.0000   1.0000   1.0000   1.0000   1.0000   1.0000   1.0000
     1.0000   1.0000   1.0000   1.0000   1.0000   1.0000   1.0000   1.0000
     1.0000   1.0000   1.0000   1.0000   1.0000   1.0000   1.0000   1.0000
     1.0000   1.0000   1.0000   1.0000   1.0000   1.0000   1.0000   1.0000
     1.0000   1.0000   1.0000   1.0000   1.0000   1.0000   1.0000   1.0000
     1.0000   1.0000   1.0000   1.0000   1.0000   1.0000   1.0000   1.0000
     1.0000   1.0000   1.0000   1.0000   1.0000   1.0000   1.0000   1.0000
     1.0000   1.0000   1.0000   1.0000   1.0000   1.0000   1.0000   1.0000
     1.0000   1.0000   1.0000   1.0000   1.0000   1.0000   1.0000   1.0000
     1.0000   1.0000   1.0000   1.0000   1.0000   1.0000   1.0000   1.0000
     1.0000   1.0000   1.0000   1.0000   1.0000   1.0000   1.0000   1.0000
     1.0000   1.0000   1.0000   1.0000   1.0000   1.0000   1.0000   1.0000
     1.0000   1.0000   1.0000   1.0000   1.0000   1.0000   1.0000   1.0000
     1.0000   1.0000   1.0000   1.0000   1.0000   1.0000   1.0000   1.0000
     1.0000   1.0000   1.0000   1.0000   1.0000   1.0000   1.0000   1.0000
     1.0000   1.0000   1.0000   1.0000   1.0000   1.0000   1.0000   1.0000
     1.0000   1.0000   1.0000   1.0000   1.0000   1.0000   1.0000   1.0000
     1.0000   1.0000   1.0000   1.0000   1.0000   1.0000   1.0000   1.0000
     1.0000   1.0000   1.0000   1.0000   1.0000   1.0000   1.0000   1.0000
     1.0000   1.0000   1.0000   1.0000   1.0000   1.0000   1.0000   1.0000
     1.0000   1.0000   1.0000   1.0000   1.0000   1.0000   1.0000   1.0000
     1.0000   1.0000   1.0000   1.0000   1.0000   1.0000   1.0000   1.0000
     1.0000   1.0000   1.0000   1.0000   1.0000   1.0000   1.0000   1.0000
     1.0000   1.0000   1.0000   1.0000   1.0000   1.0000   1.0000   1.0000
     1.0000   1.0000   1.0000   1.0000   1.0000   1.0000   1.0000   1.0000
     1.0000   1.0000   1.0000   1.0000   1.0000   1.0000   1.0000   1.0000
     1.0000   1.0000   1.0000   1.0000   1.0000   1.0000   1.0000   1.0000
     1.0000   1.0000   1.0000   1.0000   1.0000   1.0000   1.0000   1.0000
     1.0000   1.0000   1.0000   1.0000   1.0000   1.0000   1.0000   1.0000
     1.0000   1.0000   1.0000   1.0000   1.0000   1.0000   1.0000   1.0000
     1.0000   1.0000   1.0000   1.0000   1.0000   1.0000   1.0000   1.0000
     1.0000   1.0000   1.0000   1.0000   1.0000   1.0000   1.0000   1.0000
     1.0000   1.0000   1.0000   1.0000   1.0000   1.0000   1.0000   1.0000
     1.0000   1.0000   1.0000   1.0000   1.0000   1.0000   1.0000   1.0000
     1.0000   1.0000   1.0000   1.0000   1.0000   1.0000   1.0000   1.0000
     1.0000   1.0000   1.0000   1.0000   1.0000   1.0000   1.0000   1.0000
     1.0000   1.0000   1.0000   1.0000   1.0000   1.0000   1.0000   1.0000
     1.0000   1.0000   1.0000   1.0000   1.0000   1.0000   1.0000   1.0000
     1.0000   1.0000   1.0000   1.0000   1.0000   1.0000   1.0000   1.0000
     1.0000   1.0000   1.0000   1.0000   1.0000   1.0000   1.0000   1.0000
     1.0000   1.0000   1.0000   1.0000   1.0000   1.0000   1.0000   1.0000
     1.0000   1.0000   1.0000   1.0000   1.0000   1.0000   1.0000   1.0000
     1.0000   1.0000   1.0000   1.0000   1.0000   1.0000   1.0000   1.0000
     1.0000   1.0000   1.0000   1.0000   1.0000   1.0000   1.0000   1.0000
     1.0000   1.0000   1.0000   1.0000   1.0000   1.0000   1.0000   1.0000
     1.0000   1.0000   1.0000   1.0000   1.0000   1.0000   1.0000   1.0000
     1.0000   1.0000   1.0000   1.0000   1.0000   1.0000   1.0000   1.0000
     1.0000   1.0000   1.0000   1.0000   1.0000   1.0000   1.0000   1.0000
     1.0000   1.0000   1.0000   1.0000   1.0000   1.0000   1.0000   1.0000
     1.0000   1.0000   1.0000   1.0000   1.0000   1.0000   1.0000   1.0000
     1.0000   1.0000   1.0000   1.0000   1.0000   1.0000   1.0000   1.0000
     1.0000   1.0000   1.0000   1.0000   1.0000   1.0000   1.0000   1.0000
     1.0000   1.0000   1.0000   1.0000   1.0000   1.0000   1.0000   1.0000
     1.0000   1.0000   1.0000   1.0000   1.0000   1.0000   1.0000   1.0000
     1.0000   1.0000   1.0000   1.0000   1.0000   1.0000   1.0000   1.0000
     1.0000   1.0000   1.0000   1.0000   1.0000   1.0000   1.0000   1.0000
     1.0000   1.0000   1.0000   1.0000   1.0000   1.0000   1.0000   1.0000
     1.0000   1.0000   1.0000   1.0000   1.0000   1.0000   1.0000   1.0000
     1.0000   1.0000   1.0000   1.0000   1.0000   1.0000   1.0000   1.0000
     1.0000   1.0000   1.0000   1.0000   1.0000   1.0000   1.0000   1.0000
     1.0000   1.0000   1.0000   1.0000   1.0000   1.0000   1.0000   1.0000
     1.0000   1.0000   1.0000   1.0000   1.0000   1.0000   1.0000   1.0000
     1.0000   1.0000   1.0000   1.0000   1.0000   1.0000   1.0000   1.0000
     1.0000   1.0000   1.0000   1.0000   1.0000   1.0000   1.0000   1.0000
     1.0000   1.0000   1.0000   1.0000   1.0000   1.0000   1.0000   1.0000
     1.0000   1.0000   1.0000   1.0000   1.0000   1.0000   1.0000   1.0000
     1.0000   1.0000   1.0000   1.0000   1.0000   1.0000   1.0000   1.0000
     1.0000   1.0000   1.0000   1.0000   1.0000   1.0005   0.5869   0.5869
     0.1455   0.1455   0.0134   0.0134   0.0078   0.0078   0.0005   0.0000
     0.0000   0.0000   0.0000   0.0000   0.0000   0.0000   0.0000   0.0000
     0.0000   0.0000   0.0000   0.0000   0.0000   0.0000   0.0000   0.0000
     0.0000   0.0000   0.0000   0.0000   0.0000   0.0000   0.0000   0.0000
     0.0000   0.0000   0.0000   0.0000   0.0000   0.0000   0.0000   0.0000
     0.0000   0.0000   0.0000   0.0000   0.0000   0.0000   0.0000   0.0000
     0.0000   0.0000   0.0000   0.0000   0.0000   0.0000   0.0000   0.0000
     0.0000   0.0000   0.0000   0.0000   0.0000   0.0000   0.0000   0.0000
     0.0000   0.0000   0.0000   0.0000   0.0000   0.0000   0.0000   0.0000
     0.0000   0.0000   0.0000   0.0000   0.0000   0.0000   0.0000   0.0000
     0.0000   0.0000   0.0000   0.0000   0.0000   0.0000   0.0000   0.0000
     0.0000   0.0000   0.0000   0.0000   0.0000   0.0000   0.0000   0.0000
     0.0000   0.0000   0.0000   0.0000   0.0000   0.0000   0.0000   0.0000
     0.0000   0.0000   0.0000   0.0000   0.0000   0.0000   0.0000   0.0000
     0.0000   0.0000   0.0000   0.0000   0.0000   0.0000   0.0000   0.0000
     0.0000   0.0000   0.0000   0.0000   0.0000   0.0000   0.0000   0.0000

          k = 0.3333 0.1925 0.0000 ( 42150 PWs)   bands (ev):

  -123.3654-123.3625-123.3618-123.3617-123.3613-123.3612-123.3611-123.3610
  -123.3610-123.3609-123.3608-123.3608-123.3607-123.3606-123.3605-123.3605
  -123.3604-123.3603-123.3602-123.3602-123.3601-123.3601-123.3600-123.3599
  -123.3599-123.3598-123.3598-123.3596-123.3595-123.3594-123.3592-123.3591
  -123.1144-123.1140-123.1129-123.1123-123.1123-123.1122-123.1121-123.1120
  -123.1120-123.1119-123.1119-123.1118-123.1118-123.1117-123.1117-123.1116
  -123.1116-123.1115-123.1115-123.1115-123.1114-123.1114-123.1113-123.1112
  -123.1112-123.1112-123.1111-123.1110-123.1108-123.1107-123.1106-123.1105
   -77.4733 -77.4733 -77.4714 -77.4713 -77.4702 -77.4671 -77.4667 -77.4667
   -77.4660 -77.4660 -77.4652 -77.4652 -77.4637 -77.4637 -77.4611 -77.4611
   -77.4563 -77.4563 -77.4549 -77.4530 -77.4527 -77.4522 -77.4515 -77.4515
   -77.4515 -77.4514 -77.4505 -77.4505 -77.4493 -77.4484 -77.4484 -77.4479
   -77.4479 -77.4461 -77.4459 -77.4456 -77.4456 -77.4454 -77.4453 -77.4451
   -77.4451 -77.4448 -77.4448 -77.4447 -77.4447 -77.4446 -77.4446 -77.4444
   -77.4444 -77.4442 -77.4439 -77.4438 -77.4437 -77.4435 -77.4435 -77.4433
   -77.4431 -77.4430 -77.4430 -77.4428 -77.4428 -77.4428 -77.4427 -77.4427
   -77.4414 -77.4413 -77.4407 -77.4391 -77.4391 -77.4383 -77.4383 -77.4381
   -77.4381 -77.4372 -77.4372 -77.4353 -77.4352 -77.4349 -77.4347 -77.4334
   -77.4330 -77.4329 -77.4325 -77.4316 -77.4315 -77.4315 -77.4315 -77.4298
   -77.4297 -77.4290 -77.4287 -77.4286 -77.4282 -77.4259 -77.4258 -77.4240
   -77.2209 -77.2209 -77.2207 -77.2207 -77.2195 -77.2155 -77.2155 -77.2147
   -77.2139 -77.2139 -77.2131 -77.2131 -77.2128 -77.2127 -77.2091 -77.2089
   -77.2089 -77.2081 -77.2081 -77.2077 -77.2075 -77.2068 -77.2066 -77.2065
   -77.2057 -77.2057 -77.2049 -77.2048 -77.2046 -77.2045 -77.2043 -77.2042
   -77.2041 -77.2040 -77.2040 -77.2039 -77.2038 -77.2037 -77.2035 -77.2034
   -77.2033 -77.2030 -77.2029 -77.2028 -77.2023 -77.2023 -77.2020 -77.2020
   -77.2018 -77.2001 -77.2001 -77.2000 -77.1990 -77.1990 -77.1976 -77.1976
   -77.1973 -77.1973 -77.1950 -77.1950 -77.1928 -77.1928 -77.1917 -77.1917
   -77.1889 -77.1889 -77.1873 -77.1873 -77.1872 -77.1872 -77.1866 -77.1866
   -77.1849 -77.1848 -77.1838 -77.1838 -77.1829 -77.1829 -77.1824 -77.1818
   -77.1818 -77.1811 -77.1806 -77.1801 -77.1797 -77.1792 -77.1789 -77.1789
   -77.1787 -77.1787 -77.1786 -77.1783 -77.1783 -77.1773 -77.1765 -77.1745
    -6.7446  -6.1388  -5.8640  -5.5954  -5.5954  -5.3454  -5.1818  -5.1536
    -5.0845  -5.0577  -5.0537  -5.0460  -5.0460  -5.0139  -5.0138  -5.0133
    -5.0132  -4.9770  -4.9729  -4.9729  -4.9107  -4.8889  -4.8811  -4.8811
    -4.8600  -4.8600  -4.8587  -4.8539  -4.8539  -4.8148  -4.8148  -4.7988
    -4.7747  -4.7747  -4.7715  -4.7715  -4.7714  -4.7548  -4.7548  -4.7401
    -4.7401  -4.7303  -4.7303  -4.7186  -4.7186  -4.7128  -4.7127  -4.7127
    -4.7042  -4.7042  -4.6958  -4.6723  -4.6723  -4.6581  -4.6541  -4.6541
    -4.6530  -4.6530  -4.6458  -4.6458  -4.6336  -4.6336  -4.6328  -4.6216
    -4.6216  -4.5989  -4.5989  -4.5786  -4.5786  -4.5785  -4.5785  -4.5634
    -4.5447  -4.5447  -4.5072  -4.5072  -4.5045  -4.5045  -4.5023  -4.4832
    -4.4832  -4.4821  -4.4821  -4.4692  -4.4692  -4.4632  -4.4626  -4.4626
    -4.4566  -4.4566  -4.4154  -4.4154  -4.4151  -4.4151  -4.4129  -4.4122
    -4.4019  -4.4019  -4.3952  -4.3952  -4.3857  -4.3857  -4.3757  -4.3727
    -4.3727  -4.3699  -4.3699  -4.3693  -4.3666  -4.3666  -4.3542  -4.3354
    -4.3321  -4.3024  -4.3024  -4.2930  -4.2930  -4.2920  -4.2843  -4.2843
    -4.2783  -4.2707  -4.2707  -4.2678  -4.2678  -4.2590  -4.2557  -4.2483
    -4.2483  -4.2402  -4.2402  -4.2365  -4.2365  -4.2111  -4.2111  -4.2054
    -4.2021  -4.1679  -4.1679  -4.1617  -4.1617  -4.1530  -4.1530  -4.1412
    -4.1412  -4.1365  -4.1365  -4.1336  -4.1294  -4.1294  -4.1256  -4.1256
    -4.1197  -4.1197  -4.1142  -4.1091  -4.0916  -4.0892  -4.0892  -4.0876
    -4.0847  -4.0800  -4.0751  -4.0751  -4.0742  -4.0742  -4.0449  -4.0431
    -4.0318  -4.0318  -4.0202  -4.0201  -4.0201  -4.0127  -4.0127  -4.0119
    -3.9974  -3.9974  -3.9959  -3.9829  -3.9829  -3.9742  -3.9742  -3.9671
    -3.9671  -3.9532  -3.9532  -3.9465  -3.9465  -3.9456  -3.9274  -3.9274
    -3.9261  -3.9235  -3.9235  -3.9206  -3.9206  -3.9093  -3.9093  -3.9085
    -3.9085  -3.9004  -3.9004  -3.8968  -3.8968  -3.8857  -3.8778  -3.8778
    -3.8750  -3.8742  -3.8725  -3.8725  -3.8672  -3.8671  -3.8667  -3.8667
    -3.8526  -3.8481  -3.8481  -3.8475  -3.8424  -3.8424  -3.8304  -3.8290
    -3.8179  -3.8179  -3.8009  -3.8009  -3.7877  -3.7877  -3.7831  -3.7831
    -3.7624  -3.7624  -3.7565  -3.7477  -3.7447  -3.7405  -3.7405  -3.7375
    -3.7375  -3.7299  -3.7299  -3.7289  -3.7249  -3.7200  -3.7200  -3.7157
    -3.7157  -3.7124  -3.7110  -3.7110  -3.7095  -3.7095  -3.7024  -3.7024
    -3.6966  -3.6966  -3.6953  -3.6953  -3.6879  -3.6879  -3.6698  -3.6698
    -3.6662  -3.6661  -3.6507  -3.6417  -3.6417  -3.6416  -3.6416  -3.6401
    -3.6401  -3.6098  -3.6098  -3.6097  -3.6096  -3.6096  -3.6054  -3.6012
    -3.6009  -3.6008  -3.5982  -3.5897  -3.5863  -3.5863  -3.5853  -3.5853
    -3.5808  -3.5740  -3.5739  -3.5721  -3.5715  -3.5715  -3.5702  -3.5702
    -3.5572  -3.5568  -3.5568  -3.5493  -3.5493  -3.5461  -3.5451  -3.5451
    -3.5415  -3.5400  -3.5400  -3.5377  -3.5365  -3.5258  -3.4988  -3.4988
    -3.4717  -3.4717  -3.4704  -3.4704  -3.4513  -3.4513  -3.4453  -3.4428
    -3.3744  -3.3744  -3.3335  -3.3335  -3.3276  -3.3276  -3.2934  -3.2908
    -3.2211  -3.2211  -3.1100  -2.8986  -2.6177  -2.4979  -2.4979  -2.1212
    -2.1212  -2.0941  -2.0941  -1.9934  -1.2302  -1.2302  -1.0853  -1.0428
    -1.0198  -1.0198  -0.5683  -0.4660  -0.2986  -0.2986  -0.1600  -0.0726
    -0.0726   0.1935   0.1935   0.2339   0.2339   0.6289   0.6289   0.9864
     0.9864   1.0783   1.0783   1.1851   1.2756   1.5106   1.6356   1.6356
     1.9874   2.0568   2.0568   2.1592   2.1592   2.2926   2.2926   2.5705
     2.5705   2.6538   2.6538   2.7351   2.7351   2.8775   3.6919   3.6919
     3.8910   3.8910   4.0910   4.0910   4.1268   4.1268   4.2856   4.4382
     4.4382   4.7515   4.7746   4.9021   4.9686   4.9686   5.2240   5.2240
     5.4280   5.4280   5.4285   5.4423   5.4423   5.5149   5.5149   5.5638
     5.5638   5.9823   5.9823   6.0174   6.0174   6.3565   6.6543   6.7095
     6.7095   6.7102   6.7102   6.7675   6.7675   7.0271   7.0271   7.1092
     7.1692   7.2442   7.3456   7.3456   7.4863   7.5012   7.5677   7.6787
     7.6787   7.7621   7.7621   7.8017   7.8017   7.8328   7.8328   7.8918
     7.8918   8.0895   8.1096   8.1096   8.1145   8.3234   8.4714   8.5634
     8.5634   8.6918   8.6918   8.7257   8.7257   8.9658   8.9658   8.9701
     8.9701   8.9831   8.9831   9.0392   9.0392   9.1337   9.3043   9.3045
     9.3045   9.3609   9.3609   9.3829   9.5855   9.7108   9.7108   9.7428
     9.8666   9.8666   9.9002   9.9002   9.9063   9.9886   9.9886  10.1209
    10.1219  10.1219  10.2972  10.2972  10.3449  10.3449  10.3599  10.3599
    10.4059  10.4059  10.5035  10.5035  10.5716  10.6035  10.6858  10.6858
    10.7712  10.7712  10.9211  10.9212  11.0219  11.0219  11.1162  11.1162
    11.1683  11.1683  11.4320  11.4320  11.4348  11.4748  11.4748  11.5584

     occupation numbers 
     1.0000   1.0000   1.0000   1.0000   1.0000   1.0000   1.0000   1.0000
     1.0000   1.0000   1.0000   1.0000   1.0000   1.0000   1.0000   1.0000
     1.0000   1.0000   1.0000   1.0000   1.0000   1.0000   1.0000   1.0000
     1.0000   1.0000   1.0000   1.0000   1.0000   1.0000   1.0000   1.0000
     1.0000   1.0000   1.0000   1.0000   1.0000   1.0000   1.0000   1.0000
     1.0000   1.0000   1.0000   1.0000   1.0000   1.0000   1.0000   1.0000
     1.0000   1.0000   1.0000   1.0000   1.0000   1.0000   1.0000   1.0000
     1.0000   1.0000   1.0000   1.0000   1.0000   1.0000   1.0000   1.0000
     1.0000   1.0000   1.0000   1.0000   1.0000   1.0000   1.0000   1.0000
     1.0000   1.0000   1.0000   1.0000   1.0000   1.0000   1.0000   1.0000
     1.0000   1.0000   1.0000   1.0000   1.0000   1.0000   1.0000   1.0000
     1.0000   1.0000   1.0000   1.0000   1.0000   1.0000   1.0000   1.0000
     1.0000   1.0000   1.0000   1.0000   1.0000   1.0000   1.0000   1.0000
     1.0000   1.0000   1.0000   1.0000   1.0000   1.0000   1.0000   1.0000
     1.0000   1.0000   1.0000   1.0000   1.0000   1.0000   1.0000   1.0000
     1.0000   1.0000   1.0000   1.0000   1.0000   1.0000   1.0000   1.0000
     1.0000   1.0000   1.0000   1.0000   1.0000   1.0000   1.0000   1.0000
     1.0000   1.0000   1.0000   1.0000   1.0000   1.0000   1.0000   1.0000
     1.0000   1.0000   1.0000   1.0000   1.0000   1.0000   1.0000   1.0000
     1.0000   1.0000   1.0000   1.0000   1.0000   1.0000   1.0000   1.0000
     1.0000   1.0000   1.0000   1.0000   1.0000   1.0000   1.0000   1.0000
     1.0000   1.0000   1.0000   1.0000   1.0000   1.0000   1.0000   1.0000
     1.0000   1.0000   1.0000   1.0000   1.0000   1.0000   1.0000   1.0000
     1.0000   1.0000   1.0000   1.0000   1.0000   1.0000   1.0000   1.0000
     1.0000   1.0000   1.0000   1.0000   1.0000   1.0000   1.0000   1.0000
     1.0000   1.0000   1.0000   1.0000   1.0000   1.0000   1.0000   1.0000
     1.0000   1.0000   1.0000   1.0000   1.0000   1.0000   1.0000   1.0000
     1.0000   1.0000   1.0000   1.0000   1.0000   1.0000   1.0000   1.0000
     1.0000   1.0000   1.0000   1.0000   1.0000   1.0000   1.0000   1.0000
     1.0000   1.0000   1.0000   1.0000   1.0000   1.0000   1.0000   1.0000
     1.0000   1.0000   1.0000   1.0000   1.0000   1.0000   1.0000   1.0000
     1.0000   1.0000   1.0000   1.0000   1.0000   1.0000   1.0000   1.0000
     1.0000   1.0000   1.0000   1.0000   1.0000   1.0000   1.0000   1.0000
     1.0000   1.0000   1.0000   1.0000   1.0000   1.0000   1.0000   1.0000
     1.0000   1.0000   1.0000   1.0000   1.0000   1.0000   1.0000   1.0000
     1.0000   1.0000   1.0000   1.0000   1.0000   1.0000   1.0000   1.0000
     1.0000   1.0000   1.0000   1.0000   1.0000   1.0000   1.0000   1.0000
     1.0000   1.0000   1.0000   1.0000   1.0000   1.0000   1.0000   1.0000
     1.0000   1.0000   1.0000   1.0000   1.0000   1.0000   1.0000   1.0000
     1.0000   1.0000   1.0000   1.0000   1.0000   1.0000   1.0000   1.0000
     1.0000   1.0000   1.0000   1.0000   1.0000   1.0000   1.0000   1.0000
     1.0000   1.0000   1.0000   1.0000   1.0000   1.0000   1.0000   1.0000
     1.0000   1.0000   1.0000   1.0000   1.0000   1.0000   1.0000   1.0000
     1.0000   1.0000   1.0000   1.0000   1.0000   1.0000   1.0000   1.0000
     1.0000   1.0000   1.0000   1.0000   1.0000   1.0000   1.0000   1.0000
     1.0000   1.0000   1.0000   1.0000   1.0000   1.0000   1.0000   1.0000
     1.0000   1.0000   1.0000   1.0000   1.0000   1.0000   1.0000   1.0000
     1.0000   1.0000   1.0000   1.0000   1.0000   1.0000   1.0000   1.0000
     1.0000   1.0000   1.0000   1.0000   1.0000   1.0000   1.0000   1.0000
     1.0000   1.0000   1.0000   1.0000   1.0000   1.0000   1.0000   1.0000
     1.0000   1.0000   1.0000   1.0000   1.0000   1.0000   1.0000   1.0000
     1.0000   1.0000   1.0000   1.0000   1.0000   1.0000   1.0000   1.0000
     1.0000   1.0000   1.0000   1.0000   1.0000   1.0000   1.0000   1.0000
     1.0000   1.0000   1.0000   1.0000   1.0000   1.0000   1.0000   1.0000
     1.0000   1.0000   1.0000   1.0000   1.0000   1.0000   1.0000   1.0000
     1.0000   1.0000   1.0000   1.0000   1.0000   1.0000   1.0000   1.0000
     1.0000   1.0000   1.0000   1.0000   1.0000   1.0000   1.0000   1.0000
     1.0000   1.0000   1.0000   1.0000   1.0000   1.0000   1.0000   1.0000
     1.0000   1.0000   1.0000   1.0000   1.0000   1.0000   1.0000   1.0000
     1.0000   1.0000   1.0000   1.0000   1.0000   1.0000   1.0000   1.0000
     1.0000   1.0000   1.0000   1.0000   1.0000   1.0000   1.0000   1.0000
     1.0000   1.0000   1.0000   1.0000   1.0000   1.0000   1.0000   1.0000
     1.0000   1.0000   1.0000   1.0000   1.0000   1.0000   1.0000   1.0000
     1.0000   1.0000   1.0000   1.0000   1.0000   1.0000   1.0000   1.0000
     1.0000   1.0000   1.0000   1.0000   1.0000   1.0000   1.0000   1.0000
     1.0000   1.0000   1.0000   1.0000   1.0000   1.0000   1.0000   1.0000
     1.0000   1.0000   1.0000   1.0000   1.0000   1.0000   1.0000   1.0000
     1.0000   1.0000   1.0000   1.0000   1.0000   1.0000   1.0000   1.0000
     1.0000   1.0000   1.0000   1.0000   1.0000   1.0000   1.0000   1.0000
     1.0000   1.0000   1.0000   1.0000   1.0000   1.0000   1.0000   1.0000
     1.0000   1.0000   1.0000   1.0000   1.0000   1.0000   1.0000   1.0000
     1.0000   1.0000   1.0000   1.0000   1.0000   1.0000   1.0000   1.0000
     1.0000   1.0000   1.0000   1.0000   1.0000   1.0000   1.0000   1.0000
     1.0000   1.0000   1.0000   1.0000   1.0000   1.0000   1.0000   1.0000
     1.0000   1.0000   1.0000   1.0000   1.0000   1.0000   1.0000   1.0000
     1.0000   1.0000   1.0000   1.0000   1.0000   1.0000   1.0000   1.0000
     1.0000   1.0000   1.0000   1.0000   1.0000   1.0000   1.0000   1.0000
     1.0000   1.0000   1.0000   1.0000   1.0000   1.0000   1.0000   1.0000
     1.0000   1.0000   1.0000   1.0000   1.0000   1.0000   1.0000   1.0000
     1.0000   1.0000   1.0000   1.0000   1.0000   1.0005   0.5869   0.5869
     0.1455   0.1455   0.0134   0.0134   0.0078   0.0078   0.0005   0.0000
     0.0000   0.0000   0.0000   0.0000   0.0000   0.0000   0.0000   0.0000
     0.0000   0.0000   0.0000   0.0000   0.0000   0.0000   0.0000   0.0000
     0.0000   0.0000   0.0000   0.0000   0.0000   0.0000   0.0000   0.0000
     0.0000   0.0000   0.0000   0.0000   0.0000   0.0000   0.0000   0.0000
     0.0000   0.0000   0.0000   0.0000   0.0000   0.0000   0.0000   0.0000
     0.0000   0.0000   0.0000   0.0000   0.0000   0.0000   0.0000   0.0000
     0.0000   0.0000   0.0000   0.0000   0.0000   0.0000   0.0000   0.0000
     0.0000   0.0000   0.0000   0.0000   0.0000   0.0000   0.0000   0.0000
     0.0000   0.0000   0.0000   0.0000   0.0000   0.0000   0.0000   0.0000
     0.0000   0.0000   0.0000   0.0000   0.0000   0.0000   0.0000   0.0000
     0.0000   0.0000   0.0000   0.0000   0.0000   0.0000   0.0000   0.0000
     0.0000   0.0000   0.0000   0.0000   0.0000   0.0000   0.0000   0.0000
     0.0000   0.0000   0.0000   0.0000   0.0000   0.0000   0.0000   0.0000
     0.0000   0.0000   0.0000   0.0000   0.0000   0.0000   0.0000   0.0000
     0.0000   0.0000   0.0000   0.0000   0.0000   0.0000   0.0000   0.0000

          k = 0.3333 0.5774 0.0000 ( 42123 PWs)   bands (ev):

  -123.3632-123.3629-123.3626-123.3615-123.3615-123.3613-123.3612-123.3612
  -123.3611-123.3610-123.3609-123.3608-123.3607-123.3607-123.3606-123.3606
  -123.3605-123.3604-123.3604-123.3603-123.3603-123.3602-123.3601-123.3599
  -123.3596-123.3596-123.3593-123.3593-123.3591-123.3591-123.3588-123.3588
  -123.1132-123.1130-123.1129-123.1128-123.1127-123.1126-123.1124-123.1124
  -123.1124-123.1123-123.1121-123.1121-123.1117-123.1117-123.1116-123.1115
  -123.1115-123.1114-123.1114-123.1113-123.1113-123.1112-123.1112-123.1111
  -123.1110-123.1109-123.1108-123.1108-123.1107-123.1107-123.1103-123.1103
   -77.4699 -77.4698 -77.4698 -77.4686 -77.4684 -77.4684 -77.4625 -77.4625
   -77.4624 -77.4623 -77.4623 -77.4622 -77.4607 -77.4606 -77.4606 -77.4605
   -77.4604 -77.4604 -77.4567 -77.4553 -77.4552 -77.4535 -77.4521 -77.4517
   -77.4515 -77.4501 -77.4501 -77.4500 -77.4495 -77.4495 -77.4494 -77.4490
   -77.4488 -77.4488 -77.4480 -77.4479 -77.4479 -77.4470 -77.4467 -77.4465
   -77.4457 -77.4457 -77.4456 -77.4455 -77.4454 -77.4453 -77.4439 -77.4438
   -77.4437 -77.4437 -77.4436 -77.4435 -77.4433 -77.4432 -77.4432 -77.4431
   -77.4431 -77.4430 -77.4429 -77.4428 -77.4428 -77.4425 -77.4424 -77.4422
   -77.4413 -77.4413 -77.4378 -77.4378 -77.4377 -77.4377 -77.4376 -77.4375
   -77.4374 -77.4373 -77.4372 -77.4364 -77.4363 -77.4363 -77.4362 -77.4360
   -77.4359 -77.4315 -77.4314 -77.4313 -77.4312 -77.4311 -77.4310 -77.4309
   -77.4308 -77.4306 -77.4257 -77.4256 -77.4254 -77.4240 -77.4239 -77.4237
   -77.2183 -77.2182 -77.2181 -77.2171 -77.2170 -77.2170 -77.2105 -77.2104
   -77.2104 -77.2103 -77.2102 -77.2102 -77.2096 -77.2096 -77.2096 -77.2096
   -77.2095 -77.2095 -77.2094 -77.2093 -77.2093 -77.2081 -77.2079 -77.2077
   -77.2062 -77.2060 -77.2058 -77.2051 -77.2049 -77.2048 -77.2048 -77.2047
   -77.2046 -77.2046 -77.2042 -77.2041 -77.2041 -77.2041 -77.2041 -77.2040
   -77.2040 -77.2039 -77.2019 -77.2018 -77.2018 -77.2017 -77.2016 -77.2016
   -77.2016 -77.2008 -77.2007 -77.2007 -77.1998 -77.1997 -77.1981 -77.1980
   -77.1980 -77.1965 -77.1965 -77.1964 -77.1926 -77.1926 -77.1926 -77.1916
   -77.1916 -77.1916 -77.1881 -77.1881 -77.1881 -77.1846 -77.1846 -77.1846
   -77.1842 -77.1841 -77.1840 -77.1840 -77.1839 -77.1839 -77.1824 -77.1823
   -77.1822 -77.1816 -77.1816 -77.1815 -77.1815 -77.1814 -77.1814 -77.1813
   -77.1813 -77.1812 -77.1741 -77.1740 -77.1739 -77.1732 -77.1731 -77.1730
    -6.3335  -6.3333  -6.3330  -5.5002  -5.5000  -5.4998  -4.9898  -4.9898
    -4.9898  -4.9897  -4.9897  -4.9897  -4.9765  -4.9762  -4.9760  -4.9508
    -4.9507  -4.9507  -4.9507  -4.9506  -4.9506  -4.9442  -4.9440  -4.9438
    -4.9224  -4.9224  -4.9224  -4.8891  -4.8890  -4.8889  -4.8477  -4.8476
    -4.8476  -4.8127  -4.8127  -4.8126  -4.8125  -4.8124  -4.8123  -4.7947
    -4.7947  -4.7946  -4.6770  -4.6769  -4.6769  -4.6768  -4.6767  -4.6767
    -4.6718  -4.6718  -4.6718  -4.6417  -4.6417  -4.6417  -4.6415  -4.6415
    -4.6414  -4.6339  -4.6339  -4.6339  -4.6258  -4.6103  -4.6103  -4.6103
    -4.6074  -4.6074  -4.6073  -4.5788  -4.5788  -4.5788  -4.5787  -4.5787
    -4.5786  -4.5664  -4.5663  -4.5663  -4.5551  -4.5551  -4.5551  -4.5396
    -4.5396  -4.5190  -4.5190  -4.5189  -4.4760  -4.4758  -4.4757  -4.4589
    -4.4589  -4.4589  -4.4423  -4.4423  -4.4423  -4.4350  -4.4162  -4.4162
    -4.4050  -4.4030  -4.4030  -4.4029  -4.3957  -4.3956  -4.3956  -4.3928
    -4.3928  -4.3927  -4.3927  -4.3926  -4.3926  -4.3790  -4.3789  -4.3788
    -4.3261  -4.3260  -4.3259  -4.2749  -4.2749  -4.2749  -4.2437  -4.2437
    -4.2437  -4.2431  -4.2431  -4.2431  -4.2345  -4.2345  -4.2345  -4.2264
    -4.2264  -4.2263  -4.2262  -4.2262  -4.2261  -4.1959  -4.1959  -4.1902
    -4.1902  -4.1901  -4.1832  -4.1832  -4.1832  -4.1674  -4.1672  -4.1671
    -4.1671  -4.1671  -4.1670  -4.1430  -4.1429  -4.1427  -4.1299  -4.1298
    -4.1297  -4.1123  -4.1030  -4.1029  -4.1029  -4.0886  -4.0886  -4.0885
    -4.0884  -4.0883  -4.0882  -4.0843  -4.0843  -4.0842  -4.0823  -4.0823
    -4.0823  -4.0575  -4.0575  -4.0574  -4.0573  -4.0573  -4.0572  -4.0228
    -4.0228  -4.0228  -4.0039  -4.0015  -4.0014  -3.9996  -3.9421  -3.9420
    -3.9419  -3.9221  -3.9221  -3.9220  -3.9163  -3.9144  -3.9143  -3.9142
    -3.9005  -3.9004  -3.9003  -3.9002  -3.9001  -3.9001  -3.8990  -3.8990
    -3.8989  -3.8907  -3.8906  -3.8905  -3.8721  -3.8720  -3.8719  -3.8609
    -3.8609  -3.8609  -3.8427  -3.8427  -3.8427  -3.8426  -3.8426  -3.8426
    -3.8413  -3.8412  -3.8411  -3.8317  -3.8185  -3.8185  -3.8184  -3.8183
    -3.8183  -3.8182  -3.8104  -3.8103  -3.8102  -3.7485  -3.7484  -3.7482
    -3.7392  -3.7391  -3.7390  -3.7184  -3.7184  -3.7184  -3.7025  -3.7024
    -3.7024  -3.7024  -3.7024  -3.7023  -3.6970  -3.6969  -3.6960  -3.6960
    -3.6959  -3.6867  -3.6866  -3.6865  -3.6844  -3.6843  -3.6842  -3.6787
    -3.6787  -3.6787  -3.6787  -3.6786  -3.6786  -3.6715  -3.6715  -3.6715
    -3.6460  -3.6460  -3.6460  -3.6459  -3.6459  -3.6459  -3.6279  -3.6279
    -3.6279  -3.6278  -3.6278  -3.6277  -3.6143  -3.6143  -3.6143  -3.6018
    -3.6018  -3.5987  -3.5986  -3.5986  -3.5967  -3.5967  -3.5967  -3.5920
    -3.5919  -3.5918  -3.5917  -3.5917  -3.5916  -3.5834  -3.5834  -3.5834
    -3.5746  -3.5745  -3.5744  -3.5609  -3.5608  -3.5607  -3.5599  -3.5598
    -3.5598  -3.5423  -3.5422  -3.5421  -3.5164  -3.5164  -3.5163  -3.5047
    -3.5047  -3.5047  -3.4202  -3.4202  -3.4201  -3.4201  -3.4200  -3.4200
    -3.4059  -3.4058  -3.4058  -3.4057  -3.4056  -3.4056  -3.2319  -3.2319
    -3.2319  -2.7723  -2.7722  -2.7721  -2.6051  -2.6051  -2.6051  -1.8324
    -1.8323  -1.8322  -1.8321  -1.8321  -1.8320  -1.1839  -1.1839  -1.1839
    -0.9183  -0.9183  -0.9183  -0.9181  -0.9181  -0.9180  -0.7281  -0.7279
    -0.7277   0.5636   0.5637   0.5637   0.5638   0.5638   0.5639   0.8223
     0.8223   0.8223   1.7273   1.7274   1.7276   1.7314   1.7315   1.7316
     2.1365   2.1366   2.1367   2.4445   2.4446   2.4446   2.4448   2.4448
     2.4449   2.6914   2.6914   2.6915   2.8906   2.8907   2.8908   3.8959
     3.8959   3.9081   3.9081   3.9081   4.0131   4.6969   4.6971   4.6973
     4.7695   4.7696   4.7696   4.8147   4.8147   4.9811   4.9812   4.9812
     5.0379   5.8110   5.8110   5.8111   5.8112   5.8112   5.8113   6.0775
     6.0775   6.0775   6.0775   6.0776   6.0776   6.1431   6.1432   6.1433
     6.4416   6.5258   6.5258   6.5258   6.7054   6.7055   6.8818   6.8819
     6.8820   6.9671   6.9671   6.9671   6.9671   6.9671   6.9671   7.0477
     7.0478   7.0479   7.8885   7.8886   7.8886   7.9103   7.9103   7.9104
     7.9197   8.2190   8.2190   8.2190   8.2191   8.2191   8.2192   8.5340
     8.5340   8.5340   8.5340   8.5340   8.5340   8.5862   8.5862   8.8059
     8.8059   8.8059   8.9467   8.9468   8.9469   9.5110   9.5110   9.5110
     9.5406   9.5406   9.5407   9.6909   9.6909   9.6909   9.7062   9.7062
     9.7063   9.7371   9.7371   9.7371  10.3984  10.3985  10.3985  10.3985
    10.3985  10.3985  10.4145  10.4145  10.4146  10.5171  10.5171  10.5171
    10.7887  10.7888  10.7888  10.7888  10.7888  10.7888  10.9384  10.9384
    11.2777  11.2777  11.2777  11.3678  11.3678  11.3678  11.4676  11.4677
    11.4677  11.5431  11.5432  11.5433  11.5433  11.5434  11.5434  11.5922

     occupation numbers 
     1.0000   1.0000   1.0000   1.0000   1.0000   1.0000   1.0000   1.0000
     1.0000   1.0000   1.0000   1.0000   1.0000   1.0000   1.0000   1.0000
     1.0000   1.0000   1.0000   1.0000   1.0000   1.0000   1.0000   1.0000
     1.0000   1.0000   1.0000   1.0000   1.0000   1.0000   1.0000   1.0000
     1.0000   1.0000   1.0000   1.0000   1.0000   1.0000   1.0000   1.0000
     1.0000   1.0000   1.0000   1.0000   1.0000   1.0000   1.0000   1.0000
     1.0000   1.0000   1.0000   1.0000   1.0000   1.0000   1.0000   1.0000
     1.0000   1.0000   1.0000   1.0000   1.0000   1.0000   1.0000   1.0000
     1.0000   1.0000   1.0000   1.0000   1.0000   1.0000   1.0000   1.0000
     1.0000   1.0000   1.0000   1.0000   1.0000   1.0000   1.0000   1.0000
     1.0000   1.0000   1.0000   1.0000   1.0000   1.0000   1.0000   1.0000
     1.0000   1.0000   1.0000   1.0000   1.0000   1.0000   1.0000   1.0000
     1.0000   1.0000   1.0000   1.0000   1.0000   1.0000   1.0000   1.0000
     1.0000   1.0000   1.0000   1.0000   1.0000   1.0000   1.0000   1.0000
     1.0000   1.0000   1.0000   1.0000   1.0000   1.0000   1.0000   1.0000
     1.0000   1.0000   1.0000   1.0000   1.0000   1.0000   1.0000   1.0000
     1.0000   1.0000   1.0000   1.0000   1.0000   1.0000   1.0000   1.0000
     1.0000   1.0000   1.0000   1.0000   1.0000   1.0000   1.0000   1.0000
     1.0000   1.0000   1.0000   1.0000   1.0000   1.0000   1.0000   1.0000
     1.0000   1.0000   1.0000   1.0000   1.0000   1.0000   1.0000   1.0000
     1.0000   1.0000   1.0000   1.0000   1.0000   1.0000   1.0000   1.0000
     1.0000   1.0000   1.0000   1.0000   1.0000   1.0000   1.0000   1.0000
     1.0000   1.0000   1.0000   1.0000   1.0000   1.0000   1.0000   1.0000
     1.0000   1.0000   1.0000   1.0000   1.0000   1.0000   1.0000   1.0000
     1.0000   1.0000   1.0000   1.0000   1.0000   1.0000   1.0000   1.0000
     1.0000   1.0000   1.0000   1.0000   1.0000   1.0000   1.0000   1.0000
     1.0000   1.0000   1.0000   1.0000   1.0000   1.0000   1.0000   1.0000
     1.0000   1.0000   1.0000   1.0000   1.0000   1.0000   1.0000   1.0000
     1.0000   1.0000   1.0000   1.0000   1.0000   1.0000   1.0000   1.0000
     1.0000   1.0000   1.0000   1.0000   1.0000   1.0000   1.0000   1.0000
     1.0000   1.0000   1.0000   1.0000   1.0000   1.0000   1.0000   1.0000
     1.0000   1.0000   1.0000   1.0000   1.0000   1.0000   1.0000   1.0000
     1.0000   1.0000   1.0000   1.0000   1.0000   1.0000   1.0000   1.0000
     1.0000   1.0000   1.0000   1.0000   1.0000   1.0000   1.0000   1.0000
     1.0000   1.0000   1.0000   1.0000   1.0000   1.0000   1.0000   1.0000
     1.0000   1.0000   1.0000   1.0000   1.0000   1.0000   1.0000   1.0000
     1.0000   1.0000   1.0000   1.0000   1.0000   1.0000   1.0000   1.0000
     1.0000   1.0000   1.0000   1.0000   1.0000   1.0000   1.0000   1.0000
     1.0000   1.0000   1.0000   1.0000   1.0000   1.0000   1.0000   1.0000
     1.0000   1.0000   1.0000   1.0000   1.0000   1.0000   1.0000   1.0000
     1.0000   1.0000   1.0000   1.0000   1.0000   1.0000   1.0000   1.0000
     1.0000   1.0000   1.0000   1.0000   1.0000   1.0000   1.0000   1.0000
     1.0000   1.0000   1.0000   1.0000   1.0000   1.0000   1.0000   1.0000
[...]
     atom   37 type  1   force =     0.00000000    0.00000000    0.00000000
     atom   38 type  1   force =     0.00000000    0.00000000    0.00000000
     atom   39 type  1   force =     0.00000000    0.00000000    0.00000000
     atom   40 type  1   force =     0.00000000    0.00000000    0.00000000
     atom   41 type  1   force =     0.00000000    0.00000000    0.00000000
     atom   42 type  1   force =     0.00000000    0.00000000    0.00000000
     atom   43 type  1   force =     0.00000000    0.00000000    0.00000000
     atom   44 type  1   force =     0.00000000    0.00000000    0.00000000
     atom   45 type  1   force =     0.00000000    0.00000000    0.00000000
     atom   46 type  1   force =     0.00000000    0.00000000    0.00000000
     atom   47 type  1   force =     0.00000000    0.00000000    0.00000000
     atom   48 type  1   force =     0.00000000    0.00000000    0.00000000
     atom   49 type  1   force =     0.00000000    0.00000000    0.00000000
     atom   50 type  1   force =     0.00000000    0.00000000    0.00000000
     atom   51 type  1   force =     0.00000000    0.00000000    0.00000000
     atom   52 type  1   force =     0.00000000    0.00000000    0.00000000
     atom   53 type  1   force =     0.00000000    0.00000000    0.00000000
     atom   54 type  1   force =     0.00000000    0.00000000    0.00000000
     atom   55 type  1   force =     0.00000000    0.00000000    0.00000000
     atom   56 type  1   force =     0.00000000    0.00000000    0.00000000
     atom   57 type  1   force =     0.00000000    0.00000000    0.00000000
     atom   58 type  1   force =     0.00000000    0.00000000    0.00000000
     atom   59 type  1   force =     0.00000000    0.00000000    0.00000000
     atom   60 type  1   force =     0.00000000    0.00000000    0.00000000
     atom   61 type  1   force =     0.00000000    0.00000000    0.00000000
     atom   62 type  1   force =     0.00000000    0.00000000    0.00000000
     atom   63 type  1   force =     0.00000000    0.00000000    0.00000000
     atom   64 type  1   force =     0.00000000    0.00000000    0.00000000
     The SCF correction term to forces
     atom    1 type  1   force =    -0.00000000   -0.00000000    0.00000000
     atom    2 type  1   force =     0.00000000    0.00000000    0.00000000
     atom    3 type  1   force =     0.00000837    0.00000349    0.00003967
     atom    4 type  1   force =    -0.00001142    0.00000136   -0.00000584
     atom    5 type  1   force =    -0.00000000    0.00000000    0.00000000
     atom    6 type  1   force =     0.00000000   -0.00000000    0.00000000
     atom    7 type  1   force =     0.00005948   -0.00002912    0.00003328
     atom    8 type  1   force =    -0.00005595    0.00002024    0.00000971
     atom    9 type  1   force =    -0.00000000   -0.00000000    0.00000000
     atom   10 type  1   force =     0.00000000    0.00000000    0.00000000
     atom   11 type  1   force =    -0.00000040    0.00000432    0.00001546
     atom   12 type  1   force =    -0.00000235   -0.00000739    0.00002103
     atom   13 type  1   force =     0.00000000   -0.00000000    0.00000000
     atom   14 type  1   force =    -0.00000000    0.00000000    0.00000000
     atom   15 type  1   force =    -0.00004073    0.00003777    0.00002760
     atom   16 type  1   force =     0.00005132   -0.00002400    0.00000678
     atom   17 type  1   force =     0.00000000   -0.00000000    0.00000000
     atom   18 type  1   force =    -0.00000000   -0.00000000    0.00000000
     atom   19 type  1   force =    -0.00005991    0.00002543    0.00002757
     atom   20 type  1   force =     0.00006022   -0.00002911    0.00001451
     atom   21 type  1   force =     0.00000000    0.00000000    0.00000000
     atom   22 type  1   force =    -0.00000000   -0.00000000    0.00000000
     atom   23 type  1   force =    -0.00000518   -0.00001231    0.00003854
     atom   24 type  1   force =     0.00000249    0.00000729   -0.00000066
     atom   25 type  1   force =    -0.00000000    0.00000000    0.00000000
     atom   26 type  1   force =     0.00000000   -0.00000000    0.00000000
     atom   27 type  1   force =     0.00004105   -0.00004033    0.00002566
     atom   28 type  1   force =    -0.00003813    0.00002845    0.00001104
     atom   29 type  1   force =     0.00000000    0.00000000    0.00000000
     atom   30 type  1   force =    -0.00000000   -0.00000000    0.00000000
     atom   31 type  1   force =    -0.00001885    0.00000324    0.00001101
     atom   32 type  1   force =     0.00000556    0.00001141    0.00002451
     atom   33 type  1   force =    -0.00000000    0.00000000   -0.00000000
     atom   34 type  1   force =     0.00000000   -0.00000000   -0.00000000
     atom   35 type  1   force =    -0.00002915    0.00002191   -0.00001830
     atom   36 type  1   force =     0.00004191   -0.00001920    0.00001019
     atom   37 type  1   force =     0.00000000   -0.00000000    0.00000000
     atom   38 type  1   force =    -0.00000000    0.00000000   -0.00000000
     atom   39 type  1   force =     0.00002545   -0.00001162   -0.00002776
     atom   40 type  1   force =    -0.00002861    0.00001824    0.00002337
     atom   41 type  1   force =     0.00000000   -0.00000000   -0.00000000
     atom   42 type  1   force =    -0.00000000    0.00000000   -0.00000000
     atom   43 type  1   force =     0.00003343   -0.00002400    0.00001049
     atom   44 type  1   force =    -0.00003154    0.00001439   -0.00000575
     atom   45 type  1   force =    -0.00000000    0.00000000   -0.00000000
     atom   46 type  1   force =     0.00000000   -0.00000000   -0.00000000
     atom   47 type  1   force =    -0.00002771    0.00001488    0.00001980
     atom   48 type  1   force =     0.00002483   -0.00001027   -0.00001780
     atom   49 type  1   force =    -0.00000000    0.00000000   -0.00000000
     atom   50 type  1   force =     0.00000000   -0.00000000   -0.00000000
     atom   51 type  1   force =    -0.00005310    0.00000641    0.00001745
     atom   52 type  1   force =     0.00004105    0.00000008   -0.00002555
     atom   53 type  1   force =    -0.00000000    0.00000000   -0.00000000
     atom   54 type  1   force =     0.00000000   -0.00000000   -0.00000000
     atom   55 type  1   force =    -0.00005478    0.00000651   -0.00001605
     atom   56 type  1   force =     0.00005794   -0.00000787    0.00001048
     atom   57 type  1   force =     0.00000000   -0.00000000   -0.00000000
     atom   58 type  1   force =    -0.00000000    0.00000000   -0.00000000
     atom   59 type  1   force =     0.00000240   -0.00003228   -0.00001998
     atom   60 type  1   force =    -0.00000470    0.00002593    0.00002468
     atom   61 type  1   force =     0.00000000   -0.00000000   -0.00000000
     atom   62 type  1   force =    -0.00000000    0.00000000   -0.00000000
     atom   63 type  1   force =     0.00001340   -0.00003325    0.00001315
     atom   64 type  1   force =    -0.00001003    0.00002968   -0.00000734

     Total force =     0.001614     Total SCF correction =     0.000261
     SCF correction compared to forces is large: reduce conv_thr to get better values


     Computing stress (Cartesian axis) and pressure

          total   stress  (Ry/bohr**3)                   (kbar)     P=     -304.39
  -0.00206760  -0.00000000   0.00000000         -304.15       -0.00        0.00
  -0.00000000  -0.00206760   0.00000000           -0.00     -304.15        0.00
   0.00000000   0.00000000  -0.00207239            0.00        0.00     -304.86

     kinetic stress (kbar)  16716.23     -0.00     -0.00
                               -0.00  16716.23      0.00
                               -0.00      0.00  16803.37

     local   stress (kbar)**********     -0.30     -0.19
                               -0.30**********      0.04
                               -0.19      0.041558742.85

     nonloc. stress (kbar)  -2012.06      0.00      0.00
                                0.00  -2012.06      0.00
                                0.00      0.00  -2076.09

     hartree stress (kbar) 806054.32      0.14      0.08
                                0.14 806054.51     -0.02
                                0.08     -0.02-732026.46

     exc-cor stress (kbar)  -8371.55      0.00      0.00
                                0.00  -8371.55     -0.00
                                0.00     -0.00  -8382.53

     corecor stress (kbar)      0.00      0.00      0.00
                                0.00      0.00      0.00
                                0.00      0.00      0.00

     ewald   stress (kbar) 726681.15      0.16      0.11
                                0.16 726681.37     -0.02
                                0.11     -0.02-833365.99

     hubbard stress (kbar)      0.00      0.00      0.00
                                0.00      0.00      0.00
                                0.00      0.00      0.00

     DFT-D   stress (kbar)      0.00      0.00      0.00
                                0.00      0.00      0.00
                                0.00      0.00      0.00

     XDM     stress (kbar)      0.00      0.00      0.00
                                0.00      0.00      0.00
                                0.00      0.00      0.00

     dft-nl  stress (kbar)      0.00      0.00      0.00
                                0.00      0.00      0.00
                                0.00      0.00      0.00

     TS-vdW  stress (kbar)      0.00      0.00      0.00
                                0.00      0.00      0.00
                                0.00      0.00      0.00

     MDB     stress (kbar)      0.00      0.00      0.00
                                0.00      0.00      0.00
                                0.00      0.00      0.00

     3D-RISM stress (kbar)      0.00      0.00      0.00
                                0.00      0.00      0.00
                                0.00      0.00      0.00

     Energy error            =      7.3E-06 Ry
     Gradient error          =      4.9E-04 Ry/Bohr

     bfgs converged in  16 scf cycles and  15 bfgs steps
     (criteria: energy <  1.0E-05 Ry, force <  5.0E-04 Ry/Bohr)

     End of BFGS Geometry Optimization

     Final energy             =  -29535.6004658324 Ry

     File ./tmp/Zn002_4x4x4_relax_ecutrho250_ecutwfc25.bfgs deleted, as requested
Begin final coordinates

ATOMIC_POSITIONS (angstrom)
Zn              -0.0000000130        1.5094013740        1.2182902590    0   0   0
Zn               5.2287196980        1.5094013740        1.2182902590    0   0   0
Zn               0.0011120427        1.5098156786        6.1721139700
Zn               5.2276298567        1.5096812409        6.1878303447
Zn              -1.3071799410        3.7735034240        1.2182902590    0   0   0
Zn               3.9215397700        3.7735034240        1.2182902590    0   0   0
Zn              -1.3069300877        3.7744055475        6.1790147181
Zn               3.9211654507        3.7735432858        6.1841575930
Zn              -2.6143598690        6.0376054730        1.2182902590    0   0   0
Zn               2.6143598420        6.0376054730        1.2182902590    0   0   0
Zn              -2.6142664897        6.0378510255        6.1861027382
Zn               2.6141756116        6.0366437837        6.1776090524
Zn              -3.9215397970        8.3017075230        1.2182902590    0   0   0
Zn               1.3071799140        8.3017075230        1.2182902590    0   0   0
Zn              -3.9206627632        8.3013971165        6.1799331037
Zn               1.3061892394        8.3010083570        6.1815705960
Zn               2.6143598430        1.5094013740        1.2182902590    0   0   0
Zn               7.8430795540        1.5094013740        1.2182902590    0   0   0
Zn               2.6139064777        1.5091536489        6.1808539610
Zn               7.8434993133        1.5104311852        6.1795685079
Zn               1.3071799150        3.7735034240        1.2182902590    0   0   0
Zn               6.5358996260        3.7735034240        1.2182902590    0   0   0
Zn               1.3068490933        3.7733862370        6.1747897063
Zn               6.5361293872        3.7744930338        6.1877720625
Zn              -0.0000000130        6.0376054730        1.2182902590    0   0   0
Zn               5.2287196980        6.0376054730        1.2182902590    0   0   0
Zn              -0.0010277368        6.0371123597        6.1810339429
Zn               5.2296452053        6.0375740856        6.1834586640
Zn              -1.3071799410        8.3017075230        1.2182902590    0   0   0
Zn               3.9215397700        8.3017075230        1.2182902590    0   0   0
Zn              -1.3082407216        8.3010985074        6.1862800640
Zn               3.9229243575        8.3012795558        6.1747242960
Zn               1.3071799410        0.7547006760        3.6548707760    0   0   0
Zn               6.5358996520        0.7547006760        3.6548707760    0   0   0
Zn               1.3063097919        0.7556639552        8.7017023406
Zn               6.5368484949        0.7542415226        8.7014772955
Zn               0.0000000130        3.0188027250        3.6548707760    0   0   0
Zn               5.2287197240        3.0188027250        3.6548707760    0   0   0
Zn               0.0012077070        3.0183137757        8.6995357503
Zn               5.2275368360        3.0193282711        8.7080491230
Zn              -1.3071799150        5.2829047750        3.6548707760    0   0   0
Zn               3.9215397960        5.2829047750        3.6548707760    0   0   0
Zn              -1.3060135766        5.2821375053        8.7090114896
Zn               3.9203395195        5.2831485551        8.7030594639
Zn              -2.6143598430        7.5470068250        3.6548707760    0   0   0
Zn               2.6143598680        7.5470068250        3.6548707760    0   0   0
Zn              -2.6152134537        7.5476114751        8.7113197459
Zn               2.6152885791        7.5462041478        8.6961949660
Zn               3.9215397970        0.7547006760        3.6548707760    0   0   0
Zn               9.1502595080        0.7547006760        3.6548707760    0   0   0
Zn               3.9197494301        0.7550531582        8.7089567585
Zn               9.1523326532        0.7548496522        8.6942480243
Zn               2.6143598690        3.0188027250        3.6548707760    0   0   0
Zn               7.8430795800        3.0188027250        3.6548707760    0   0   0
Zn               2.6124950971        3.0190120242        8.7037204626
Zn               7.8449942195        3.0187128750        8.7044427412
Zn               1.3071799410        5.2829047750        3.6548707760    0   0   0
Zn               6.5358996520        5.2829047750        3.6548707760    0   0   0
Zn               1.3073582024        5.2816176138        8.7017057547
Zn               6.5356674941        5.2836520533        8.7103205903
Zn               0.0000000130        7.5470068250        3.6548707760    0   0   0
Zn               5.2287197240        7.5470068250        3.6548707760    0   0   0
Zn               0.0001698514        7.5458640274        8.7070356549
Zn               5.2285638749        7.5480140040        8.7014188139
End final coordinates



     Writing all to output data dir ./tmp/Zn002_4x4x4_relax_ecutrho250_ecutwfc25.save/ :
     XML data file, charge density, pseudopotentials, collected wavefunctions

     init_run     :     65.79s CPU     66.30s WALL (       1 calls)
     electrons    :  39713.25s CPU  40017.19s WALL (      16 calls)
     update_pot   :      0.40s CPU      0.42s WALL (      15 calls)
     forces       :    939.14s CPU    944.93s WALL (      16 calls)
     stress       :   2622.23s CPU   2631.37s WALL (      16 calls)

     Called by init_run:
     wfcinit      :     65.36s CPU     65.84s WALL (       1 calls)
     wfcinit:atom :      0.02s CPU      0.05s WALL (       5 calls)
     wfcinit:wfcr :     64.84s CPU     65.24s WALL (       5 calls)
     potinit      :      0.02s CPU      0.02s WALL (       1 calls)
     hinit0       :      0.02s CPU      0.02s WALL (       1 calls)

     Called by electrons:
     c_bands      :  37188.95s CPU  37477.08s WALL (     155 calls)
     sum_band     :   2473.56s CPU   2488.54s WALL (     155 calls)
     v_of_rho     :      2.93s CPU      3.15s WALL (     155 calls)
     v_h          :      0.14s CPU      0.17s WALL (     155 calls)
     v_xc         :      2.79s CPU      2.98s WALL (     155 calls)
     newd         :     52.95s CPU     53.20s WALL (     155 calls)
     mix_rho      :      0.31s CPU      0.33s WALL (     155 calls)

     Called by c_bands:
     init_us_2    :     29.05s CPU     29.16s WALL (    1715 calls)
     cegterg      :  37129.80s CPU  37417.17s WALL (     775 calls)

     Called by sum_band:
     sum_band:wei :      0.64s CPU      0.64s WALL (     155 calls)
     sum_band:loo :   2429.18s CPU   2443.81s WALL (     155 calls)
     sum_band:buf :      5.56s CPU      5.60s WALL (     775 calls)
     sum_band:ini :     13.15s CPU     13.18s WALL (     775 calls)
     sum_band:cal :   2184.99s CPU   2197.80s WALL (     775 calls)
     sum_band:bec :     29.04s CPU     29.12s WALL (     775 calls)
     addusdens    :     40.69s CPU     40.90s WALL (     155 calls)
                                        0.00s GPU  (     155 calls)
     addusd:skk   :      0.48s CPU      0.48s WALL (     155 calls)
                                        0.00s GPU  (     155 calls)

     Called by *egterg:
     cdiaghg      :   3092.23s CPU   3218.73s WALL (    2685 calls)
     cegterg:over :   6030.60s CPU   6055.22s WALL (    2065 calls)
     cegterg:upda :   2327.76s CPU   2339.36s WALL (    2065 calls)
     cegterg:last :   9154.52s CPU   9196.93s WALL (    1627 calls)
     cdiaghg:chol :    251.41s CPU    252.04s WALL (    2685 calls)
     cdiaghg:inve :     35.88s CPU     35.98s WALL (    2685 calls)
     cdiaghg:para :    983.61s CPU    997.99s WALL (    5370 calls)
     h_psi        :  10493.77s CPU  10548.05s WALL (    2845 calls)
     s_psi        :   4425.45s CPU   4436.10s WALL (    2845 calls)
     g_psi        :      3.70s CPU      3.72s WALL (    2065 calls)

     Called by h_psi:
     h_psi:calbec :   5069.93s CPU   5099.93s WALL (    2845 calls)
     vloc_psi     :    915.40s CPU    922.95s WALL (    2845 calls)
     add_vuspsi   :   4499.20s CPU   4510.08s WALL (    2845 calls)

     General routines
     calbec       :   8408.19s CPU   8457.68s WALL (    4020 calls)
     fft          :      3.50s CPU      3.83s WALL (    1864 calls)
     ffts         :      0.13s CPU      0.16s WALL (     155 calls)
     fftw         :   1027.51s CPU   1036.20s WALL ( 3356376 calls)

     Parallel routines

     PWSCF        :     12h 2m CPU     12h 7m WALL


   This run was terminated on:   5:37:38  18Mar2025            

=------------------------------------------------------------------------------=
   JOB DONE.
=------------------------------------------------------------------------------=
Note: The following floating-point exceptions are signalling: IEEE_DENORMAL
Note: The following floating-point exceptions are signalling: IEEE_DENORMAL
Note: The following floating-point exceptions are signalling: IEEE_DENORMAL
Note: The following floating-point exceptions are signalling: IEEE_DENORMAL
Note: The following floating-point exceptions are signalling: IEEE_DENORMAL
Note: The following floating-point exceptions are signalling: IEEE_DENORMAL
Note: The following floating-point exceptions are signalling: IEEE_DENORMAL
Note: The following floating-point exceptions are signalling: IEEE_DENORMAL
Note: The following floating-point exceptions are signalling: IEEE_DENORMAL
Note: The following floating-point exceptions are signalling: IEEE_DENORMAL
Note: The following floating-point exceptions are signalling: IEEE_DENORMAL
