--------------------------------------------------------------------------
By default, for Open MPI 4.0 and later, infiniband ports on a device
are not used by default.  The intent is to use UCX for these devices.
You can override this policy by setting the btl_openib_allow_ib MCA parameter
to true.

  Local host:              psid03
  Local adapter:           mlx5_0
  Local port:              1

--------------------------------------------------------------------------
--------------------------------------------------------------------------
WARNING: There was an error initializing an OpenFabrics device.

  Local host:   psid03
  Local device: mlx5_0
--------------------------------------------------------------------------

     Program PWSCF v.7.3.1 starts on 17Mar2025 at 17:13:49 

     This program is part of the open-source Quantum ESPRESSO suite
     for quantum simulation of materials; please cite
         "P. Giannozzi et al., J. Phys.:Condens. Matter 21 395502 (2009);
         "P. Giannozzi et al., J. Phys.:Condens. Matter 29 465901 (2017);
         "P. Giannozzi et al., J. Chem. Phys. 152 154105 (2020);
          URL http://www.quantum-espresso.org", 
     in publications or presentations arising from this work. More details at
     http://www.quantum-espresso.org/quote

     Parallel version (MPI), running on    32 processors

     MPI processes distributed on     1 nodes
     113716 MiB available memory on the printing compute node when the environment starts

     Waiting for input...
     Reading input from standard input
Warning: card &CELL ignored
Warning: card   CELL_DOFREE = 'ALL' ignored
Warning: card / ignored

     Current dimensions of program PWSCF are:
     Max number of different atomic species (ntypx) = 10
     Max number of k-points (npk) =  40000
     Max angular momentum in pseudopotentials (lmaxx) =  4
     Found identity + (  0.0000 -0.5000  0.0000) symmetry
     This is a supercell, fractional translations are disabled

     R & G space division:  proc/nbgrp/npool/nimage =      32
     Subspace diagonalization in iterative solution of the eigenvalue problem:
     one sub-group per band group will be used
     custom distributed-memory algorithm (size of sub-group:  5*  5 procs)


     Parallelization info
     --------------------
     sticks:   dense  smooth     PW     G-vecs:    dense   smooth      PW
     Min         119     119     33                11682    11682    1732
     Max         120     120     34                11692    11692    1740
     Sum        3835    3835   1083               374027   374027   55577

     Using Slab Decomposition



     bravais-lattice index     =            0
     lattice parameter (alat)  =      20.9009  a.u.
     unit-cell volume          =   16846.7507 (a.u.)^3
     number of atoms/cell      =           64
     number of atomic types    =            1
     number of electrons       =      1280.00
     number of Kohn-Sham states=          768
     kinetic-energy cutoff     =      30.0000  Ry
     charge density cutoff     =     120.0000  Ry
     scf convergence threshold =      7.3E-07
     mixing beta               =       0.7000
     number of iterations used =            8  plain     mixing
     energy convergence thresh.=      1.0E-05
     force convergence thresh. =      5.0E-04
     Exchange-correlation= SLA  PW   PBE  PBE
                           (   1   4   3   4   0   0   0)
     nstep                     =          100


     celldm(1)=  20.900943  celldm(2)=   0.000000  celldm(3)=   0.000000
     celldm(4)=   0.000000  celldm(5)=   0.000000  celldm(6)=   0.000000

     crystal axes: (cart. coord. in units of alat)
               a(1) = (   1.000000   0.000000   0.000000 )  
               a(2) = (  -0.223489   0.918700   0.000000 )  
               a(3) = (  -4.200249  -1.021781   2.008375 )  

     reciprocal axes: (cart. coord. in units 2 pi/alat)
               b(1) = (  1.000000  0.243267  2.215131 )  
               b(2) = ( -0.000000  1.088495  0.553783 )  
               b(3) = (  0.000000 -0.000000  0.497915 )  


     PseudoPot. # 1 for Zn read from file:
     /home/ys/qepseudo/SSSP_1.3.0_PBE_efficiency/Zn_pbe_v1.uspp.F.UPF
     MD5 check sum: df62231357ef9e81f77b2b3087fa5675
     Pseudo is Ultrasoft, Zval = 20.0
     Generated by new atomic code, or converted to UPF format
     Using radial grid of  943 points,  6 beta functions with: 
                l(1) =   0
                l(2) =   0
                l(3) =   1
                l(4) =   1
                l(5) =   2
                l(6) =   2
     Q(r) pseudized with  8 coefficients,  rinner =    1.100   1.100   1.100
                                                       1.100   1.100

     atomic species   valence    mass     pseudopotential
     Zn               20.00    65.38000     Zn( 1.00)

     No symmetry found


                                    s                        frac. trans.

      isym =  1     identity                                     

 cryst.   s( 1) = (     1          0          0      )
                  (     0          1          0      )
                  (     0          0          1      )

 cart.    s( 1) = (  1.0000000  0.0000000  0.0000000 )
                  (  0.0000000  1.0000000  0.0000000 )
                  (  0.0000000  0.0000000  1.0000000 )


   Cartesian axes

     site n.     atom                  positions (alat units)
         1        Zn     tau(   1) = (  -0.0970639   0.0980210   0.1082939  )
         2        Zn     tau(   2) = (  -0.2088085   0.5573710   0.1082939  )
         3        Zn     tau(   3) = (  -0.4853192   0.0035714   0.2939406  )
         4        Zn     tau(   4) = (  -0.5970639   0.4629214   0.2939406  )
         5        Zn     tau(   5) = (  -0.8735746  -0.0908783   0.4795873  )
         6        Zn     tau(   6) = (  -0.9853192   0.3684717   0.4795873  )
         7        Zn     tau(   7) = (  -1.2618300  -0.1853280   0.6652340  )
         8        Zn     tau(   8) = (  -1.3735746   0.2740220   0.6652340  )
         9        Zn     tau(   9) = (  -0.1529362   0.3276960   0.1082939  )
        10        Zn     tau(  10) = (  -0.2646808   0.7870460   0.1082939  )
        11        Zn     tau(  11) = (  -0.5411915   0.2332464   0.2939406  )
        12        Zn     tau(  12) = (  -0.6529362   0.6925964   0.2939406  )
        13        Zn     tau(  13) = (  -0.9294469   0.1387967   0.4795873  )
        14        Zn     tau(  14) = (  -1.0411915   0.5981467   0.4795873  )
        15        Zn     tau(  15) = (  -1.3177023   0.0443470   0.6652340  )
        16        Zn     tau(  16) = (  -1.4294469   0.5036970   0.6652340  )
        17        Zn     tau(  17) = (   0.4029361   0.0980210   0.1082939  )
        18        Zn     tau(  18) = (   0.2911915   0.5573710   0.1082939  )
        19        Zn     tau(  19) = (   0.0146808   0.0035714   0.2939406  )
        20        Zn     tau(  20) = (  -0.0970639   0.4629214   0.2939406  )
        21        Zn     tau(  21) = (  -0.3735746  -0.0908783   0.4795873  )
        22        Zn     tau(  22) = (  -0.4853192   0.3684717   0.4795873  )
        23        Zn     tau(  23) = (  -0.7618300  -0.1853280   0.6652340  )
        24        Zn     tau(  24) = (  -0.8735746   0.2740220   0.6652340  )
        25        Zn     tau(  25) = (   0.3470638   0.3276960   0.1082939  )
        26        Zn     tau(  26) = (   0.2353192   0.7870460   0.1082939  )
        27        Zn     tau(  27) = (  -0.0411915   0.2332464   0.2939406  )
        28        Zn     tau(  28) = (  -0.1529362   0.6925964   0.2939406  )
        29        Zn     tau(  29) = (  -0.4294469   0.1387967   0.4795873  )
        30        Zn     tau(  30) = (  -0.5411915   0.5981467   0.4795873  )
        31        Zn     tau(  31) = (  -0.8177023   0.0443470   0.6652340  )
        32        Zn     tau(  32) = (  -0.9294469   0.5036970   0.6652340  )
        33        Zn     tau(  33) = (   0.1529362   0.0372043   0.0773528  )
        34        Zn     tau(  34) = (   0.0411915   0.4965543   0.0773528  )
        35        Zn     tau(  35) = (  -0.2353192  -0.0572454   0.2629995  )
        36        Zn     tau(  36) = (  -0.3470638   0.4021046   0.2629995  )
        37        Zn     tau(  37) = (  -0.6235746  -0.1516950   0.4486462  )
        38        Zn     tau(  38) = (  -0.7353192   0.3076550   0.4486462  )
        39        Zn     tau(  39) = (  -1.0118299  -0.2461447   0.6342929  )
        40        Zn     tau(  40) = (  -1.1235746   0.2132053   0.6342929  )
        41        Zn     tau(  41) = (   0.0970639   0.2668793   0.0773528  )
        42        Zn     tau(  42) = (  -0.0146808   0.7262293   0.0773528  )
        43        Zn     tau(  43) = (  -0.2911915   0.1724296   0.2629995  )
        44        Zn     tau(  44) = (  -0.4029361   0.6317796   0.2629995  )
        45        Zn     tau(  45) = (  -0.6794469   0.0779800   0.4486462  )
        46        Zn     tau(  46) = (  -0.7911915   0.5373300   0.4486462  )
        47        Zn     tau(  47) = (  -1.0677023  -0.0164697   0.6342929  )
        48        Zn     tau(  48) = (  -1.1794469   0.4428803   0.6342929  )
        49        Zn     tau(  49) = (   0.6529362   0.0372043   0.0773528  )
        50        Zn     tau(  50) = (   0.5411915   0.4965543   0.0773528  )
        51        Zn     tau(  51) = (   0.2646808  -0.0572454   0.2629995  )
        52        Zn     tau(  52) = (   0.1529362   0.4021046   0.2629995  )
        53        Zn     tau(  53) = (  -0.1235746  -0.1516950   0.4486462  )
        54        Zn     tau(  54) = (  -0.2353192   0.3076550   0.4486462  )
        55        Zn     tau(  55) = (  -0.5118299  -0.2461447   0.6342929  )
        56        Zn     tau(  56) = (  -0.6235746   0.2132053   0.6342929  )
        57        Zn     tau(  57) = (   0.5970639   0.2668793   0.0773528  )
        58        Zn     tau(  58) = (   0.4853192   0.7262293   0.0773528  )
        59        Zn     tau(  59) = (   0.2088085   0.1724296   0.2629995  )
        60        Zn     tau(  60) = (   0.0970639   0.6317796   0.2629995  )
        61        Zn     tau(  61) = (  -0.1794469   0.0779800   0.4486462  )
        62        Zn     tau(  62) = (  -0.2911915   0.5373300   0.4486462  )
        63        Zn     tau(  63) = (  -0.5677023  -0.0164697   0.6342929  )
        64        Zn     tau(  64) = (  -0.6794469   0.4428803   0.6342929  )

   Crystallographic axes

     site n.     atom                  positions (cryst. coord.)
         1        Zn     tau(   1) = (  0.1666667  0.1666667  0.0539212  )
         2        Zn     tau(   2) = (  0.1666667  0.6666667  0.0539212  )
         3        Zn     tau(   3) = (  0.1666667  0.1666667  0.1463574  )
         4        Zn     tau(   4) = (  0.1666667  0.6666667  0.1463574  )
         5        Zn     tau(   5) = (  0.1666667  0.1666667  0.2387937  )
         6        Zn     tau(   6) = (  0.1666667  0.6666667  0.2387937  )
         7        Zn     tau(   7) = (  0.1666667  0.1666667  0.3312300  )
         8        Zn     tau(   8) = (  0.1666667  0.6666667  0.3312300  )
         9        Zn     tau(   9) = (  0.1666667  0.4166667  0.0539212  )
        10        Zn     tau(  10) = (  0.1666667  0.9166667  0.0539212  )
        11        Zn     tau(  11) = (  0.1666667  0.4166667  0.1463574  )
        12        Zn     tau(  12) = (  0.1666667  0.9166667  0.1463574  )
        13        Zn     tau(  13) = (  0.1666667  0.4166667  0.2387937  )
        14        Zn     tau(  14) = (  0.1666667  0.9166667  0.2387937  )
        15        Zn     tau(  15) = (  0.1666667  0.4166667  0.3312300  )
        16        Zn     tau(  16) = (  0.1666667  0.9166667  0.3312300  )
        17        Zn     tau(  17) = (  0.6666667  0.1666667  0.0539212  )
        18        Zn     tau(  18) = (  0.6666667  0.6666667  0.0539212  )
        19        Zn     tau(  19) = (  0.6666667  0.1666667  0.1463574  )
        20        Zn     tau(  20) = (  0.6666667  0.6666667  0.1463574  )
        21        Zn     tau(  21) = (  0.6666667  0.1666667  0.2387937  )
        22        Zn     tau(  22) = (  0.6666667  0.6666667  0.2387937  )
        23        Zn     tau(  23) = (  0.6666667  0.1666667  0.3312300  )
        24        Zn     tau(  24) = (  0.6666667  0.6666667  0.3312300  )
        25        Zn     tau(  25) = (  0.6666667  0.4166667  0.0539212  )
        26        Zn     tau(  26) = (  0.6666667  0.9166667  0.0539212  )
        27        Zn     tau(  27) = (  0.6666667  0.4166667  0.1463574  )
        28        Zn     tau(  28) = (  0.6666667  0.9166667  0.1463574  )
        29        Zn     tau(  29) = (  0.6666667  0.4166667  0.2387937  )
        30        Zn     tau(  30) = (  0.6666667  0.9166667  0.2387937  )
        31        Zn     tau(  31) = (  0.6666667  0.4166667  0.3312300  )
        32        Zn     tau(  32) = (  0.6666667  0.9166667  0.3312300  )
        33        Zn     tau(  33) = (  0.3333333  0.0833333  0.0385151  )
        34        Zn     tau(  34) = (  0.3333333  0.5833333  0.0385151  )
        35        Zn     tau(  35) = (  0.3333333  0.0833333  0.1309514  )
        36        Zn     tau(  36) = (  0.3333333  0.5833333  0.1309514  )
        37        Zn     tau(  37) = (  0.3333333  0.0833333  0.2233877  )
        38        Zn     tau(  38) = (  0.3333333  0.5833333  0.2233877  )
        39        Zn     tau(  39) = (  0.3333333  0.0833333  0.3158240  )
        40        Zn     tau(  40) = (  0.3333333  0.5833333  0.3158240  )
        41        Zn     tau(  41) = (  0.3333333  0.3333333  0.0385151  )
        42        Zn     tau(  42) = (  0.3333333  0.8333333  0.0385151  )
        43        Zn     tau(  43) = (  0.3333333  0.3333333  0.1309514  )
        44        Zn     tau(  44) = (  0.3333333  0.8333333  0.1309514  )
        45        Zn     tau(  45) = (  0.3333333  0.3333333  0.2233877  )
        46        Zn     tau(  46) = (  0.3333333  0.8333333  0.2233877  )
        47        Zn     tau(  47) = (  0.3333333  0.3333333  0.3158240  )
        48        Zn     tau(  48) = (  0.3333333  0.8333333  0.3158240  )
        49        Zn     tau(  49) = (  0.8333333  0.0833333  0.0385151  )
        50        Zn     tau(  50) = (  0.8333333  0.5833333  0.0385151  )
        51        Zn     tau(  51) = (  0.8333333  0.0833333  0.1309514  )
        52        Zn     tau(  52) = (  0.8333333  0.5833333  0.1309514  )
        53        Zn     tau(  53) = (  0.8333333  0.0833333  0.2233877  )
        54        Zn     tau(  54) = (  0.8333333  0.5833333  0.2233877  )
        55        Zn     tau(  55) = (  0.8333333  0.0833333  0.3158240  )
        56        Zn     tau(  56) = (  0.8333333  0.5833333  0.3158240  )
        57        Zn     tau(  57) = (  0.8333333  0.3333333  0.0385151  )
        58        Zn     tau(  58) = (  0.8333333  0.8333333  0.0385151  )
        59        Zn     tau(  59) = (  0.8333333  0.3333333  0.1309514  )
        60        Zn     tau(  60) = (  0.8333333  0.8333333  0.1309514  )
        61        Zn     tau(  61) = (  0.8333333  0.3333333  0.2233877  )
        62        Zn     tau(  62) = (  0.8333333  0.8333333  0.2233877  )
        63        Zn     tau(  63) = (  0.8333333  0.3333333  0.3158240  )
        64        Zn     tau(  64) = (  0.8333333  0.8333333  0.3158240  )

     number of k points=     5  Marzari-Vanderbilt smearing, width (Ry)=  0.0200
                       cart. coord. in units 2pi/alat
        k(    1) = (   0.0000000   0.0000000   0.0000000), wk =   0.2222222
        k(    2) = (   0.0000000   0.3628315   0.1845943), wk =   0.4444444
        k(    3) = (   0.3333333   0.0810890   0.7383771), wk =   0.4444444
        k(    4) = (   0.3333333   0.4439205   0.9229714), wk =   0.4444444
        k(    5) = (   0.3333333  -0.2817426   0.5537829), wk =   0.4444444

                       cryst. coord.
        k(    1) = (   0.0000000   0.0000000   0.0000000), wk =   0.2222222
        k(    2) = (   0.0000000   0.3333333   0.0000000), wk =   0.4444444
        k(    3) = (   0.3333333   0.0000000   0.0000000), wk =   0.4444444
        k(    4) = (   0.3333333   0.3333333   0.0000000), wk =   0.4444444
        k(    5) = (   0.3333333  -0.3333333   0.0000000), wk =   0.4444444

     Dense  grid:   374027 G-vectors     FFT dimensions: (  75,  72, 360)

     Dynamical RAM for                 wfc:      17.11 MB

     Dynamical RAM for     wfc (w. buffer):     102.66 MB

     Dynamical RAM for           str. fact:       0.18 MB

     Dynamical RAM for           local pot:       0.00 MB

     Dynamical RAM for          nlocal pot:      25.66 MB

     Dynamical RAM for                qrad:       0.88 MB

     Dynamical RAM for          rho,v,vnew:       2.02 MB

     Dynamical RAM for               rhoin:       0.67 MB

     Dynamical RAM for            rho*nmix:       2.85 MB

     Dynamical RAM for           G-vectors:       0.76 MB

     Dynamical RAM for          h,s,v(r/c):       4.31 MB

     Dynamical RAM for          <psi|beta>:      13.50 MB

     Dynamical RAM for                 psi:      34.22 MB

     Dynamical RAM for                hpsi:      34.22 MB

     Dynamical RAM for                spsi:      34.22 MB

     Dynamical RAM for      wfcinit/wfcrot:      52.92 MB

     Dynamical RAM for           addusdens:      44.57 MB

     Dynamical RAM for          addusforce:      67.37 MB

     Dynamical RAM for         addusstress:      35.83 MB

     Estimated static dynamical RAM per process >     135.66 MB

     Estimated max dynamical RAM per process >     258.98 MB

     Estimated total dynamical RAM >       8.09 GB

     Initial potential from superposition of free atoms

     starting charge    1279.9910, renormalised to    1280.0000

     negative rho (up, down):  1.803E-03 0.000E+00
     Starting wfcs are  832 randomized atomic wfcs
[psid03:101664] 31 more processes have sent help message help-mpi-btl-openib.txt / ib port not selected
[psid03:101664] Set MCA parameter "orte_base_help_aggregate" to 0 to see all help / error messages
[psid03:101664] 31 more processes have sent help message help-mpi-btl-openib.txt / error in device init

     total cpu time spent up to now is       75.2 secs

     Self-consistent Calculation

     iteration #  1     ecut=    30.00 Ry     beta= 0.70
     Davidson diagonalization with overlap

---- Real-time Memory Report at c_bands before calling an iterative solver
           211 MiB given to the printing process from OS
             0 MiB allocation reported by mallinfo(arena+hblkhd)
        108866 MiB available memory on the node where the printing process lives
------------------
     ethr =  1.00E-02,  avg # of iterations =  7.6

     Threshold (ethr) on eigenvalues was too large:
     Diagonalizing with lowered threshold

     Davidson diagonalization with overlap

---- Real-time Memory Report at c_bands before calling an iterative solver
           292 MiB given to the printing process from OS
             0 MiB allocation reported by mallinfo(arena+hblkhd)
        107567 MiB available memory on the node where the printing process lives
------------------
     ethr =  1.94E-04,  avg # of iterations =  6.4

     negative rho (up, down):  6.346E-03 0.000E+00

     total cpu time spent up to now is      645.1 secs

     total energy              =  -29533.48771926 Ry
     estimated scf accuracy    <       2.67213759 Ry

     iteration #  2     ecut=    30.00 Ry     beta= 0.70
     Davidson diagonalization with overlap

---- Real-time Memory Report at c_bands before calling an iterative solver
           310 MiB given to the printing process from OS
             0 MiB allocation reported by mallinfo(arena+hblkhd)
        107513 MiB available memory on the node where the printing process lives
------------------
     ethr =  2.09E-04,  avg # of iterations =  3.8

     negative rho (up, down):  7.726E-03 0.000E+00

     total cpu time spent up to now is     1001.6 secs

     total energy              =  -29534.10654167 Ry
     estimated scf accuracy    <       4.46871303 Ry

     iteration #  3     ecut=    30.00 Ry     beta= 0.70
     Davidson diagonalization with overlap

---- Real-time Memory Report at c_bands before calling an iterative solver
           314 MiB given to the printing process from OS
             0 MiB allocation reported by mallinfo(arena+hblkhd)
        107485 MiB available memory on the node where the printing process lives
------------------
     ethr =  2.09E-04,  avg # of iterations =  2.0

     negative rho (up, down):  8.383E-03 0.000E+00

     total cpu time spent up to now is     1291.4 secs

     total energy              =  -29534.82876839 Ry
     estimated scf accuracy    <       0.36020505 Ry

     iteration #  4     ecut=    30.00 Ry     beta= 0.70
     Davidson diagonalization with overlap

---- Real-time Memory Report at c_bands before calling an iterative solver
           314 MiB given to the printing process from OS
             0 MiB allocation reported by mallinfo(arena+hblkhd)
        107471 MiB available memory on the node where the printing process lives
------------------
     ethr =  2.81E-05,  avg # of iterations = 12.4

     negative rho (up, down):  1.018E-02 0.000E+00

     total cpu time spent up to now is     1588.8 secs

     total energy              =  -29534.89512410 Ry
     estimated scf accuracy    <       0.25835866 Ry

     iteration #  5     ecut=    30.00 Ry     beta= 0.70
     Davidson diagonalization with overlap

---- Real-time Memory Report at c_bands before calling an iterative solver
           314 MiB given to the printing process from OS
             0 MiB allocation reported by mallinfo(arena+hblkhd)
        107456 MiB available memory on the node where the printing process lives
------------------
     ethr =  2.02E-05,  avg # of iterations =  7.4

     negative rho (up, down):  1.054E-02 0.000E+00

     total cpu time spent up to now is     1854.5 secs

     total energy              =  -29534.92034053 Ry
     estimated scf accuracy    <       0.00627637 Ry

     iteration #  6     ecut=    30.00 Ry     beta= 0.70
     Davidson diagonalization with overlap

---- Real-time Memory Report at c_bands before calling an iterative solver
           315 MiB given to the printing process from OS
             0 MiB allocation reported by mallinfo(arena+hblkhd)
        107446 MiB available memory on the node where the printing process lives
------------------
     ethr =  4.90E-07,  avg # of iterations = 10.2

     negative rho (up, down):  1.055E-02 0.000E+00

     total cpu time spent up to now is     2137.9 secs

     total energy              =  -29534.92036014 Ry
     estimated scf accuracy    <       0.01877286 Ry

     iteration #  7     ecut=    30.00 Ry     beta= 0.70
     Davidson diagonalization with overlap

---- Real-time Memory Report at c_bands before calling an iterative solver
           315 MiB given to the printing process from OS
             0 MiB allocation reported by mallinfo(arena+hblkhd)
        107434 MiB available memory on the node where the printing process lives
------------------
     ethr =  4.90E-07,  avg # of iterations =  2.6

     negative rho (up, down):  1.063E-02 0.000E+00

     total cpu time spent up to now is     2380.9 secs

     total energy              =  -29534.92128422 Ry
     estimated scf accuracy    <       0.00234867 Ry

     iteration #  8     ecut=    30.00 Ry     beta= 0.70
     Davidson diagonalization with overlap

---- Real-time Memory Report at c_bands before calling an iterative solver
           316 MiB given to the printing process from OS
             0 MiB allocation reported by mallinfo(arena+hblkhd)
        107421 MiB available memory on the node where the printing process lives
------------------
     ethr =  1.83E-07,  avg # of iterations =  2.0

     negative rho (up, down):  1.067E-02 0.000E+00

     total cpu time spent up to now is     2620.3 secs

     total energy              =  -29534.92142377 Ry
     estimated scf accuracy    <       0.00009589 Ry

     iteration #  9     ecut=    30.00 Ry     beta= 0.70
     Davidson diagonalization with overlap

---- Real-time Memory Report at c_bands before calling an iterative solver
           316 MiB given to the printing process from OS
             0 MiB allocation reported by mallinfo(arena+hblkhd)
        107401 MiB available memory on the node where the printing process lives
------------------
     ethr =  7.49E-09,  avg # of iterations =  2.0

     negative rho (up, down):  1.067E-02 0.000E+00

     total cpu time spent up to now is     2910.2 secs

     total energy              =  -29534.92144913 Ry
     estimated scf accuracy    <       0.00000755 Ry

     iteration # 10     ecut=    30.00 Ry     beta= 0.70
     Davidson diagonalization with overlap

---- Real-time Memory Report at c_bands before calling an iterative solver
           316 MiB given to the printing process from OS
             0 MiB allocation reported by mallinfo(arena+hblkhd)
        107388 MiB available memory on the node where the printing process lives
------------------
     ethr =  5.90E-10,  avg # of iterations =  2.0

     negative rho (up, down):  1.067E-02 0.000E+00

     total cpu time spent up to now is     3164.8 secs

     total energy              =  -29534.92144829 Ry
     estimated scf accuracy    <       0.00001271 Ry

     iteration # 11     ecut=    30.00 Ry     beta= 0.70
     Davidson diagonalization with overlap

---- Real-time Memory Report at c_bands before calling an iterative solver
           317 MiB given to the printing process from OS
             0 MiB allocation reported by mallinfo(arena+hblkhd)
        107375 MiB available memory on the node where the printing process lives
------------------
     ethr =  5.90E-10,  avg # of iterations =  2.0

     negative rho (up, down):  1.067E-02 0.000E+00

     total cpu time spent up to now is     3405.7 secs

     total energy              =  -29534.92144963 Ry
     estimated scf accuracy    <       0.00000206 Ry

     iteration # 12     ecut=    30.00 Ry     beta= 0.70
     Davidson diagonalization with overlap

---- Real-time Memory Report at c_bands before calling an iterative solver
           317 MiB given to the printing process from OS
             0 MiB allocation reported by mallinfo(arena+hblkhd)
        107372 MiB available memory on the node where the printing process lives
------------------
     ethr =  1.61E-10,  avg # of iterations =  2.0

     negative rho (up, down):  1.067E-02 0.000E+00

     total cpu time spent up to now is     3649.3 secs

     End of self-consistent calculation

          k = 0.0000 0.0000 0.0000 ( 46769 PWs)   bands (ev):

  -124.2005-124.2000-124.1998-124.1982-124.1982-124.1979-124.1977-124.1977
  -124.1976-124.1975-124.1974-124.1972-124.1972-124.1970-124.1967-124.1967
  -124.1964-124.1960-124.1959-124.1958-124.1958-124.1957-124.1956-124.1955
  -124.1954-124.1954-124.1951-124.1951-124.1949-124.1949-124.1948-124.1946
  -123.9651-123.9649-123.9643-123.9643-123.9642-123.9641-123.9641-123.9639
  -123.9636-123.9636-123.9636-123.9633-123.9633-123.9633-123.9630-123.9630
  -123.8431-123.8427-123.8422-123.8421-123.8419-123.8419-123.8418-123.8418
  -123.8415-123.8415-123.8413-123.8412-123.8412-123.8410-123.8409-123.8408
   -78.3096 -78.3094 -78.3091 -78.3088 -78.3053 -78.3052 -78.3050 -78.3049
   -78.3009 -78.2995 -78.2994 -78.2980 -78.2980 -78.2976 -78.2974 -78.2974
   -78.2960 -78.2959 -78.2957 -78.2957 -78.2908 -78.2908 -78.2907 -78.2902
   -78.2889 -78.2889 -78.2874 -78.2874 -78.2857 -78.2857 -78.2848 -78.2846
   -78.2845 -78.2844 -78.2833 -78.2833 -78.2828 -78.2826 -78.2823 -78.2823
   -78.2821 -78.2819 -78.2817 -78.2816 -78.2815 -78.2815 -78.2813 -78.2813
   -78.2800 -78.2793 -78.2791 -78.2791 -78.2789 -78.2787 -78.2786 -78.2786
   -78.2779 -78.2778 -78.2778 -78.2775 -78.2775 -78.2774 -78.2774 -78.2773
   -78.2771 -78.2767 -78.2767 -78.2766 -78.2760 -78.2760 -78.2760 -78.2759
   -78.2758 -78.2758 -78.2756 -78.2751 -78.2747 -78.2745 -78.2745 -78.2741
   -78.2741 -78.2738 -78.2735 -78.2734 -78.2730 -78.2729 -78.2725 -78.2718
   -78.2718 -78.2709 -78.2709 -78.2695 -78.2690 -78.2662 -78.2631 -78.2624
   -78.0690 -78.0689 -78.0677 -78.0675 -78.0671 -78.0666 -78.0661 -78.0657
   -78.0656 -78.0656 -78.0653 -78.0652 -78.0651 -78.0648 -78.0641 -78.0641
   -78.0633 -78.0632 -78.0629 -78.0627 -78.0527 -78.0501 -78.0480 -78.0480
   -78.0474 -78.0474 -78.0465 -78.0465 -78.0464 -78.0458 -78.0456 -78.0453
   -78.0453 -78.0453 -78.0451 -78.0442 -78.0440 -78.0440 -78.0424 -78.0424
   -78.0404 -78.0404 -78.0391 -78.0391 -78.0327 -78.0325 -78.0297 -78.0295
   -77.9458 -77.9449 -77.9446 -77.9443 -77.9434 -77.9434 -77.9429 -77.9429
   -77.9428 -77.9422 -77.9422 -77.9413 -77.9411 -77.9409 -77.9408 -77.9408
   -77.9407 -77.9407 -77.9399 -77.9395 -77.9330 -77.9306 -77.9272 -77.9271
   -77.9269 -77.9269 -77.9265 -77.9265 -77.9264 -77.9261 -77.9254 -77.9254
   -77.9248 -77.9246 -77.9245 -77.9225 -77.9220 -77.9220 -77.9205 -77.9205
   -77.9177 -77.9177 -77.9170 -77.9169 -77.9098 -77.9095 -77.9077 -77.9072
    -7.6644  -6.5796  -6.5577  -6.3754  -6.3218  -6.3218  -5.9914  -5.9469
    -5.9469  -5.9259  -5.9226  -5.8663  -5.8209  -5.8208  -5.8121  -5.8094
    -5.8089  -5.8020  -5.8015  -5.7378  -5.7377  -5.7321  -5.6955  -5.6955
    -5.6689  -5.6593  -5.6593  -5.6551  -5.6550  -5.6461  -5.6278  -5.6278
    -5.6057  -5.6043  -5.6043  -5.5941  -5.5941  -5.5757  -5.5717  -5.5709
    -5.5661  -5.5661  -5.5570  -5.5567  -5.5465  -5.5458  -5.5200  -5.5200
    -5.5111  -5.5111  -5.4907  -5.4907  -5.4829  -5.4593  -5.4380  -5.4380
    -5.4344  -5.4344  -5.4254  -5.4000  -5.4000  -5.3969  -5.3969  -5.3924
    -5.3923  -5.3665  -5.3663  -5.3620  -5.3620  -5.3585  -5.3528  -5.3528
    -5.3403  -5.3403  -5.3379  -5.3375  -5.3288  -5.3288  -5.3252  -5.3151
    -5.3150  -5.3110  -5.3106  -5.2965  -5.2965  -5.2760  -5.2760  -5.2758
    -5.2758  -5.2637  -5.2623  -5.2534  -5.2433  -5.2433  -5.2340  -5.2340
    -5.2124  -5.2120  -5.2085  -5.2085  -5.2080  -5.2080  -5.1874  -5.1764
    -5.1764  -5.1643  -5.1634  -5.1629  -5.1502  -5.1502  -5.1421  -5.1274
    -5.1273  -5.1222  -5.1222  -5.1095  -5.0933  -5.0908  -5.0908  -5.0846
    -5.0707  -5.0573  -5.0573  -5.0555  -5.0497  -5.0486  -5.0453  -5.0453
    -5.0228  -5.0216  -5.0213  -5.0207  -5.0127  -5.0127  -5.0126  -5.0052
    -5.0052  -5.0048  -4.9640  -4.9615  -4.9615  -4.9533  -4.9533  -4.9520
    -4.9518  -4.9490  -4.9426  -4.9423  -4.9343  -4.9343  -4.9300  -4.9300
    -4.9129  -4.9096  -4.9096  -4.9095  -4.9095  -4.9090  -4.9088  -4.9060
    -4.8746  -4.8746  -4.8523  -4.8523  -4.8475  -4.8475  -4.8369  -4.8369
    -4.8250  -4.8203  -4.8203  -4.8118  -4.8116  -4.7939  -4.7894  -4.7894
    -4.7882  -4.7882  -4.7785  -4.7783  -4.7783  -4.7705  -4.7703  -4.7685
    -4.7683  -4.7506  -4.7506  -4.7438  -4.7437  -4.7429  -4.7429  -4.7388
    -4.7282  -4.7257  -4.7219  -4.7219  -4.7194  -4.7176  -4.7133  -4.7115
    -4.7112  -4.7006  -4.6933  -4.6933  -4.6846  -4.6846  -4.6835  -4.6835
    -4.6751  -4.6751  -4.6742  -4.6742  -4.6713  -4.6710  -4.6648  -4.6485
    -4.6485  -4.6472  -4.6472  -4.6456  -4.6451  -4.6312  -4.6312  -4.6309
    -4.6308  -4.6231  -4.6231  -4.6208  -4.6149  -4.6149  -4.6122  -4.6118
    -4.6052  -4.6052  -4.5980  -4.5979  -4.5944  -4.5940  -4.5940  -4.5892
    -4.5888  -4.5865  -4.5864  -4.5864  -4.5762  -4.5762  -4.5701  -4.5701
    -4.5592  -4.5529  -4.5529  -4.5513  -4.5322  -4.5319  -4.5248  -4.5081
    -4.5047  -4.5047  -4.5043  -4.5043  -4.5019  -4.5013  -4.5004  -4.5004
    -4.4992  -4.4878  -4.4878  -4.4865  -4.4723  -4.4670  -4.4670  -4.4617
    -4.4616  -4.4565  -4.4565  -4.4548  -4.4528  -4.4528  -4.4471  -4.4413
    -4.4411  -4.4317  -4.4317  -4.4267  -4.4266  -4.4243  -4.4243  -4.4231
    -4.4131  -4.4131  -4.4064  -4.4062  -4.4001  -4.4001  -4.3884  -4.3805
    -4.3784  -4.3784  -4.3753  -4.3736  -4.3736  -4.3687  -4.3646  -4.3646
    -4.3644  -4.3643  -4.3480  -4.3478  -4.3425  -4.3425  -4.3129  -4.3066
    -4.2946  -4.2944  -4.2847  -4.2847  -4.2818  -4.2734  -4.2732  -4.2689
    -4.2487  -4.2458  -4.2446  -4.2314  -4.1634  -4.1633  -4.1543  -4.1541
    -4.1204  -3.9776  -3.9471  -3.9471  -3.4617  -3.3711  -3.3711  -3.2991
    -3.2991  -2.3149  -2.0672  -2.0672  -1.9952  -1.9952  -1.9523  -1.6076
    -1.4290  -1.3891  -1.3891  -1.3310  -1.3310  -0.9821  -0.9820  -0.8786
    -0.8782  -0.6189  -0.2464  -0.2372  -0.0712  -0.0712   0.0133   0.0133
     0.2751   0.2753   0.3419   0.3420   0.5649   0.7742   0.8224   0.8224
     1.0733   1.0735   1.2021   1.2021   1.4354   1.4529   1.4529   1.8012
     1.8567   1.8571   2.1149   2.1149   2.1722   2.1724   2.2605   2.5775
     2.5778   2.7110   2.7110   2.7630   2.7630   2.8125   3.3035   3.3035
     3.3416   3.3507   3.3507   3.6318   3.6320   4.0142   4.0142   4.0542
     4.5936   4.5936   4.6325   4.6325   4.7598   4.7599   4.8419   4.8419
     5.1000   5.1002   5.1863   5.1945   5.2188   5.2341   5.2343   5.3791
     5.4558   5.4558   5.8546   5.8547   6.0045   6.0045   6.0577   6.1898
     6.2002   6.2002   6.2283   6.4025   6.4025   6.6031   6.6031   6.7562
     6.7562   6.8077   6.8250   6.9825   7.1555   7.1555   7.1606   7.3329
     7.3845   7.3845   7.4539   7.4539   7.5115   7.5115   7.6605   7.6606
     7.6628   7.6631   7.7092   7.7092   7.7260   7.7375   7.7608   7.8002
     7.8004   7.8531   7.8531   7.9806   8.0047   8.0047   8.0230   8.0230
     8.2142   8.2192   8.2192   8.4309   8.4309   8.4722   8.4722   8.4893
     8.4894   8.4992   8.4992   8.5279   8.5279   8.5752   8.6688   8.6691
     8.8400   8.8400   8.8783   8.8783   9.1210   9.2155   9.2472   9.3650
     9.3650   9.3990   9.3991   9.4080   9.5103   9.5103   9.6048   9.6133
     9.7639   9.7639   9.7790   9.8364   9.8364   9.9098   9.9098   9.9660
     9.9660  10.0482  10.0483  10.1769  10.1769  10.2188  10.2689  10.3049

     occupation numbers 
     1.0000   1.0000   1.0000   1.0000   1.0000   1.0000   1.0000   1.0000
     1.0000   1.0000   1.0000   1.0000   1.0000   1.0000   1.0000   1.0000
     1.0000   1.0000   1.0000   1.0000   1.0000   1.0000   1.0000   1.0000
     1.0000   1.0000   1.0000   1.0000   1.0000   1.0000   1.0000   1.0000
     1.0000   1.0000   1.0000   1.0000   1.0000   1.0000   1.0000   1.0000
     1.0000   1.0000   1.0000   1.0000   1.0000   1.0000   1.0000   1.0000
     1.0000   1.0000   1.0000   1.0000   1.0000   1.0000   1.0000   1.0000
     1.0000   1.0000   1.0000   1.0000   1.0000   1.0000   1.0000   1.0000
     1.0000   1.0000   1.0000   1.0000   1.0000   1.0000   1.0000   1.0000
     1.0000   1.0000   1.0000   1.0000   1.0000   1.0000   1.0000   1.0000
     1.0000   1.0000   1.0000   1.0000   1.0000   1.0000   1.0000   1.0000
     1.0000   1.0000   1.0000   1.0000   1.0000   1.0000   1.0000   1.0000
     1.0000   1.0000   1.0000   1.0000   1.0000   1.0000   1.0000   1.0000
     1.0000   1.0000   1.0000   1.0000   1.0000   1.0000   1.0000   1.0000
     1.0000   1.0000   1.0000   1.0000   1.0000   1.0000   1.0000   1.0000
     1.0000   1.0000   1.0000   1.0000   1.0000   1.0000   1.0000   1.0000
     1.0000   1.0000   1.0000   1.0000   1.0000   1.0000   1.0000   1.0000
     1.0000   1.0000   1.0000   1.0000   1.0000   1.0000   1.0000   1.0000
     1.0000   1.0000   1.0000   1.0000   1.0000   1.0000   1.0000   1.0000
     1.0000   1.0000   1.0000   1.0000   1.0000   1.0000   1.0000   1.0000
     1.0000   1.0000   1.0000   1.0000   1.0000   1.0000   1.0000   1.0000
     1.0000   1.0000   1.0000   1.0000   1.0000   1.0000   1.0000   1.0000
     1.0000   1.0000   1.0000   1.0000   1.0000   1.0000   1.0000   1.0000
     1.0000   1.0000   1.0000   1.0000   1.0000   1.0000   1.0000   1.0000
     1.0000   1.0000   1.0000   1.0000   1.0000   1.0000   1.0000   1.0000
     1.0000   1.0000   1.0000   1.0000   1.0000   1.0000   1.0000   1.0000
     1.0000   1.0000   1.0000   1.0000   1.0000   1.0000   1.0000   1.0000
     1.0000   1.0000   1.0000   1.0000   1.0000   1.0000   1.0000   1.0000
     1.0000   1.0000   1.0000   1.0000   1.0000   1.0000   1.0000   1.0000
     1.0000   1.0000   1.0000   1.0000   1.0000   1.0000   1.0000   1.0000
     1.0000   1.0000   1.0000   1.0000   1.0000   1.0000   1.0000   1.0000
     1.0000   1.0000   1.0000   1.0000   1.0000   1.0000   1.0000   1.0000
     1.0000   1.0000   1.0000   1.0000   1.0000   1.0000   1.0000   1.0000
     1.0000   1.0000   1.0000   1.0000   1.0000   1.0000   1.0000   1.0000
     1.0000   1.0000   1.0000   1.0000   1.0000   1.0000   1.0000   1.0000
     1.0000   1.0000   1.0000   1.0000   1.0000   1.0000   1.0000   1.0000
     1.0000   1.0000   1.0000   1.0000   1.0000   1.0000   1.0000   1.0000
     1.0000   1.0000   1.0000   1.0000   1.0000   1.0000   1.0000   1.0000
     1.0000   1.0000   1.0000   1.0000   1.0000   1.0000   1.0000   1.0000
     1.0000   1.0000   1.0000   1.0000   1.0000   1.0000   1.0000   1.0000
     1.0000   1.0000   1.0000   1.0000   1.0000   1.0000   1.0000   1.0000
     1.0000   1.0000   1.0000   1.0000   1.0000   1.0000   1.0000   1.0000
     1.0000   1.0000   1.0000   1.0000   1.0000   1.0000   1.0000   1.0000
     1.0000   1.0000   1.0000   1.0000   1.0000   1.0000   1.0000   1.0000
     1.0000   1.0000   1.0000   1.0000   1.0000   1.0000   1.0000   1.0000
     1.0000   1.0000   1.0000   1.0000   1.0000   1.0000   1.0000   1.0000
     1.0000   1.0000   1.0000   1.0000   1.0000   1.0000   1.0000   1.0000
     1.0000   1.0000   1.0000   1.0000   1.0000   1.0000   1.0000   1.0000
     1.0000   1.0000   1.0000   1.0000   1.0000   1.0000   1.0000   1.0000
     1.0000   1.0000   1.0000   1.0000   1.0000   1.0000   1.0000   1.0000
     1.0000   1.0000   1.0000   1.0000   1.0000   1.0000   1.0000   1.0000
     1.0000   1.0000   1.0000   1.0000   1.0000   1.0000   1.0000   1.0000
     1.0000   1.0000   1.0000   1.0000   1.0000   1.0000   1.0000   1.0000
     1.0000   1.0000   1.0000   1.0000   1.0000   1.0000   1.0000   1.0000
     1.0000   1.0000   1.0000   1.0000   1.0000   1.0000   1.0000   1.0000
     1.0000   1.0000   1.0000   1.0000   1.0000   1.0000   1.0000   1.0000
     1.0000   1.0000   1.0000   1.0000   1.0000   1.0000   1.0000   1.0000
     1.0000   1.0000   1.0000   1.0000   1.0000   1.0000   1.0000   1.0000
     1.0000   1.0000   1.0000   1.0000   1.0000   1.0000   1.0000   1.0000
     1.0000   1.0000   1.0000   1.0000   1.0000   1.0000   1.0000   1.0000
     1.0000   1.0000   1.0000   1.0000   1.0000   1.0000   1.0000   1.0000
     1.0000   1.0000   1.0000   1.0000   1.0000   1.0000   1.0000   1.0000
     1.0000   1.0000   1.0000   1.0000   1.0000   1.0000   1.0000   1.0000
     1.0000   1.0000   1.0000   1.0000   1.0000   1.0000   1.0000   1.0000
     1.0000   1.0000   1.0000   1.0000   1.0000   1.0000   1.0000   1.0000
     1.0000   1.0000   1.0000   1.0000   1.0000   1.0000   1.0000   1.0000
     1.0000   1.0000   1.0000   1.0000   1.0000   1.0000   1.0000   1.0000
     1.0000   1.0000   1.0000   1.0000   1.0000   1.0000   1.0000   1.0000
     1.0000   1.0000   1.0000   1.0000   1.0000   1.0000   1.0000   1.0000
     1.0000   1.0000   1.0000   1.0000   1.0000   1.0000   1.0000   1.0000
     1.0000   1.0000   1.0000   1.0000   1.0000   1.0000   1.0000   1.0000
     1.0000   1.0000   1.0000   1.0000   1.0000   1.0000   1.0000   1.0000
     1.0000   1.0000   1.0000   1.0000   1.0000   1.0000   1.0000   1.0000
     1.0000   1.0000   1.0000   1.0000   1.0000   1.0000   1.0000   1.0000
     1.0000   1.0000   1.0000   1.0000   1.0000   1.0000   1.0000   1.0000
     1.0000   1.0000   1.0000   1.0000   1.0000   1.0000   1.0000   1.0000
     1.0000   1.0000   1.0000   1.0000   1.0000   1.0000   1.0000   1.0000
     1.0000   1.0000   1.0000   1.0000   1.0000   1.0000   1.0000   1.0000
     1.0000   1.0000   1.0000   1.0000   1.0000   1.0000   1.0000   1.0031
     1.0067   1.0068   1.0707   1.0707   1.0827   1.0827   1.0608   0.3847
     0.3840   0.1319   0.1319   0.0772   0.0772   0.0435   0.0000   0.0000
     0.0000   0.0000   0.0000   0.0000   0.0000   0.0000   0.0000   0.0000
     0.0000   0.0000   0.0000   0.0000   0.0000   0.0000   0.0000   0.0000
     0.0000   0.0000   0.0000   0.0000   0.0000   0.0000   0.0000   0.0000
     0.0000   0.0000   0.0000   0.0000   0.0000   0.0000   0.0000   0.0000
     0.0000   0.0000   0.0000   0.0000   0.0000   0.0000   0.0000   0.0000
     0.0000   0.0000   0.0000   0.0000   0.0000   0.0000   0.0000   0.0000
     0.0000   0.0000   0.0000   0.0000   0.0000   0.0000   0.0000   0.0000
     0.0000   0.0000   0.0000   0.0000   0.0000   0.0000   0.0000   0.0000
     0.0000   0.0000   0.0000   0.0000   0.0000   0.0000   0.0000   0.0000
     0.0000   0.0000   0.0000   0.0000   0.0000   0.0000   0.0000   0.0000
     0.0000   0.0000   0.0000   0.0000   0.0000   0.0000   0.0000   0.0000
     0.0000   0.0000   0.0000   0.0000   0.0000   0.0000   0.0000   0.0000
     0.0000   0.0000   0.0000   0.0000   0.0000   0.0000   0.0000   0.0000
     0.0000   0.0000   0.0000   0.0000   0.0000   0.0000   0.0000   0.0000
     0.0000   0.0000   0.0000   0.0000   0.0000   0.0000   0.0000   0.0000

          k = 0.0000 0.3628 0.1846 ( 46763 PWs)   bands (ev):

  -124.2000-124.1996-124.1989-124.1985-124.1982-124.1980-124.1978-124.1978
  -124.1976-124.1975-124.1973-124.1971-124.1971-124.1970-124.1968-124.1968
  -124.1967-124.1964-124.1962-124.1961-124.1960-124.1959-124.1958-124.1955
  -124.1954-124.1953-124.1950-124.1950-124.1949-124.1948-124.1944-124.1944
  -123.9653-123.9651-123.9647-123.9642-123.9640-123.9639-123.9639-123.9638
  -123.9637-123.9636-123.9635-123.9634-123.9632-123.9631-123.9630-123.9629
  -123.8433-123.8428-123.8424-123.8421-123.8420-123.8418-123.8417-123.8416
  -123.8414-123.8414-123.8413-123.8412-123.8412-123.8410-123.8409-123.8408
   -78.3077 -78.3073 -78.3069 -78.3059 -78.3038 -78.3031 -78.3021 -78.3013
   -78.3012 -78.3003 -78.2998 -78.2995 -78.2991 -78.2986 -78.2985 -78.2985
   -78.2983 -78.2979 -78.2974 -78.2969 -78.2962 -78.2962 -78.2954 -78.2944
   -78.2905 -78.2876 -78.2873 -78.2869 -78.2856 -78.2856 -78.2855 -78.2846
   -78.2845 -78.2843 -78.2843 -78.2835 -78.2831 -78.2830 -78.2829 -78.2824
   -78.2818 -78.2815 -78.2813 -78.2805 -78.2805 -78.2804 -78.2803 -78.2802
   -78.2798 -78.2794 -78.2793 -78.2791 -78.2788 -78.2787 -78.2785 -78.2784
   -78.2784 -78.2783 -78.2781 -78.2778 -78.2777 -78.2776 -78.2776 -78.2775
   -78.2772 -78.2769 -78.2767 -78.2764 -78.2761 -78.2759 -78.2757 -78.2756
   -78.2755 -78.2755 -78.2752 -78.2745 -78.2744 -78.2741 -78.2739 -78.2734
   -78.2731 -78.2727 -78.2721 -78.2719 -78.2718 -78.2717 -78.2716 -78.2715
   -78.2705 -78.2702 -78.2702 -78.2693 -78.2676 -78.2662 -78.2649 -78.2623
   -78.0690 -78.0678 -78.0675 -78.0670 -78.0669 -78.0664 -78.0663 -78.0660
   -78.0659 -78.0658 -78.0654 -78.0650 -78.0649 -78.0645 -78.0636 -78.0631
   -78.0615 -78.0608 -78.0603 -78.0596 -78.0520 -78.0514 -78.0513 -78.0508
   -78.0502 -78.0499 -78.0497 -78.0493 -78.0475 -78.0474 -78.0466 -78.0457
   -78.0453 -78.0451 -78.0443 -78.0439 -78.0433 -78.0425 -78.0421 -78.0416
   -78.0380 -78.0371 -78.0356 -78.0354 -78.0348 -78.0345 -78.0324 -78.0299
   -77.9449 -77.9444 -77.9443 -77.9442 -77.9434 -77.9424 -77.9423 -77.9422
   -77.9419 -77.9416 -77.9411 -77.9410 -77.9409 -77.9408 -77.9407 -77.9393
   -77.9392 -77.9380 -77.9378 -77.9373 -77.9326 -77.9323 -77.9308 -77.9292
   -77.9290 -77.9289 -77.9286 -77.9276 -77.9269 -77.9266 -77.9260 -77.9259
   -77.9249 -77.9244 -77.9242 -77.9240 -77.9232 -77.9229 -77.9222 -77.9214
   -77.9151 -77.9141 -77.9137 -77.9135 -77.9126 -77.9115 -77.9092 -77.9077
    -7.4979  -7.0164  -6.5705  -6.3139  -6.3068  -6.2320  -5.9240  -5.9026
    -5.8807  -5.8600  -5.8353  -5.8232  -5.7966  -5.7958  -5.7952  -5.7906
    -5.7840  -5.7740  -5.7701  -5.7622  -5.7592  -5.7452  -5.7347  -5.7256
    -5.7243  -5.7087  -5.7006  -5.6800  -5.6787  -5.6785  -5.6666  -5.6643
    -5.6389  -5.6380  -5.6223  -5.6217  -5.6068  -5.6057  -5.5853  -5.5764
    -5.5653  -5.5498  -5.5474  -5.5464  -5.5375  -5.5343  -5.5338  -5.5263
    -5.5142  -5.5103  -5.5092  -5.5047  -5.5015  -5.4966  -5.4940  -5.4842
    -5.4698  -5.4462  -5.4368  -5.4184  -5.4167  -5.4162  -5.3880  -5.3863
    -5.3846  -5.3842  -5.3768  -5.3691  -5.3561  -5.3525  -5.3456  -5.3432
    -5.3397  -5.3377  -5.3353  -5.3297  -5.3284  -5.3231  -5.3081  -5.3068
    -5.3067  -5.3001  -5.2987  -5.2943  -5.2853  -5.2834  -5.2806  -5.2794
    -5.2739  -5.2733  -5.2707  -5.2672  -5.2584  -5.2479  -5.2387  -5.2225
    -5.2136  -5.2095  -5.2034  -5.1982  -5.1867  -5.1855  -5.1826  -5.1803
    -5.1693  -5.1668  -5.1584  -5.1577  -5.1562  -5.1507  -5.1488  -5.1429
    -5.1373  -5.1296  -5.1275  -5.1258  -5.1200  -5.1169  -5.1144  -5.1059
    -5.1014  -5.0919  -5.0798  -5.0760  -5.0603  -5.0483  -5.0452  -5.0378
    -5.0373  -5.0346  -5.0196  -5.0176  -5.0169  -5.0138  -4.9945  -4.9756
    -4.9720  -4.9626  -4.9612  -4.9599  -4.9583  -4.9511  -4.9495  -4.9452
    -4.9431  -4.9429  -4.9414  -4.9379  -4.9309  -4.9300  -4.9257  -4.9204
    -4.9188  -4.9176  -4.9109  -4.9092  -4.9089  -4.9069  -4.8954  -4.8865
    -4.8821  -4.8763  -4.8727  -4.8699  -4.8619  -4.8575  -4.8540  -4.8390
    -4.8343  -4.8306  -4.8290  -4.8271  -4.8228  -4.8208  -4.8117  -4.8075
    -4.8067  -4.7997  -4.7983  -4.7942  -4.7929  -4.7920  -4.7915  -4.7830
    -4.7810  -4.7807  -4.7773  -4.7713  -4.7703  -4.7582  -4.7560  -4.7547
    -4.7475  -4.7448  -4.7414  -4.7405  -4.7404  -4.7395  -4.7304  -4.7152
    -4.7070  -4.7014  -4.6958  -4.6933  -4.6863  -4.6823  -4.6821  -4.6820
    -4.6750  -4.6743  -4.6704  -4.6670  -4.6624  -4.6619  -4.6595  -4.6474
    -4.6416  -4.6400  -4.6385  -4.6368  -4.6362  -4.6332  -4.6217  -4.6174
    -4.6153  -4.6125  -4.6077  -4.6042  -4.5995  -4.5992  -4.5860  -4.5858
    -4.5795  -4.5782  -4.5770  -4.5682  -4.5661  -4.5634  -4.5618  -4.5548
    -4.5508  -4.5499  -4.5499  -4.5424  -4.5373  -4.5349  -4.5293  -4.5289
    -4.5259  -4.5236  -4.5226  -4.5210  -4.5101  -4.5056  -4.5055  -4.5035
    -4.5016  -4.4905  -4.4890  -4.4880  -4.4859  -4.4858  -4.4832  -4.4809
    -4.4795  -4.4785  -4.4724  -4.4684  -4.4599  -4.4557  -4.4548  -4.4533
    -4.4498  -4.4484  -4.4475  -4.4472  -4.4391  -4.4387  -4.4386  -4.4244
    -4.4239  -4.4203  -4.4170  -4.4163  -4.4163  -4.4147  -4.4140  -4.4106
    -4.4069  -4.4038  -4.4037  -4.4002  -4.3978  -4.3830  -4.3801  -4.3765
    -4.3746  -4.3708  -4.3707  -4.3699  -4.3669  -4.3664  -4.3599  -4.3536
    -4.3519  -4.3505  -4.3471  -4.3466  -4.3463  -4.3460  -4.3392  -4.3334
    -4.3282  -4.3261  -4.3229  -4.3131  -4.3052  -4.3017  -4.2978  -4.2861
    -4.2775  -4.2715  -4.2711  -4.2205  -4.2144  -4.2088  -4.2035  -4.0299
    -4.0185  -4.0142  -3.7844  -3.7354  -3.6900  -3.2686  -3.0396  -2.9886
    -2.7720  -2.7293  -2.5438  -2.5431  -2.2349  -2.0912  -1.9212  -1.7829
    -1.7225  -1.6828  -1.5118  -1.2936  -0.9981  -0.9126  -0.8957  -0.7586
    -0.7538  -0.5630  -0.4601  -0.4511  -0.4292  -0.3499  -0.0117   0.1173
     0.1731   0.3348   0.5164   0.5874   0.5980   0.7025   0.8761   0.8779
     1.0690   1.0909   1.2253   1.2325   1.3194   1.5176   1.5672   1.7583
     1.8408   1.8462   1.8638   2.2978   2.3221   2.3500   2.3892   2.5152
     2.6496   2.9188   2.9245   3.0268   3.1300   3.3195   3.3382   3.5253
     3.5942   3.6842   3.6979   3.7091   4.0383   4.0915   4.0928   4.1798
     4.2907   4.4281   4.4571   4.5871   4.6299   4.6404   4.7328   4.7340
     4.7516   4.9438   5.1007   5.1431   5.2922   5.3288   5.3373   5.3927
     5.4136   5.6080   5.7379   5.8629   5.8636   5.8889   5.9019   6.0909
     6.0934   6.1039   6.1817   6.2277   6.3124   6.3415   6.4283   6.4486
     6.4870   6.5145   6.5511   6.7462   6.8618   6.8712   6.8842   6.8913
     7.0229   7.0305   7.0594   7.0694   7.1398   7.1441   7.1581   7.3018
     7.3269   7.4587   7.4587   7.4908   7.6284   7.7093   7.7853   7.7939
     7.8727   7.9093   7.9214   7.9741   8.0333   8.2586   8.2742   8.2970
     8.3132   8.3312   8.3917   8.4066   8.5130   8.5477   8.5704   8.6108
     8.6315   8.6547   8.6876   8.7484   8.8748   8.8892   8.9887   9.0490
     9.0838   9.0892   9.1247   9.1605   9.1752   9.2062   9.2251   9.3120
     9.3934   9.4142   9.4776   9.4815   9.5831   9.6607   9.7031   9.7516
     9.8750   9.9004  10.0181  10.0540  10.0961  10.1005  10.1333  10.1648
    10.1759  10.2109  10.2340  10.2817  10.2869  10.2917  10.3556  10.4030

     occupation numbers 
     1.0000   1.0000   1.0000   1.0000   1.0000   1.0000   1.0000   1.0000
     1.0000   1.0000   1.0000   1.0000   1.0000   1.0000   1.0000   1.0000
     1.0000   1.0000   1.0000   1.0000   1.0000   1.0000   1.0000   1.0000
     1.0000   1.0000   1.0000   1.0000   1.0000   1.0000   1.0000   1.0000
     1.0000   1.0000   1.0000   1.0000   1.0000   1.0000   1.0000   1.0000
     1.0000   1.0000   1.0000   1.0000   1.0000   1.0000   1.0000   1.0000
     1.0000   1.0000   1.0000   1.0000   1.0000   1.0000   1.0000   1.0000
     1.0000   1.0000   1.0000   1.0000   1.0000   1.0000   1.0000   1.0000
     1.0000   1.0000   1.0000   1.0000   1.0000   1.0000   1.0000   1.0000
     1.0000   1.0000   1.0000   1.0000   1.0000   1.0000   1.0000   1.0000
     1.0000   1.0000   1.0000   1.0000   1.0000   1.0000   1.0000   1.0000
     1.0000   1.0000   1.0000   1.0000   1.0000   1.0000   1.0000   1.0000
     1.0000   1.0000   1.0000   1.0000   1.0000   1.0000   1.0000   1.0000
     1.0000   1.0000   1.0000   1.0000   1.0000   1.0000   1.0000   1.0000
     1.0000   1.0000   1.0000   1.0000   1.0000   1.0000   1.0000   1.0000
     1.0000   1.0000   1.0000   1.0000   1.0000   1.0000   1.0000   1.0000
     1.0000   1.0000   1.0000   1.0000   1.0000   1.0000   1.0000   1.0000
     1.0000   1.0000   1.0000   1.0000   1.0000   1.0000   1.0000   1.0000
     1.0000   1.0000   1.0000   1.0000   1.0000   1.0000   1.0000   1.0000
     1.0000   1.0000   1.0000   1.0000   1.0000   1.0000   1.0000   1.0000
     1.0000   1.0000   1.0000   1.0000   1.0000   1.0000   1.0000   1.0000
     1.0000   1.0000   1.0000   1.0000   1.0000   1.0000   1.0000   1.0000
     1.0000   1.0000   1.0000   1.0000   1.0000   1.0000   1.0000   1.0000
     1.0000   1.0000   1.0000   1.0000   1.0000   1.0000   1.0000   1.0000
     1.0000   1.0000   1.0000   1.0000   1.0000   1.0000   1.0000   1.0000
     1.0000   1.0000   1.0000   1.0000   1.0000   1.0000   1.0000   1.0000
     1.0000   1.0000   1.0000   1.0000   1.0000   1.0000   1.0000   1.0000
     1.0000   1.0000   1.0000   1.0000   1.0000   1.0000   1.0000   1.0000
     1.0000   1.0000   1.0000   1.0000   1.0000   1.0000   1.0000   1.0000
     1.0000   1.0000   1.0000   1.0000   1.0000   1.0000   1.0000   1.0000
     1.0000   1.0000   1.0000   1.0000   1.0000   1.0000   1.0000   1.0000
     1.0000   1.0000   1.0000   1.0000   1.0000   1.0000   1.0000   1.0000
     1.0000   1.0000   1.0000   1.0000   1.0000   1.0000   1.0000   1.0000
     1.0000   1.0000   1.0000   1.0000   1.0000   1.0000   1.0000   1.0000
     1.0000   1.0000   1.0000   1.0000   1.0000   1.0000   1.0000   1.0000
     1.0000   1.0000   1.0000   1.0000   1.0000   1.0000   1.0000   1.0000
     1.0000   1.0000   1.0000   1.0000   1.0000   1.0000   1.0000   1.0000
     1.0000   1.0000   1.0000   1.0000   1.0000   1.0000   1.0000   1.0000
     1.0000   1.0000   1.0000   1.0000   1.0000   1.0000   1.0000   1.0000
     1.0000   1.0000   1.0000   1.0000   1.0000   1.0000   1.0000   1.0000
     1.0000   1.0000   1.0000   1.0000   1.0000   1.0000   1.0000   1.0000
     1.0000   1.0000   1.0000   1.0000   1.0000   1.0000   1.0000   1.0000
     1.0000   1.0000   1.0000   1.0000   1.0000   1.0000   1.0000   1.0000
     1.0000   1.0000   1.0000   1.0000   1.0000   1.0000   1.0000   1.0000
     1.0000   1.0000   1.0000   1.0000   1.0000   1.0000   1.0000   1.0000
     1.0000   1.0000   1.0000   1.0000   1.0000   1.0000   1.0000   1.0000
     1.0000   1.0000   1.0000   1.0000   1.0000   1.0000   1.0000   1.0000
     1.0000   1.0000   1.0000   1.0000   1.0000   1.0000   1.0000   1.0000
     1.0000   1.0000   1.0000   1.0000   1.0000   1.0000   1.0000   1.0000
     1.0000   1.0000   1.0000   1.0000   1.0000   1.0000   1.0000   1.0000
     1.0000   1.0000   1.0000   1.0000   1.0000   1.0000   1.0000   1.0000
     1.0000   1.0000   1.0000   1.0000   1.0000   1.0000   1.0000   1.0000
     1.0000   1.0000   1.0000   1.0000   1.0000   1.0000   1.0000   1.0000
     1.0000   1.0000   1.0000   1.0000   1.0000   1.0000   1.0000   1.0000
     1.0000   1.0000   1.0000   1.0000   1.0000   1.0000   1.0000   1.0000
     1.0000   1.0000   1.0000   1.0000   1.0000   1.0000   1.0000   1.0000
     1.0000   1.0000   1.0000   1.0000   1.0000   1.0000   1.0000   1.0000
     1.0000   1.0000   1.0000   1.0000   1.0000   1.0000   1.0000   1.0000
     1.0000   1.0000   1.0000   1.0000   1.0000   1.0000   1.0000   1.0000
     1.0000   1.0000   1.0000   1.0000   1.0000   1.0000   1.0000   1.0000
     1.0000   1.0000   1.0000   1.0000   1.0000   1.0000   1.0000   1.0000
     1.0000   1.0000   1.0000   1.0000   1.0000   1.0000   1.0000   1.0000
     1.0000   1.0000   1.0000   1.0000   1.0000   1.0000   1.0000   1.0000
     1.0000   1.0000   1.0000   1.0000   1.0000   1.0000   1.0000   1.0000
     1.0000   1.0000   1.0000   1.0000   1.0000   1.0000   1.0000   1.0000
     1.0000   1.0000   1.0000   1.0000   1.0000   1.0000   1.0000   1.0000
     1.0000   1.0000   1.0000   1.0000   1.0000   1.0000   1.0000   1.0000
     1.0000   1.0000   1.0000   1.0000   1.0000   1.0000   1.0000   1.0000
     1.0000   1.0000   1.0000   1.0000   1.0000   1.0000   1.0000   1.0000
     1.0000   1.0000   1.0000   1.0000   1.0000   1.0000   1.0000   1.0000
     1.0000   1.0000   1.0000   1.0000   1.0000   1.0000   1.0000   1.0000
     1.0000   1.0000   1.0000   1.0000   1.0000   1.0000   1.0000   1.0000
     1.0000   1.0000   1.0000   1.0000   1.0000   1.0000   1.0000   1.0000
     1.0000   1.0000   1.0000   1.0000   1.0000   1.0000   1.0000   1.0000
     1.0000   1.0000   1.0000   1.0000   1.0000   1.0000   1.0000   1.0000
     1.0000   1.0000   1.0000   1.0000   1.0000   1.0000   1.0000   1.0000
     1.0000   1.0000   1.0000   1.0000   1.0000   1.0000   1.0000   1.0000
     1.0000   1.0000   1.0000   1.0000   1.0000   1.0000   1.0000   1.0000
     1.0000   1.0000   1.0000   1.0000   1.0000   1.0000   1.0000   1.0016
     1.0054   1.0058   1.0074   1.0281   0.9977   0.9539   0.8766   0.5491
     0.2277   0.0103   0.0094   0.0018   0.0002   0.0000   0.0000   0.0000
     0.0000   0.0000   0.0000   0.0000   0.0000   0.0000   0.0000   0.0000
     0.0000   0.0000   0.0000   0.0000   0.0000   0.0000   0.0000   0.0000
     0.0000   0.0000   0.0000   0.0000   0.0000   0.0000   0.0000   0.0000
     0.0000   0.0000   0.0000   0.0000   0.0000   0.0000   0.0000   0.0000
     0.0000   0.0000   0.0000   0.0000   0.0000   0.0000   0.0000   0.0000
     0.0000   0.0000   0.0000   0.0000   0.0000   0.0000   0.0000   0.0000
     0.0000   0.0000   0.0000   0.0000   0.0000   0.0000   0.0000   0.0000
     0.0000   0.0000   0.0000   0.0000   0.0000   0.0000   0.0000   0.0000
     0.0000   0.0000   0.0000   0.0000   0.0000   0.0000   0.0000   0.0000
     0.0000   0.0000   0.0000   0.0000   0.0000   0.0000   0.0000   0.0000
     0.0000   0.0000   0.0000   0.0000   0.0000   0.0000   0.0000   0.0000
     0.0000   0.0000   0.0000   0.0000   0.0000   0.0000   0.0000   0.0000
     0.0000   0.0000   0.0000   0.0000   0.0000   0.0000   0.0000   0.0000
     0.0000   0.0000   0.0000   0.0000   0.0000   0.0000   0.0000   0.0000
     0.0000   0.0000   0.0000   0.0000   0.0000   0.0000   0.0000   0.0000

          k = 0.3333 0.0811 0.7384 ( 46775 PWs)   bands (ev):

  -124.2008-124.2001-124.1984-124.1983-124.1981-124.1979-124.1978-124.1977
  -124.1975-124.1975-124.1975-124.1973-124.1973-124.1972-124.1971-124.1967
  -124.1964-124.1962-124.1961-124.1960-124.1960-124.1958-124.1957-124.1955
  -124.1954-124.1953-124.1952-124.1952-124.1951-124.1950-124.1948-124.1941
  -123.9652-123.9647-123.9644-123.9642-123.9641-123.9641-123.9640-123.9639
  -123.9638-123.9636-123.9636-123.9634-123.9634-123.9633-123.9632-123.9630
  -123.8429-123.8426-123.8422-123.8422-123.8421-123.8420-123.8418-123.8416
  -123.8416-123.8415-123.8414-123.8413-123.8412-123.8411-123.8410-123.8409
   -78.3109 -78.3107 -78.3074 -78.3071 -78.3063 -78.3062 -78.3053 -78.3051
   -78.3018 -78.3008 -78.2984 -78.2984 -78.2983 -78.2981 -78.2981 -78.2981
   -78.2977 -78.2976 -78.2974 -78.2969 -78.2900 -78.2899 -78.2898 -78.2897
   -78.2895 -78.2894 -78.2888 -78.2871 -78.2854 -78.2850 -78.2843 -78.2841
   -78.2840 -78.2839 -78.2832 -78.2832 -78.2831 -78.2829 -78.2822 -78.2821
   -78.2815 -78.2815 -78.2812 -78.2811 -78.2811 -78.2810 -78.2808 -78.2805
   -78.2801 -78.2799 -78.2797 -78.2795 -78.2794 -78.2793 -78.2789 -78.2789
   -78.2788 -78.2786 -78.2785 -78.2781 -78.2781 -78.2780 -78.2779 -78.2775
   -78.2775 -78.2773 -78.2771 -78.2768 -78.2766 -78.2764 -78.2762 -78.2760
   -78.2759 -78.2758 -78.2751 -78.2750 -78.2748 -78.2743 -78.2743 -78.2742
   -78.2737 -78.2735 -78.2731 -78.2731 -78.2727 -78.2726 -78.2724 -78.2719
   -78.2719 -78.2716 -78.2709 -78.2697 -78.2696 -78.2643 -78.2626 -78.2600
   -78.0689 -78.0689 -78.0677 -78.0676 -78.0673 -78.0667 -78.0665 -78.0659
   -78.0657 -78.0653 -78.0653 -78.0651 -78.0650 -78.0648 -78.0644 -78.0641
   -78.0638 -78.0636 -78.0635 -78.0631 -78.0511 -78.0484 -78.0483 -78.0478
   -78.0478 -78.0475 -78.0470 -78.0465 -78.0460 -78.0460 -78.0459 -78.0458
   -78.0454 -78.0453 -78.0443 -78.0442 -78.0437 -78.0433 -78.0430 -78.0424
   -78.0415 -78.0405 -78.0402 -78.0382 -78.0333 -78.0324 -78.0306 -78.0297
   -77.9462 -77.9451 -77.9446 -77.9434 -77.9431 -77.9428 -77.9427 -77.9425
   -77.9424 -77.9418 -77.9418 -77.9416 -77.9415 -77.9413 -77.9411 -77.9410
   -77.9409 -77.9408 -77.9400 -77.9398 -77.9313 -77.9292 -77.9281 -77.9275
   -77.9274 -77.9273 -77.9271 -77.9269 -77.9267 -77.9265 -77.9256 -77.9255
   -77.9251 -77.9249 -77.9233 -77.9226 -77.9222 -77.9221 -77.9203 -77.9202
   -77.9196 -77.9188 -77.9169 -77.9167 -77.9097 -77.9091 -77.9088 -77.9081
    -7.5248  -7.1262  -6.3742  -6.2752  -6.2232  -6.1447  -6.0910  -6.0555
    -6.0087  -5.8915  -5.8759  -5.8232  -5.8232  -5.8171  -5.8103  -5.8101
    -5.8064  -5.7973  -5.7971  -5.7877  -5.7875  -5.7678  -5.7190  -5.7108
    -5.6709  -5.6466  -5.6410  -5.6266  -5.6258  -5.6253  -5.6198  -5.5991
    -5.5990  -5.5960  -5.5881  -5.5855  -5.5834  -5.5762  -5.5719  -5.5711
    -5.5605  -5.5601  -5.5543  -5.5527  -5.5260  -5.5256  -5.5196  -5.5184
    -5.5140  -5.5135  -5.4917  -5.4855  -5.4658  -5.4637  -5.4417  -5.4375
    -5.4297  -5.4281  -5.4204  -5.4154  -5.4031  -5.3945  -5.3944  -5.3884
    -5.3865  -5.3770  -5.3758  -5.3714  -5.3711  -5.3695  -5.3644  -5.3491
    -5.3438  -5.3436  -5.3428  -5.3422  -5.3344  -5.3325  -5.3237  -5.3235
    -5.3194  -5.3168  -5.3132  -5.3128  -5.3020  -5.3006  -5.2973  -5.2827
    -5.2758  -5.2725  -5.2623  -5.2579  -5.2545  -5.2544  -5.2506  -5.2464
    -5.2429  -5.2278  -5.2126  -5.2105  -5.2085  -5.2000  -5.1896  -5.1732
    -5.1729  -5.1629  -5.1530  -5.1515  -5.1489  -5.1432  -5.1419  -5.1211
    -5.1151  -5.1117  -5.1093  -5.1093  -5.1090  -5.0919  -5.0821  -5.0818
    -5.0798  -5.0638  -5.0567  -5.0529  -5.0416  -5.0406  -5.0368  -5.0326
    -5.0318  -5.0228  -5.0211  -5.0192  -5.0149  -4.9986  -4.9983  -4.9921
    -4.9883  -4.9863  -4.9637  -4.9585  -4.9574  -4.9563  -4.9556  -4.9431
    -4.9404  -4.9307  -4.9281  -4.9251  -4.9250  -4.9234  -4.9233  -4.9203
    -4.9198  -4.9147  -4.9126  -4.9117  -4.9111  -4.9083  -4.8874  -4.8873
    -4.8869  -4.8821  -4.8758  -4.8745  -4.8665  -4.8592  -4.8541  -4.8510
    -4.8473  -4.8472  -4.8309  -4.8093  -4.8082  -4.8009  -4.7991  -4.7935
    -4.7934  -4.7932  -4.7904  -4.7893  -4.7783  -4.7775  -4.7771  -4.7740
    -4.7718  -4.7694  -4.7454  -4.7423  -4.7421  -4.7412  -4.7408  -4.7393
    -4.7381  -4.7347  -4.7250  -4.7168  -4.7158  -4.7142  -4.7134  -4.7071
    -4.7070  -4.7044  -4.6990  -4.6980  -4.6979  -4.6910  -4.6884  -4.6839
    -4.6797  -4.6738  -4.6715  -4.6680  -4.6650  -4.6641  -4.6640  -4.6550
    -4.6495  -4.6450  -4.6446  -4.6443  -4.6414  -4.6414  -4.6332  -4.6316
    -4.6306  -4.6297  -4.6260  -4.6236  -4.6223  -4.6121  -4.6109  -4.6108
    -4.6108  -4.6027  -4.6024  -4.6013  -4.5949  -4.5903  -4.5876  -4.5859
    -4.5766  -4.5748  -4.5741  -4.5738  -4.5714  -4.5701  -4.5685  -4.5680
    -4.5621  -4.5608  -4.5606  -4.5550  -4.5486  -4.5484  -4.5182  -4.5153
    -4.5150  -4.5149  -4.5105  -4.4986  -4.4966  -4.4963  -4.4888  -4.4845
    -4.4823  -4.4807  -4.4783  -4.4741  -4.4699  -4.4670  -4.4612  -4.4611
    -4.4586  -4.4573  -4.4565  -4.4521  -4.4485  -4.4462  -4.4439  -4.4301
    -4.4299  -4.4290  -4.4274  -4.4214  -4.4214  -4.4200  -4.4198  -4.4194
    -4.4124  -4.4109  -4.4066  -4.4004  -4.3924  -4.3924  -4.3851  -4.3811
    -4.3787  -4.3758  -4.3749  -4.3744  -4.3739  -4.3723  -4.3718  -4.3717
    -4.3706  -4.3639  -4.3478  -4.3478  -4.3476  -4.3469  -4.3392  -4.3001
    -4.2984  -4.2982  -4.2943  -4.2892  -4.2775  -4.2726  -4.2724  -4.2495
    -4.2488  -4.2406  -4.2347  -4.1556  -4.1555  -4.1490  -4.1478  -4.1477
    -4.0765  -4.0046  -3.8250  -3.7521  -3.6301  -3.3176  -3.2187  -3.0791
    -3.0107  -2.8367  -2.7638  -2.5705  -2.1239  -2.0661  -1.8813  -1.8475
    -1.6598  -1.4352  -1.1899  -1.1898  -1.1136  -0.9955  -0.7972  -0.5832
    -0.4694  -0.4475  -0.4209  -0.4206  -0.0152   0.0442   0.0443   0.1078
     0.2744   0.4209   0.4210   0.4878   0.5739   0.6262   0.8236   0.8238
     0.8847   0.9252   1.1991   1.2499   1.5436   1.5439   1.5530   1.5564
     1.7336   1.7467   1.9630   2.2453   2.2455   2.3282   2.3363   2.4251
     2.6229   2.8358   2.9723   3.0706   3.0708   3.2067   3.3019   3.3456
     3.3456   3.3762   3.5325   3.7487   3.7849   3.8502   3.8682   3.8854
     4.0917   4.1695   4.1696   4.2949   4.5010   4.5261   4.5263   4.8101
     4.9619   4.9621   4.9945   5.1661   5.1663   5.3364   5.3986   5.6941
     5.7016   5.7017   5.7730   5.8394   5.8958   6.0082   6.0360   6.1933
     6.2284   6.4315   6.4317   6.4349   6.5313   6.5433   6.6241   6.6877
     6.6877   6.7020   6.7608   6.7747   6.7747   6.9523   6.9667   7.0601
     7.0602   7.0759   7.0884   7.0998   7.2844   7.3414   7.4019   7.4501
     7.5097   7.5873   7.7135   7.7164   7.7355   7.7519   7.7520   7.8278
     7.8961   7.9696   7.9735   8.1601   8.1724   8.2561   8.2599   8.3973
     8.4241   8.4560   8.4749   8.5082   8.5111   8.5265   8.5728   8.5728
     8.6156   8.7027   8.8387   8.8388   8.8937   8.9258   8.9432   8.9733
     9.0407   9.0633   9.1160   9.2247   9.2248   9.2735   9.2885   9.3875
     9.4555   9.4586   9.5045   9.5217   9.5925   9.5927   9.6280   9.6631
     9.7137   9.7257   9.7603   9.7640   9.8228   9.8979   9.9024   9.9080
    10.0193  10.0277  10.0428  10.0507  10.0508  10.1776  10.1870  10.2127

     occupation numbers 
     1.0000   1.0000   1.0000   1.0000   1.0000   1.0000   1.0000   1.0000
     1.0000   1.0000   1.0000   1.0000   1.0000   1.0000   1.0000   1.0000
     1.0000   1.0000   1.0000   1.0000   1.0000   1.0000   1.0000   1.0000
     1.0000   1.0000   1.0000   1.0000   1.0000   1.0000   1.0000   1.0000
     1.0000   1.0000   1.0000   1.0000   1.0000   1.0000   1.0000   1.0000
     1.0000   1.0000   1.0000   1.0000   1.0000   1.0000   1.0000   1.0000
     1.0000   1.0000   1.0000   1.0000   1.0000   1.0000   1.0000   1.0000
     1.0000   1.0000   1.0000   1.0000   1.0000   1.0000   1.0000   1.0000
     1.0000   1.0000   1.0000   1.0000   1.0000   1.0000   1.0000   1.0000
     1.0000   1.0000   1.0000   1.0000   1.0000   1.0000   1.0000   1.0000
     1.0000   1.0000   1.0000   1.0000   1.0000   1.0000   1.0000   1.0000
     1.0000   1.0000   1.0000   1.0000   1.0000   1.0000   1.0000   1.0000
     1.0000   1.0000   1.0000   1.0000   1.0000   1.0000   1.0000   1.0000
     1.0000   1.0000   1.0000   1.0000   1.0000   1.0000   1.0000   1.0000
     1.0000   1.0000   1.0000   1.0000   1.0000   1.0000   1.0000   1.0000
     1.0000   1.0000   1.0000   1.0000   1.0000   1.0000   1.0000   1.0000
     1.0000   1.0000   1.0000   1.0000   1.0000   1.0000   1.0000   1.0000
     1.0000   1.0000   1.0000   1.0000   1.0000   1.0000   1.0000   1.0000
     1.0000   1.0000   1.0000   1.0000   1.0000   1.0000   1.0000   1.0000
     1.0000   1.0000   1.0000   1.0000   1.0000   1.0000   1.0000   1.0000
     1.0000   1.0000   1.0000   1.0000   1.0000   1.0000   1.0000   1.0000
     1.0000   1.0000   1.0000   1.0000   1.0000   1.0000   1.0000   1.0000
     1.0000   1.0000   1.0000   1.0000   1.0000   1.0000   1.0000   1.0000
     1.0000   1.0000   1.0000   1.0000   1.0000   1.0000   1.0000   1.0000
     1.0000   1.0000   1.0000   1.0000   1.0000   1.0000   1.0000   1.0000
     1.0000   1.0000   1.0000   1.0000   1.0000   1.0000   1.0000   1.0000
     1.0000   1.0000   1.0000   1.0000   1.0000   1.0000   1.0000   1.0000
     1.0000   1.0000   1.0000   1.0000   1.0000   1.0000   1.0000   1.0000
     1.0000   1.0000   1.0000   1.0000   1.0000   1.0000   1.0000   1.0000
     1.0000   1.0000   1.0000   1.0000   1.0000   1.0000   1.0000   1.0000
     1.0000   1.0000   1.0000   1.0000   1.0000   1.0000   1.0000   1.0000
     1.0000   1.0000   1.0000   1.0000   1.0000   1.0000   1.0000   1.0000
     1.0000   1.0000   1.0000   1.0000   1.0000   1.0000   1.0000   1.0000
     1.0000   1.0000   1.0000   1.0000   1.0000   1.0000   1.0000   1.0000
     1.0000   1.0000   1.0000   1.0000   1.0000   1.0000   1.0000   1.0000
     1.0000   1.0000   1.0000   1.0000   1.0000   1.0000   1.0000   1.0000
     1.0000   1.0000   1.0000   1.0000   1.0000   1.0000   1.0000   1.0000
     1.0000   1.0000   1.0000   1.0000   1.0000   1.0000   1.0000   1.0000
     1.0000   1.0000   1.0000   1.0000   1.0000   1.0000   1.0000   1.0000
     1.0000   1.0000   1.0000   1.0000   1.0000   1.0000   1.0000   1.0000
     1.0000   1.0000   1.0000   1.0000   1.0000   1.0000   1.0000   1.0000
     1.0000   1.0000   1.0000   1.0000   1.0000   1.0000   1.0000   1.0000
     1.0000   1.0000   1.0000   1.0000   1.0000   1.0000   1.0000   1.0000
     1.0000   1.0000   1.0000   1.0000   1.0000   1.0000   1.0000   1.0000
     1.0000   1.0000   1.0000   1.0000   1.0000   1.0000   1.0000   1.0000
     1.0000   1.0000   1.0000   1.0000   1.0000   1.0000   1.0000   1.0000
     1.0000   1.0000   1.0000   1.0000   1.0000   1.0000   1.0000   1.0000
     1.0000   1.0000   1.0000   1.0000   1.0000   1.0000   1.0000   1.0000
     1.0000   1.0000   1.0000   1.0000   1.0000   1.0000   1.0000   1.0000
     1.0000   1.0000   1.0000   1.0000   1.0000   1.0000   1.0000   1.0000
     1.0000   1.0000   1.0000   1.0000   1.0000   1.0000   1.0000   1.0000
     1.0000   1.0000   1.0000   1.0000   1.0000   1.0000   1.0000   1.0000
     1.0000   1.0000   1.0000   1.0000   1.0000   1.0000   1.0000   1.0000
     1.0000   1.0000   1.0000   1.0000   1.0000   1.0000   1.0000   1.0000
     1.0000   1.0000   1.0000   1.0000   1.0000   1.0000   1.0000   1.0000
     1.0000   1.0000   1.0000   1.0000   1.0000   1.0000   1.0000   1.0000
     1.0000   1.0000   1.0000   1.0000   1.0000   1.0000   1.0000   1.0000
     1.0000   1.0000   1.0000   1.0000   1.0000   1.0000   1.0000   1.0000
     1.0000   1.0000   1.0000   1.0000   1.0000   1.0000   1.0000   1.0000
     1.0000   1.0000   1.0000   1.0000   1.0000   1.0000   1.0000   1.0000
     1.0000   1.0000   1.0000   1.0000   1.0000   1.0000   1.0000   1.0000
     1.0000   1.0000   1.0000   1.0000   1.0000   1.0000   1.0000   1.0000
     1.0000   1.0000   1.0000   1.0000   1.0000   1.0000   1.0000   1.0000
     1.0000   1.0000   1.0000   1.0000   1.0000   1.0000   1.0000   1.0000
     1.0000   1.0000   1.0000   1.0000   1.0000   1.0000   1.0000   1.0000
     1.0000   1.0000   1.0000   1.0000   1.0000   1.0000   1.0000   1.0000
     1.0000   1.0000   1.0000   1.0000   1.0000   1.0000   1.0000   1.0000
     1.0000   1.0000   1.0000   1.0000   1.0000   1.0000   1.0000   1.0000
     1.0000   1.0000   1.0000   1.0000   1.0000   1.0000   1.0000   1.0000
     1.0000   1.0000   1.0000   1.0000   1.0000   1.0000   1.0000   1.0000
     1.0000   1.0000   1.0000   1.0000   1.0000   1.0000   1.0000   1.0000
     1.0000   1.0000   1.0000   1.0000   1.0000   1.0000   1.0000   1.0000
     1.0000   1.0000   1.0000   1.0000   1.0000   1.0000   1.0000   1.0000
     1.0000   1.0000   1.0000   1.0000   1.0000   1.0000   1.0000   1.0000
     1.0000   1.0000   1.0000   1.0000   1.0000   1.0000   1.0000   1.0000
     1.0000   1.0000   1.0000   1.0000   1.0000   1.0000   1.0000   1.0000
     1.0000   1.0000   1.0000   1.0000   1.0000   1.0000   1.0000   1.0000
     1.0000   1.0000   1.0000   1.0000   1.0000   1.0000   1.0000   1.0000
     1.0000   1.0000   1.0000   1.0000   1.0000   1.0000   1.0000   1.0000
     1.0010   1.0013   1.0233   1.0696   1.0695   0.9890   0.9766   0.7922
     0.2804   0.0325   0.0044   0.0008   0.0008   0.0000   0.0000   0.0000
     0.0000   0.0000   0.0000   0.0000   0.0000   0.0000   0.0000   0.0000
     0.0000   0.0000   0.0000   0.0000   0.0000   0.0000   0.0000   0.0000
     0.0000   0.0000   0.0000   0.0000   0.0000   0.0000   0.0000   0.0000
     0.0000   0.0000   0.0000   0.0000   0.0000   0.0000   0.0000   0.0000
     0.0000   0.0000   0.0000   0.0000   0.0000   0.0000   0.0000   0.0000
     0.0000   0.0000   0.0000   0.0000   0.0000   0.0000   0.0000   0.0000
     0.0000   0.0000   0.0000   0.0000   0.0000   0.0000   0.0000   0.0000
     0.0000   0.0000   0.0000   0.0000   0.0000   0.0000   0.0000   0.0000
     0.0000   0.0000   0.0000   0.0000   0.0000   0.0000   0.0000   0.0000
     0.0000   0.0000   0.0000   0.0000   0.0000   0.0000   0.0000   0.0000
     0.0000   0.0000   0.0000   0.0000   0.0000   0.0000   0.0000   0.0000
     0.0000   0.0000   0.0000   0.0000   0.0000   0.0000   0.0000   0.0000
     0.0000   0.0000   0.0000   0.0000   0.0000   0.0000   0.0000   0.0000
     0.0000   0.0000   0.0000   0.0000   0.0000   0.0000   0.0000   0.0000
     0.0000   0.0000   0.0000   0.0000   0.0000   0.0000   0.0000   0.0000

          k = 0.3333 0.4439 0.9230 ( 46734 PWs)   bands (ev):

  -124.2000-124.1996-124.1985-124.1982-124.1979-124.1979-124.1978-124.1977
  -124.1977-124.1975-124.1973-124.1972-124.1970-124.1970-124.1970-124.1967
  -124.1966-124.1964-124.1961-124.1960-124.1959-124.1958-124.1958-124.1955
  -124.1953-124.1952-124.1951-124.1949-124.1948-124.1947-124.1944-124.1944
  -123.9648-123.9646-123.9644-123.9643-123.9641-123.9639-123.9638-123.9638
  -123.9637-123.9637-123.9636-123.9635-123.9632-123.9631-123.9631-123.9629
  -123.8426-123.8424-123.8423-123.8421-123.8420-123.8418-123.8418-123.8417
  -123.8414-123.8414-123.8413-123.8412-123.8411-123.8410-123.8409-123.8408
   -78.3070 -78.3058 -78.3046 -78.3044 -78.3036 -78.3032 -78.3030 -78.3003
   -78.3001 -78.2999 -78.2992 -78.2989 -78.2985 -78.2985 -78.2982 -78.2982
   -78.2978 -78.2976 -78.2974 -78.2967 -78.2962 -78.2961 -78.2955 -78.2945
   -78.2874 -78.2867 -78.2865 -78.2864 -78.2860 -78.2851 -78.2850 -78.2846
   -78.2846 -78.2846 -78.2837 -78.2835 -78.2834 -78.2833 -78.2828 -78.2825
   -78.2822 -78.2817 -78.2813 -78.2812 -78.2805 -78.2804 -78.2803 -78.2801
   -78.2798 -78.2797 -78.2795 -78.2792 -78.2791 -78.2789 -78.2788 -78.2782
   -78.2780 -78.2780 -78.2779 -78.2777 -78.2775 -78.2774 -78.2772 -78.2771
   -78.2771 -78.2770 -78.2769 -78.2766 -78.2764 -78.2760 -78.2757 -78.2753
   -78.2752 -78.2746 -78.2746 -78.2742 -78.2741 -78.2739 -78.2736 -78.2734
   -78.2732 -78.2726 -78.2720 -78.2720 -78.2718 -78.2717 -78.2716 -78.2707
   -78.2704 -78.2701 -78.2699 -78.2695 -78.2683 -78.2657 -78.2646 -78.2612
   -78.0675 -78.0670 -78.0669 -78.0667 -78.0663 -78.0662 -78.0661 -78.0660
   -78.0654 -78.0652 -78.0650 -78.0646 -78.0645 -78.0639 -78.0638 -78.0636
   -78.0620 -78.0602 -78.0590 -78.0580 -78.0515 -78.0513 -78.0503 -78.0499
   -78.0497 -78.0495 -78.0485 -78.0480 -78.0477 -78.0476 -78.0464 -78.0462
   -78.0458 -78.0454 -78.0451 -78.0448 -78.0447 -78.0443 -78.0439 -78.0423
   -78.0380 -78.0372 -78.0357 -78.0347 -78.0337 -78.0319 -78.0314 -78.0307
   -77.9443 -77.9441 -77.9436 -77.9434 -77.9432 -77.9424 -77.9423 -77.9422
   -77.9416 -77.9413 -77.9410 -77.9410 -77.9408 -77.9407 -77.9402 -77.9389
   -77.9384 -77.9382 -77.9373 -77.9350 -77.9310 -77.9294 -77.9290 -77.9289
   -77.9285 -77.9281 -77.9279 -77.9277 -77.9270 -77.9267 -77.9265 -77.9262
   -77.9260 -77.9259 -77.9251 -77.9241 -77.9240 -77.9236 -77.9235 -77.9228
   -77.9150 -77.9144 -77.9135 -77.9125 -77.9111 -77.9107 -77.9086 -77.9074
    -7.2919  -7.0940  -7.0164  -6.3139  -6.0949  -5.9990  -5.9905  -5.9453
    -5.9025  -5.8807  -5.8242  -5.8231  -5.8119  -5.8090  -5.8012  -5.7893
    -5.7871  -5.7742  -5.7677  -5.7676  -5.7592  -5.7589  -5.7570  -5.7379
    -5.7346  -5.7206  -5.7090  -5.7002  -5.6799  -5.6782  -5.6666  -5.6647
    -5.6389  -5.6379  -5.6056  -5.5654  -5.5646  -5.5615  -5.5551  -5.5509
    -5.5498  -5.5471  -5.5398  -5.5377  -5.5352  -5.5338  -5.5209  -5.5140
    -5.5108  -5.5062  -5.5048  -5.5019  -5.4964  -5.4934  -5.4850  -5.4772
    -5.4700  -5.4425  -5.4368  -5.4229  -5.4185  -5.4168  -5.3935  -5.3866
    -5.3844  -5.3840  -5.3824  -5.3770  -5.3725  -5.3656  -5.3581  -5.3557
    -5.3423  -5.3398  -5.3372  -5.3355  -5.3258  -5.3201  -5.3182  -5.3072
    -5.3070  -5.3069  -5.3067  -5.2987  -5.2962  -5.2941  -5.2939  -5.2852
    -5.2837  -5.2805  -5.2759  -5.2734  -5.2670  -5.2614  -5.2585  -5.2438
    -5.2386  -5.2224  -5.2135  -5.2094  -5.1868  -5.1804  -5.1763  -5.1686
    -5.1667  -5.1641  -5.1589  -5.1582  -5.1563  -5.1508  -5.1456  -5.1374
    -5.1297  -5.1192  -5.1162  -5.1144  -5.1131  -5.1078  -5.1056  -5.0925
    -5.0920  -5.0783  -5.0752  -5.0649  -5.0602  -5.0564  -5.0483  -5.0452
    -5.0374  -5.0275  -5.0159  -5.0139  -5.0033  -4.9946  -4.9916  -4.9884
    -4.9757  -4.9638  -4.9626  -4.9609  -4.9599  -4.9574  -4.9494  -4.9430
    -4.9427  -4.9403  -4.9389  -4.9340  -4.9310  -4.9297  -4.9228  -4.9204
    -4.9160  -4.9096  -4.8953  -4.8890  -4.8869  -4.8867  -4.8844  -4.8819
    -4.8793  -4.8775  -4.8730  -4.8701  -4.8695  -4.8620  -4.8589  -4.8537
    -4.8358  -4.8344  -4.8304  -4.8285  -4.8274  -4.8260  -4.8240  -4.8228
    -4.8208  -4.8179  -4.8119  -4.8077  -4.8065  -4.7999  -4.7941  -4.7928
    -4.7828  -4.7809  -4.7806  -4.7793  -4.7767  -4.7703  -4.7672  -4.7573
    -4.7536  -4.7477  -4.7462  -4.7412  -4.7404  -4.7340  -4.7306  -4.7254
    -4.7150  -4.7069  -4.7049  -4.6932  -4.6930  -4.6864  -4.6824  -4.6821
    -4.6743  -4.6705  -4.6671  -4.6624  -4.6603  -4.6596  -4.6584  -4.6474
    -4.6370  -4.6361  -4.6333  -4.6286  -4.6216  -4.6172  -4.6149  -4.6119
    -4.6041  -4.6012  -4.6004  -4.5992  -4.5981  -4.5971  -4.5954  -4.5899
    -4.5890  -4.5860  -4.5858  -4.5803  -4.5795  -4.5770  -4.5720  -4.5660
    -4.5619  -4.5548  -4.5498  -4.5483  -4.5388  -4.5289  -4.5285  -4.5279
    -4.5276  -4.5226  -4.5211  -4.5135  -4.5098  -4.5082  -4.5054  -4.5041
    -4.5034  -4.4891  -4.4881  -4.4860  -4.4858  -4.4842  -4.4834  -4.4782
    -4.4753  -4.4750  -4.4684  -4.4600  -4.4575  -4.4546  -4.4485  -4.4475
    -4.4470  -4.4393  -4.4384  -4.4372  -4.4344  -4.4333  -4.4297  -4.4234
    -4.4200  -4.4185  -4.4167  -4.4158  -4.4146  -4.4141  -4.4104  -4.4069
    -4.4051  -4.4017  -4.4005  -4.4001  -4.3991  -4.3977  -4.3766  -4.3709
    -4.3702  -4.3698  -4.3687  -4.3680  -4.3664  -4.3650  -4.3598  -4.3519
    -4.3510  -4.3505  -4.3474  -4.3472  -4.3468  -4.3367  -4.3333  -4.3281
    -4.3277  -4.3272  -4.3261  -4.3064  -4.2997  -4.2942  -4.2866  -4.2817
    -4.2783  -4.2710  -4.2650  -4.2210  -4.2077  -4.1996  -4.1857  -4.0295
    -4.0183  -3.7959  -3.7846  -3.7358  -3.2512  -3.0539  -3.0394  -2.9885
    -2.9049  -2.8935  -2.7720  -2.6506  -2.5433  -2.0909  -2.0513  -1.9451
    -1.9213  -1.7280  -1.7226  -1.5268  -0.9980  -0.8957  -0.7588  -0.7536
    -0.6599  -0.6346  -0.4512  -0.4292  -0.2423  -0.1964  -0.0116   0.0144
     0.0146   0.1174   0.3148   0.5873   0.8696   0.8778   1.1454   1.2326
     1.3196   1.3252   1.4909   1.6821   1.6986   1.7583   1.8408   1.8639
     1.8725   1.9009   2.2162   2.2286   2.2977   2.3500   2.3892   2.4663
     2.5276   2.5375   2.5580   2.8324   2.8378   3.1301   3.3195   3.3383
     3.5254   3.5702   3.6638   3.6844   3.7205   4.0272   4.0383   4.0829
     4.1798   4.2907   4.2936   4.4521   4.4571   4.4644   4.6297   4.7328
     4.7339   4.7468   4.9836   5.1007   5.2045   5.2923   5.3371   5.3927
     5.3952   5.5962   5.7233   5.7380   5.7799   5.8022   5.8135   5.8889
     5.9019   5.9031   6.3106   6.3125   6.3415   6.3555   6.4283   6.5511
     6.5653   6.6047   6.7926   6.8603   6.8617   6.8713   6.8913   6.9483
     7.0594   7.0694   7.1441   7.1582   7.1859   7.2205   7.2536   7.3269
     7.3351   7.4586   7.5895   7.6284   7.7847   7.7853   7.8245   7.8273
     7.8727   7.9213   7.9741   8.0196   8.2586   8.3132   8.3313   8.3313
     8.3894   8.3917   8.5920   8.6108   8.6210   8.6546   8.7163   8.7485
     8.7621   8.8748   8.8891   9.0072   9.0490   9.0725   9.0892   9.0926
     9.1247   9.1303   9.1751   9.2061   9.2167   9.2205   9.3120   9.3737
     9.4142   9.4776   9.4814   9.5267   9.5337   9.6214   9.7516   9.7641
     9.8750   9.8972   9.9004   9.9815  10.0540  10.0961  10.1252  10.1333
    10.1724  10.1759  10.2108  10.2339  10.2421  10.2917  10.3105  10.4322

     occupation numbers 
     1.0000   1.0000   1.0000   1.0000   1.0000   1.0000   1.0000   1.0000
     1.0000   1.0000   1.0000   1.0000   1.0000   1.0000   1.0000   1.0000
     1.0000   1.0000   1.0000   1.0000   1.0000   1.0000   1.0000   1.0000
     1.0000   1.0000   1.0000   1.0000   1.0000   1.0000   1.0000   1.0000
     1.0000   1.0000   1.0000   1.0000   1.0000   1.0000   1.0000   1.0000
     1.0000   1.0000   1.0000   1.0000   1.0000   1.0000   1.0000   1.0000
     1.0000   1.0000   1.0000   1.0000   1.0000   1.0000   1.0000   1.0000
     1.0000   1.0000   1.0000   1.0000   1.0000   1.0000   1.0000   1.0000
     1.0000   1.0000   1.0000   1.0000   1.0000   1.0000   1.0000   1.0000
     1.0000   1.0000   1.0000   1.0000   1.0000   1.0000   1.0000   1.0000
     1.0000   1.0000   1.0000   1.0000   1.0000   1.0000   1.0000   1.0000
     1.0000   1.0000   1.0000   1.0000   1.0000   1.0000   1.0000   1.0000
     1.0000   1.0000   1.0000   1.0000   1.0000   1.0000   1.0000   1.0000
     1.0000   1.0000   1.0000   1.0000   1.0000   1.0000   1.0000   1.0000
     1.0000   1.0000   1.0000   1.0000   1.0000   1.0000   1.0000   1.0000
     1.0000   1.0000   1.0000   1.0000   1.0000   1.0000   1.0000   1.0000
     1.0000   1.0000   1.0000   1.0000   1.0000   1.0000   1.0000   1.0000
     1.0000   1.0000   1.0000   1.0000   1.0000   1.0000   1.0000   1.0000
     1.0000   1.0000   1.0000   1.0000   1.0000   1.0000   1.0000   1.0000
     1.0000   1.0000   1.0000   1.0000   1.0000   1.0000   1.0000   1.0000
     1.0000   1.0000   1.0000   1.0000   1.0000   1.0000   1.0000   1.0000
     1.0000   1.0000   1.0000   1.0000   1.0000   1.0000   1.0000   1.0000
     1.0000   1.0000   1.0000   1.0000   1.0000   1.0000   1.0000   1.0000
     1.0000   1.0000   1.0000   1.0000   1.0000   1.0000   1.0000   1.0000
     1.0000   1.0000   1.0000   1.0000   1.0000   1.0000   1.0000   1.0000
     1.0000   1.0000   1.0000   1.0000   1.0000   1.0000   1.0000   1.0000
     1.0000   1.0000   1.0000   1.0000   1.0000   1.0000   1.0000   1.0000
     1.0000   1.0000   1.0000   1.0000   1.0000   1.0000   1.0000   1.0000
     1.0000   1.0000   1.0000   1.0000   1.0000   1.0000   1.0000   1.0000
     1.0000   1.0000   1.0000   1.0000   1.0000   1.0000   1.0000   1.0000
     1.0000   1.0000   1.0000   1.0000   1.0000   1.0000   1.0000   1.0000
     1.0000   1.0000   1.0000   1.0000   1.0000   1.0000   1.0000   1.0000
     1.0000   1.0000   1.0000   1.0000   1.0000   1.0000   1.0000   1.0000
     1.0000   1.0000   1.0000   1.0000   1.0000   1.0000   1.0000   1.0000
[...]
     atom   38 type  1   force =     0.00000000    0.00000000    0.00000000
     atom   39 type  1   force =     0.00000000    0.00000000    0.00000000
     atom   40 type  1   force =     0.00000000    0.00000000    0.00000000
     atom   41 type  1   force =     0.00000000    0.00000000    0.00000000
     atom   42 type  1   force =     0.00000000    0.00000000    0.00000000
     atom   43 type  1   force =     0.00000000    0.00000000    0.00000000
     atom   44 type  1   force =     0.00000000    0.00000000    0.00000000
     atom   45 type  1   force =     0.00000000    0.00000000    0.00000000
     atom   46 type  1   force =     0.00000000    0.00000000    0.00000000
     atom   47 type  1   force =     0.00000000    0.00000000    0.00000000
     atom   48 type  1   force =     0.00000000    0.00000000    0.00000000
     atom   49 type  1   force =     0.00000000    0.00000000    0.00000000
     atom   50 type  1   force =     0.00000000    0.00000000    0.00000000
     atom   51 type  1   force =     0.00000000    0.00000000    0.00000000
     atom   52 type  1   force =     0.00000000    0.00000000    0.00000000
     atom   53 type  1   force =     0.00000000    0.00000000    0.00000000
     atom   54 type  1   force =     0.00000000    0.00000000    0.00000000
     atom   55 type  1   force =     0.00000000    0.00000000    0.00000000
     atom   56 type  1   force =     0.00000000    0.00000000    0.00000000
     atom   57 type  1   force =     0.00000000    0.00000000    0.00000000
     atom   58 type  1   force =     0.00000000    0.00000000    0.00000000
     atom   59 type  1   force =     0.00000000    0.00000000    0.00000000
     atom   60 type  1   force =     0.00000000    0.00000000    0.00000000
     atom   61 type  1   force =     0.00000000    0.00000000    0.00000000
     atom   62 type  1   force =     0.00000000    0.00000000    0.00000000
     atom   63 type  1   force =     0.00000000    0.00000000    0.00000000
     atom   64 type  1   force =     0.00000000    0.00000000    0.00000000
     The SCF correction term to forces
     atom    1 type  1   force =    -0.00000000    0.00000000   -0.00000000
     atom    2 type  1   force =    -0.00000000   -0.00000000   -0.00000000
     atom    3 type  1   force =     0.00000000    0.00000000   -0.00000000
     atom    4 type  1   force =     0.00000000   -0.00000000   -0.00000000
     atom    5 type  1   force =     0.00002316    0.00004750    0.00009282
     atom    6 type  1   force =     0.00002918   -0.00003513    0.00007287
     atom    7 type  1   force =    -0.00005046    0.00000211    0.00002249
     atom    8 type  1   force =    -0.00004922   -0.00002649   -0.00000371
     atom    9 type  1   force =    -0.00000000   -0.00000000   -0.00000000
     atom   10 type  1   force =    -0.00000000   -0.00000000   -0.00000000
     atom   11 type  1   force =     0.00000000    0.00000000   -0.00000000
     atom   12 type  1   force =     0.00000000   -0.00000000   -0.00000000
     atom   13 type  1   force =     0.00002443    0.00003708    0.00008669
     atom   14 type  1   force =     0.00002805   -0.00002445    0.00007745
     atom   15 type  1   force =    -0.00004385    0.00001497    0.00000442
     atom   16 type  1   force =    -0.00005556   -0.00003878    0.00001331
     atom   17 type  1   force =     0.00000000    0.00000000   -0.00000000
     atom   18 type  1   force =     0.00000000   -0.00000000   -0.00000000
     atom   19 type  1   force =    -0.00000000    0.00000000    0.00000000
     atom   20 type  1   force =    -0.00000000   -0.00000000    0.00000000
     atom   21 type  1   force =    -0.00005382    0.00002028    0.00003763
     atom   22 type  1   force =    -0.00005948   -0.00004782    0.00001473
     atom   23 type  1   force =     0.00002776    0.00002431    0.00003256
     atom   24 type  1   force =     0.00002751   -0.00001024    0.00000434
     atom   25 type  1   force =     0.00000000    0.00000000   -0.00000000
     atom   26 type  1   force =     0.00000000    0.00000000   -0.00000000
     atom   27 type  1   force =    -0.00000000    0.00000000    0.00000000
     atom   28 type  1   force =    -0.00000000   -0.00000000    0.00000000
     atom   29 type  1   force =    -0.00005472    0.00001673    0.00002268
     atom   30 type  1   force =    -0.00005836   -0.00004478    0.00002994
     atom   31 type  1   force =     0.00002128    0.00004187    0.00001595
     atom   32 type  1   force =     0.00003354   -0.00002748    0.00002140
     atom   33 type  1   force =     0.00000000    0.00000000   -0.00000000
     atom   34 type  1   force =     0.00000000   -0.00000000   -0.00000000
     atom   35 type  1   force =    -0.00000000    0.00000000   -0.00000000
     atom   36 type  1   force =    -0.00000000   -0.00000000   -0.00000000
     atom   37 type  1   force =     0.00006466    0.00003360    0.00006674
     atom   38 type  1   force =     0.00006323   -0.00000342    0.00005568
     atom   39 type  1   force =     0.00001338    0.00000978    0.00004443
     atom   40 type  1   force =     0.00002486   -0.00000067    0.00001638
     atom   41 type  1   force =     0.00000000    0.00000000   -0.00000000
     atom   42 type  1   force =     0.00000000   -0.00000000   -0.00000000
     atom   43 type  1   force =    -0.00000000    0.00000000   -0.00000000
     atom   44 type  1   force =    -0.00000000   -0.00000000   -0.00000000
     atom   45 type  1   force =     0.00006118    0.00006244    0.00006667
     atom   46 type  1   force =     0.00006662   -0.00003183    0.00005639
     atom   47 type  1   force =     0.00001912    0.00004351    0.00003332
     atom   48 type  1   force =     0.00001944   -0.00003441    0.00002742
     atom   49 type  1   force =    -0.00000000    0.00000000   -0.00000000
     atom   50 type  1   force =    -0.00000000   -0.00000000   -0.00000000
     atom   51 type  1   force =     0.00000000    0.00000000    0.00000000
     atom   52 type  1   force =     0.00000000   -0.00000000   -0.00000000
     atom   53 type  1   force =    -0.00004625    0.00001136    0.00003968
     atom   54 type  1   force =    -0.00004404   -0.00003407    0.00001401
     atom   55 type  1   force =     0.00001353   -0.00000193    0.00000773
     atom   56 type  1   force =     0.00000322    0.00000607   -0.00001511
     atom   57 type  1   force =    -0.00000000    0.00000000   -0.00000000
     atom   58 type  1   force =    -0.00000000   -0.00000000   -0.00000000
     atom   59 type  1   force =     0.00000000    0.00000000    0.00000000
     atom   60 type  1   force =     0.00000000   -0.00000000   -0.00000000
     atom   61 type  1   force =    -0.00004157    0.00003352    0.00003636
     atom   62 type  1   force =    -0.00004892   -0.00005595    0.00001727
     atom   63 type  1   force =     0.00000845    0.00003764   -0.00000022
     atom   64 type  1   force =     0.00000844   -0.00003300   -0.00000732

     Total force =     0.002152     Total SCF correction =     0.000380
     SCF correction compared to forces is large: reduce conv_thr to get better values


     Computing stress (Cartesian axis) and pressure

          total   stress  (Ry/bohr**3)                   (kbar)     P=     -281.58
  -0.00198820  -0.00002330   0.00002702         -292.47       -3.43        3.97
  -0.00002330  -0.00192021   0.00000427           -3.43     -282.47        0.63
   0.00002702   0.00000427  -0.00183404            3.97        0.63     -269.80

     kinetic stress (kbar)  15082.56      6.25     -5.86
                                6.25  15053.69     -1.33
                               -5.86     -1.33  15108.23

     local   stress (kbar)**********   3424.25  -2315.86
                             3424.25**********   -559.00
                            -2315.86   -559.001207901.91

     nonloc. stress (kbar)  -1861.25     -6.81      4.48
                               -6.81  -1835.02      0.89
                                4.48      0.89  -1870.05

     hartree stress (kbar) 630437.70  -1471.35    970.73
                            -1471.35 636127.22    234.37
                              970.73    234.37-562371.07

     exc-cor stress (kbar)  -7542.39     -0.91      0.64
                               -0.91  -7538.92      0.16
                                0.64      0.16  -7545.64

     corecor stress (kbar)      0.00      0.00      0.00
                                0.00      0.00      0.00
                                0.00      0.00      0.00

     ewald   stress (kbar) 557232.83  -1954.86   1349.83
                            -1954.86 564795.07    325.54
                             1349.83    325.54-651493.18

     hubbard stress (kbar)      0.00      0.00      0.00
                                0.00      0.00      0.00
                                0.00      0.00      0.00

     DFT-D   stress (kbar)      0.00      0.00      0.00
                                0.00      0.00      0.00
                                0.00      0.00      0.00

     XDM     stress (kbar)      0.00      0.00      0.00
                                0.00      0.00      0.00
                                0.00      0.00      0.00

     dft-nl  stress (kbar)      0.00      0.00      0.00
                                0.00      0.00      0.00
                                0.00      0.00      0.00

     TS-vdW  stress (kbar)      0.00      0.00      0.00
                                0.00      0.00      0.00
                                0.00      0.00      0.00

     MDB     stress (kbar)      0.00      0.00      0.00
                                0.00      0.00      0.00
                                0.00      0.00      0.00

     3D-RISM stress (kbar)      0.00      0.00      0.00
                                0.00      0.00      0.00
                                0.00      0.00      0.00

     Energy error            =      7.9E-06 Ry
     Gradient error          =      4.6E-04 Ry/Bohr

     bfgs converged in  26 scf cycles and  25 bfgs steps
     (criteria: energy <  1.0E-05 Ry, force <  5.0E-04 Ry/Bohr)

     End of BFGS Geometry Optimization

     Final energy             =  -29534.9999739547 Ry

     File ./tmp/Zn101_2x4x4_relax_ecutrho250_ecutwfc25.bfgs deleted, as requested
Begin final coordinates

ATOMIC_POSITIONS (angstrom)
Zn              -1.0735556040        1.0841422490        1.1977635440    0   0   0
Zn              -2.3094850350        6.1646922450        1.1977635440    0   0   0
Zn              -5.3677775260        0.0395003770        3.2510723350    0   0   0
Zn              -6.6037069570        5.1200503720        3.2510723350    0   0   0
Zn              -9.7089195560       -1.0153197644        5.5574001830
Zn             -10.9444612646        4.0651762061        5.5568475472
Zn             -13.7214416351       -1.9892533076        7.6431184026
Zn             -14.9564813252        3.0909243841        7.6428892457
Zn              -1.6915203190        3.6244172470        1.1977635440    0   0   0
Zn              -2.9274497510        8.7049672430        1.1977635440    0   0   0
Zn              -5.9857422410        2.5797753750        3.2510723350    0   0   0
Zn              -7.2216716720        7.6603253700        3.2510723350    0   0   0
Zn             -10.3264176447        1.5250682890        5.5573868096
Zn             -11.5628996562        6.6053331603        5.5568587833
Zn             -14.3383823334        0.5510568695        7.6424277911
Zn             -15.5754934006        5.6311441713        7.6435787065
Zn               4.4565957630        1.0841422490        1.1977635440    0   0   0
Zn               3.2206663320        6.1646922450        1.1977635440    0   0   0
Zn               0.1623738410        0.0395003770        3.2510723350    0   0   0
Zn              -1.0735555900        5.1200503720        3.2510723350    0   0   0
Zn              -4.1792282939       -1.0153627723        5.5588462762
Zn              -5.4152205082        4.0648737576        5.5585311673
Zn              -8.1948587992       -1.9906576436        7.6440654325
Zn              -9.4313594711        3.0902266224        7.6447699490
Zn               3.8386310480        3.6244172470        1.1977635440    0   0   0
Zn               2.6027016170        8.7049672430        1.1977635440    0   0   0
Zn              -0.4555908740        2.5797753750        3.2510723350    0   0   0
Zn              -1.6915203050        7.6603253700        3.2510723350    0   0   0
Zn              -4.7972853979        1.5244358199        5.5588288137
Zn              -6.0330863402        6.6056334593        5.5585535707
Zn              -8.8134310459        0.5494463339        7.6447235255
Zn             -10.0487061162        5.6306716810        7.6441212823
Zn               1.6915203330        0.4114908770        0.8555452480    0   0   0
Zn               0.4555909020        5.4920408730        0.8555452480    0   0   0
Zn              -2.6027015890       -0.6331509950        2.9088540390    0   0   0
Zn              -3.8386310200        4.4473990010        2.9088540390    0   0   0
Zn              -6.9469216156       -1.6917672198        5.0366214099
Zn              -8.1827395462        3.3890769520        5.0367887488
Zn             -11.1182059302       -2.7018510587        7.3039457638
Zn             -12.3529337251        2.3791608544        7.3040019961
Zn               1.0735556170        2.9517658750        0.8555452480    0   0   0
Zn              -0.1623738140        8.0323158710        0.8555452480    0   0   0
Zn              -3.2206663040        1.9071240030        2.9088540390    0   0   0
Zn              -4.4565957350        6.9876739990        2.9088540390    0   0   0
Zn              -7.5649765968        0.8484405585        5.0367436921
Zn              -8.8005772481        5.9294148523        5.0366560249
Zn             -11.7355211386       -0.1613220661        7.3041997017
Zn             -12.9715639520        4.9192102454        7.3037498091
Zn               7.2216717000        0.4114908770        0.8555452480    0   0   0
Zn               5.9857422690        5.4920408730        0.8555452480    0   0   0
Zn               2.9274497780       -0.6331509950        2.9088540390    0   0   0
Zn               1.6915203470        4.4473990010        2.9088540390    0   0   0
Zn              -1.4162111914       -1.6911008414        5.0365779004
Zn              -2.6518817476        3.3887563827        5.0360840250
Zn              -5.5909851415       -2.7022171332        7.3034669440
Zn              -6.8276480205        2.3775479218        7.3037436654
Zn               6.6037069850        2.9517658750        0.8555452480    0   0   0
Zn               5.3677775540        8.0323158710        0.8555452480    0   0   0
Zn               2.3094850630        1.9071240030        2.9088540390    0   0   0
Zn               1.0735556320        6.9876739990        2.9088540390    0   0   0
Zn              -2.0337195757        0.8489305936        5.0365785276
Zn              -3.2702789950        5.9292477955        5.0360658650
Zn              -6.2095605799       -0.1625612169        7.3031397682
Zn              -7.4450153871        4.9184572000        7.3040810687
End final coordinates



     Writing all to output data dir ./tmp/Zn101_2x4x4_relax_ecutrho250_ecutwfc25.save/ :
     XML data file, charge density, pseudopotentials, collected wavefunctions

     init_run     :     73.63s CPU     74.98s WALL (       1 calls)
     electrons    :  78751.39s CPU  79941.26s WALL (      26 calls)
     update_pot   :      1.43s CPU      1.51s WALL (      25 calls)
     forces       :   1553.11s CPU   1561.94s WALL (      26 calls)
     stress       :   4413.95s CPU   4429.30s WALL (      26 calls)

     Called by init_run:
     wfcinit      :     73.14s CPU     74.47s WALL (       1 calls)
     wfcinit:atom :      0.04s CPU      0.06s WALL (       5 calls)
     wfcinit:wfcr :     72.60s CPU     73.84s WALL (       5 calls)
     potinit      :      0.05s CPU      0.06s WALL (       1 calls)
     hinit0       :      0.02s CPU      0.02s WALL (       1 calls)

     Called by electrons:
     c_bands      :  73292.90s CPU  74360.27s WALL (     290 calls)
     sum_band     :   5349.94s CPU   5470.59s WALL (     290 calls)
     v_of_rho     :     13.20s CPU     13.89s WALL (     292 calls)
     v_h          :      0.75s CPU      0.84s WALL (     292 calls)
     v_xc         :     12.45s CPU     13.05s WALL (     292 calls)
     newd         :    104.00s CPU    104.48s WALL (     292 calls)
     mix_rho      :      1.01s CPU      1.12s WALL (     290 calls)

     Called by c_bands:
     init_us_2    :     53.49s CPU     53.67s WALL (    3165 calls)
     cegterg      :  73176.10s CPU  74241.99s WALL (    1450 calls)

     Called by sum_band:
     sum_band:wei :      0.81s CPU      0.82s WALL (     290 calls)
     sum_band:loo :   5261.24s CPU   5380.98s WALL (     290 calls)
     sum_band:buf :     10.93s CPU     11.01s WALL (    1450 calls)
     sum_band:ini :     24.88s CPU     24.96s WALL (    1450 calls)
     sum_band:cal :   4142.91s CPU   4164.76s WALL (    1450 calls)
     sum_band:bec :     54.59s CPU     54.74s WALL (    1450 calls)
     addusdens    :     83.64s CPU     84.08s WALL (     290 calls)
                                        0.00s GPU  (     290 calls)
     addusd:skk   :      1.04s CPU      1.05s WALL (     290 calls)
                                        0.00s GPU  (     290 calls)

     Called by *egterg:
     cdiaghg      :   5819.03s CPU   6046.45s WALL (    4980 calls)
     cegterg:over :  11046.86s CPU  11093.93s WALL (    3775 calls)
     cegterg:upda :   4760.55s CPU   4793.23s WALL (    3775 calls)
     cegterg:last :  17159.98s CPU  17278.02s WALL (    3039 calls)
     cdiaghg:chol :    467.77s CPU    468.95s WALL (    4980 calls)
     cdiaghg:inve :     66.26s CPU     66.44s WALL (    4980 calls)
     cdiaghg:para :   1851.07s CPU   1877.80s WALL (    9960 calls)
     h_psi        :  22808.40s CPU  23394.60s WALL (    5230 calls)
     s_psi        :   8720.11s CPU   8741.07s WALL (    5230 calls)
     g_psi        :      7.09s CPU      7.14s WALL (    3775 calls)

     Called by h_psi:
     h_psi:calbec :   9480.27s CPU   9531.59s WALL (    5230 calls)
     vloc_psi     :   4517.44s CPU   5019.99s WALL (    5230 calls)
     add_vuspsi   :   8791.74s CPU   8812.86s WALL (    5230 calls)

     General routines
     calbec       :  15513.98s CPU  15597.20s WALL (    7330 calls)
     fft          :      7.77s CPU      8.97s WALL (    3469 calls)
     ffts         :      0.55s CPU      0.65s WALL (     290 calls)
     fftw         :   5181.46s CPU   5743.46s WALL ( 6206460 calls)

     Parallel routines

     PWSCF        :     23h33m CPU     23h53m WALL


   This run was terminated on:  17: 7:34  18Mar2025            

=------------------------------------------------------------------------------=
   JOB DONE.
=------------------------------------------------------------------------------=
Note: The following floating-point exceptions are signalling: IEEE_DENORMAL
Note: The following floating-point exceptions are signalling: IEEE_DENORMAL
Note: The following floating-point exceptions are signalling: IEEE_DENORMAL
Note: The following floating-point exceptions are signalling: IEEE_DENORMAL
Note: The following floating-point exceptions are signalling: IEEE_DENORMAL
Note: The following floating-point exceptions are signalling: IEEE_DENORMAL
Note: The following floating-point exceptions are signalling: IEEE_DENORMAL
Note: The following floating-point exceptions are signalling: IEEE_DENORMAL
Note: The following floating-point exceptions are signalling: IEEE_DENORMAL
Note: The following floating-point exceptions are signalling: IEEE_DENORMAL
Note: The following floating-point exceptions are signalling: IEEE_DENORMAL
Note: The following floating-point exceptions are signalling: IEEE_DENORMAL
