
     Program PWSCF v.7.3.1 starts on 15Mar2025 at  3:27:37 

     This program is part of the open-source Quantum ESPRESSO suite
     for quantum simulation of materials; please cite
         "P. Giannozzi et al., J. Phys.:Condens. Matter 21 395502 (2009);
         "P. Giannozzi et al., J. Phys.:Condens. Matter 29 465901 (2017);
         "P. Giannozzi et al., J. Chem. Phys. 152 154105 (2020);
          URL http://www.quantum-espresso.org", 
     in publications or presentations arising from this work. More details at
     http://www.quantum-espresso.org/quote

     Parallel version (MPI), running on    25 processors

     MPI processes distributed on     1 nodes
     87503 MiB available memory on the printing compute node when the environment starts

     Waiting for input...
     Reading input from standard input
Warning: card &CELL ignored
Warning: card   CELL_DOFREE = 'ALL' ignored
Warning: card / ignored

     Current dimensions of program PWSCF are:
     Max number of different atomic species (ntypx) = 10
     Max number of k-points (npk) =  40000
     Max angular momentum in pseudopotentials (lmaxx) =  4

     File ./tmp/Zn002_2x2x4_relax_ecutrho250_ecutwfc25.update deleted, as requested

     File ./tmp/Zn002_2x2x4_relax_ecutrho250_ecutwfc25.bfgs deleted, as requested
     Found identity + (  0.0000 -0.5000  0.0000) symmetry
     This is a supercell, fractional translations are disabled

     R & G space division:  proc/nbgrp/npool/nimage =      25
     Subspace diagonalization in iterative solution of the eigenvalue problem:
     one sub-group per band group will be used
     custom distributed-memory algorithm (size of sub-group:  4*  4 procs)


     Parallelization info
     --------------------
     sticks:   dense  smooth     PW     G-vecs:    dense   smooth      PW
     Min          32      32      9                 3360     3360     524
     Max          33      33     11                 3379     3379     533
     Sum         805     805    241                84229    84229   13189

     Using Slab Decomposition



     bravais-lattice index     =            0
     lattice parameter (alat)  =       9.8808  a.u.
     unit-cell volume          =    3794.1483 (a.u.)^3
     number of atoms/cell      =           32
     number of atomic types    =            1
     number of electrons       =       640.00
     number of Kohn-Sham states=          384
     kinetic-energy cutoff     =      30.0000  Ry
     charge density cutoff     =     120.0000  Ry
     scf convergence threshold =      7.3E-07
     mixing beta               =       0.7000
     number of iterations used =            8  plain     mixing
     energy convergence thresh.=      1.0E-05
     force convergence thresh. =      5.0E-04
     Exchange-correlation= SLA  PW   PBE  PBE
                           (   1   4   3   4   0   0   0)
     nstep                     =          100


     celldm(1)=   9.880848  celldm(2)=   0.000000  celldm(3)=   0.000000
     celldm(4)=   0.000000  celldm(5)=   0.000000  celldm(6)=   0.000000

     crystal axes: (cart. coord. in units of alat)
               a(1) = (   1.000000   0.000000   0.000000 )  
               a(2) = (  -0.500000   0.866025   0.000000 )  
               a(3) = (   0.000000   0.000000   4.541517 )  

     reciprocal axes: (cart. coord. in units 2 pi/alat)
               b(1) = (  1.000000  0.577350 -0.000000 )  
               b(2) = (  0.000000  1.154701  0.000000 )  
               b(3) = (  0.000000 -0.000000  0.220191 )  


     PseudoPot. # 1 for Zn read from file:
     /home/ys/qepseudo/SSSP_1.3.0_PBE_efficiency/Zn_pbe_v1.uspp.F.UPF
     MD5 check sum: df62231357ef9e81f77b2b3087fa5675
     Pseudo is Ultrasoft, Zval = 20.0
     Generated by new atomic code, or converted to UPF format
     Using radial grid of  943 points,  6 beta functions with: 
                l(1) =   0
                l(2) =   0
                l(3) =   1
                l(4) =   1
                l(5) =   2
                l(6) =   2
     Q(r) pseudized with  8 coefficients,  rinner =    1.100   1.100   1.100
                                                       1.100   1.100

     atomic species   valence    mass     pseudopotential
     Zn               20.00    65.38000     Zn( 1.00)

     No symmetry found


                                    s                        frac. trans.

      isym =  1     identity                                     

 cryst.   s( 1) = (     1          0          0      )
                  (     0          1          0      )
                  (     0          0          1      )

 cart.    s( 1) = (  1.0000000 -0.0000000  0.0000000 )
                  (  0.0000000  1.0000000  0.0000000 )
                  (  0.0000000  0.0000000  1.0000000 )


   Cartesian axes

     site n.     atom                  positions (alat units)
         1        Zn     tau(   1) = (  -0.0000000   0.2886751   0.2329997  )
         2        Zn     tau(   2) = (  -0.0000000   0.2886751   0.6989991  )
         3        Zn     tau(   3) = (  -0.0000000   0.2886751   1.1649986  )
         4        Zn     tau(   4) = (  -0.0000000   0.2886751   1.6309980  )
         5        Zn     tau(   5) = (  -0.2500000   0.7216878   0.2329997  )
         6        Zn     tau(   6) = (  -0.2500000   0.7216878   0.6989991  )
         7        Zn     tau(   7) = (  -0.2500000   0.7216878   1.1649986  )
         8        Zn     tau(   8) = (  -0.2500000   0.7216878   1.6309980  )
         9        Zn     tau(   9) = (   0.5000000   0.2886751   0.2329997  )
        10        Zn     tau(  10) = (   0.5000000   0.2886751   0.6989991  )
        11        Zn     tau(  11) = (   0.5000000   0.2886751   1.1649986  )
        12        Zn     tau(  12) = (   0.5000000   0.2886751   1.6309980  )
        13        Zn     tau(  13) = (   0.2500000   0.7216878   0.2329997  )
        14        Zn     tau(  14) = (   0.2500000   0.7216878   0.6989991  )
        15        Zn     tau(  15) = (   0.2500000   0.7216878   1.1649986  )
        16        Zn     tau(  16) = (   0.2500000   0.7216878   1.6309980  )
        17        Zn     tau(  17) = (   0.2500000   0.1443376   0.2329997  )
        18        Zn     tau(  18) = (   0.2500000   0.1443376   0.6989991  )
        19        Zn     tau(  19) = (   0.2500000   0.1443376   1.1649986  )
        20        Zn     tau(  20) = (   0.2500000   0.1443376   1.6309980  )
        21        Zn     tau(  21) = (   0.0000000   0.5773503   0.2329997  )
        22        Zn     tau(  22) = (   0.0000000   0.5773503   0.6989991  )
        23        Zn     tau(  23) = (   0.0000000   0.5773503   1.1649986  )
        24        Zn     tau(  24) = (   0.0000000   0.5773503   1.6309980  )
        25        Zn     tau(  25) = (   0.7500000   0.1443376   0.2329997  )
        26        Zn     tau(  26) = (   0.7500000   0.1443376   0.6989991  )
        27        Zn     tau(  27) = (   0.7500000   0.1443376   1.1649986  )
        28        Zn     tau(  28) = (   0.7500000   0.1443376   1.6309980  )
        29        Zn     tau(  29) = (   0.5000000   0.5773503   0.2329997  )
        30        Zn     tau(  30) = (   0.5000000   0.5773503   0.6989991  )
        31        Zn     tau(  31) = (   0.5000000   0.5773503   1.1649986  )
        32        Zn     tau(  32) = (   0.5000000   0.5773503   1.6309980  )

   Crystallographic axes

     site n.     atom                  positions (cryst. coord.)
         1        Zn     tau(   1) = (  0.1666667  0.3333333  0.0513044  )
         2        Zn     tau(   2) = (  0.1666667  0.3333333  0.1539131  )
         3        Zn     tau(   3) = (  0.1666667  0.3333333  0.2565219  )
         4        Zn     tau(   4) = (  0.1666667  0.3333333  0.3591306  )
         5        Zn     tau(   5) = (  0.1666667  0.8333333  0.0513044  )
         6        Zn     tau(   6) = (  0.1666667  0.8333333  0.1539131  )
         7        Zn     tau(   7) = (  0.1666667  0.8333333  0.2565219  )
         8        Zn     tau(   8) = (  0.1666667  0.8333333  0.3591306  )
         9        Zn     tau(   9) = (  0.6666667  0.3333333  0.0513044  )
        10        Zn     tau(  10) = (  0.6666667  0.3333333  0.1539131  )
        11        Zn     tau(  11) = (  0.6666667  0.3333333  0.2565219  )
        12        Zn     tau(  12) = (  0.6666667  0.3333333  0.3591306  )
        13        Zn     tau(  13) = (  0.6666667  0.8333333  0.0513044  )
        14        Zn     tau(  14) = (  0.6666667  0.8333333  0.1539131  )
        15        Zn     tau(  15) = (  0.6666667  0.8333333  0.2565219  )
        16        Zn     tau(  16) = (  0.6666667  0.8333333  0.3591306  )
        17        Zn     tau(  17) = (  0.3333333  0.1666667  0.0513044  )
        18        Zn     tau(  18) = (  0.3333333  0.1666667  0.1539131  )
        19        Zn     tau(  19) = (  0.3333333  0.1666667  0.2565219  )
        20        Zn     tau(  20) = (  0.3333333  0.1666667  0.3591306  )
        21        Zn     tau(  21) = (  0.3333333  0.6666667  0.0513044  )
        22        Zn     tau(  22) = (  0.3333333  0.6666667  0.1539131  )
        23        Zn     tau(  23) = (  0.3333333  0.6666667  0.2565219  )
        24        Zn     tau(  24) = (  0.3333333  0.6666667  0.3591306  )
        25        Zn     tau(  25) = (  0.8333333  0.1666667  0.0513044  )
        26        Zn     tau(  26) = (  0.8333333  0.1666667  0.1539131  )
        27        Zn     tau(  27) = (  0.8333333  0.1666667  0.2565219  )
        28        Zn     tau(  28) = (  0.8333333  0.1666667  0.3591306  )
        29        Zn     tau(  29) = (  0.8333333  0.6666667  0.0513044  )
        30        Zn     tau(  30) = (  0.8333333  0.6666667  0.1539131  )
        31        Zn     tau(  31) = (  0.8333333  0.6666667  0.2565219  )
        32        Zn     tau(  32) = (  0.8333333  0.6666667  0.3591306  )

     number of k points=     5  Marzari-Vanderbilt smearing, width (Ry)=  0.0200
                       cart. coord. in units 2pi/alat
        k(    1) = (   0.0000000   0.0000000   0.0000000), wk =   0.2222222
        k(    2) = (   0.0000000   0.3849002   0.0000000), wk =   0.4444444
        k(    3) = (   0.3333333   0.1924501   0.0000000), wk =   0.4444444
        k(    4) = (   0.3333333   0.5773503   0.0000000), wk =   0.4444444
        k(    5) = (   0.3333333  -0.1924501   0.0000000), wk =   0.4444444

                       cryst. coord.
        k(    1) = (   0.0000000   0.0000000   0.0000000), wk =   0.2222222
        k(    2) = (   0.0000000   0.3333333   0.0000000), wk =   0.4444444
        k(    3) = (   0.3333333  -0.0000000   0.0000000), wk =   0.4444444
        k(    4) = (   0.3333333   0.3333333   0.0000000), wk =   0.4444444
        k(    5) = (   0.3333333  -0.3333333   0.0000000), wk =   0.4444444

     Dense  grid:    84229 G-vectors     FFT dimensions: (  36,  36, 160)

     Dynamical RAM for                 wfc:       2.47 MB

     Dynamical RAM for     wfc (w. buffer):      14.80 MB

     Dynamical RAM for           str. fact:       0.05 MB

     Dynamical RAM for           local pot:       0.00 MB

     Dynamical RAM for          nlocal pot:       3.70 MB

     Dynamical RAM for                qrad:       0.88 MB

     Dynamical RAM for          rho,v,vnew:       0.36 MB

     Dynamical RAM for               rhoin:       0.12 MB

     Dynamical RAM for            rho*nmix:       0.82 MB

     Dynamical RAM for           G-vectors:       0.22 MB

     Dynamical RAM for          h,s,v(r/c):       1.69 MB

     Dynamical RAM for          <psi|beta>:       3.38 MB

     Dynamical RAM for                 psi:       4.93 MB

     Dynamical RAM for                hpsi:       4.93 MB

     Dynamical RAM for                spsi:       4.93 MB

     Dynamical RAM for      wfcinit/wfcrot:       9.31 MB

     Dynamical RAM for           addusdens:      11.21 MB

     Dynamical RAM for          addusforce:      14.55 MB

     Dynamical RAM for         addusstress:      10.34 MB

     Estimated static dynamical RAM per process >      20.58 MB

     Estimated max dynamical RAM per process >      41.27 MB

     Estimated total dynamical RAM >       1.01 GB

     Initial potential from superposition of free atoms

     starting charge     639.9955, renormalised to     640.0000

     negative rho (up, down):  5.222E-04 0.000E+00
     Starting wfcs are  416 randomized atomic wfcs

     total cpu time spent up to now is        4.7 secs

     Self-consistent Calculation

     iteration #  1     ecut=    30.00 Ry     beta= 0.70
     Davidson diagonalization with overlap

---- Real-time Memory Report at c_bands before calling an iterative solver
            58 MiB given to the printing process from OS
             0 MiB allocation reported by mallinfo(arena+hblkhd)
         86481 MiB available memory on the node where the printing process lives
------------------
     ethr =  1.00E-02,  avg # of iterations =  7.6

     Threshold (ethr) on eigenvalues was too large:
     Diagonalizing with lowered threshold

     Davidson diagonalization with overlap

---- Real-time Memory Report at c_bands before calling an iterative solver
            72 MiB given to the printing process from OS
             0 MiB allocation reported by mallinfo(arena+hblkhd)
         86370 MiB available memory on the node where the printing process lives
------------------
     ethr =  8.43E-05,  avg # of iterations =  4.6

     negative rho (up, down):  1.955E-03 0.000E+00

     total cpu time spent up to now is       53.6 secs

     total energy              =  -14727.23512846 Ry
     estimated scf accuracy    <       0.53907836 Ry

     iteration #  2     ecut=    30.00 Ry     beta= 0.70
     Davidson diagonalization with overlap

---- Real-time Memory Report at c_bands before calling an iterative solver
            72 MiB given to the printing process from OS
             0 MiB allocation reported by mallinfo(arena+hblkhd)
         86312 MiB available memory on the node where the printing process lives
------------------
     ethr =  8.42E-05,  avg # of iterations =  8.0

     negative rho (up, down):  1.925E-03 0.000E+00

     total cpu time spent up to now is       84.3 secs

     total energy              =  -14726.50918523 Ry
     estimated scf accuracy    <       9.93077424 Ry

     iteration #  3     ecut=    30.00 Ry     beta= 0.70
     Davidson diagonalization with overlap

---- Real-time Memory Report at c_bands before calling an iterative solver
            73 MiB given to the printing process from OS
             0 MiB allocation reported by mallinfo(arena+hblkhd)
         86304 MiB available memory on the node where the printing process lives
------------------
     ethr =  8.42E-05,  avg # of iterations =  6.2

     negative rho (up, down):  2.377E-03 0.000E+00

     total cpu time spent up to now is      107.0 secs

     total energy              =  -14727.33183053 Ry
     estimated scf accuracy    <       1.19257774 Ry

     iteration #  4     ecut=    30.00 Ry     beta= 0.70
     Davidson diagonalization with overlap

---- Real-time Memory Report at c_bands before calling an iterative solver
            73 MiB given to the printing process from OS
             0 MiB allocation reported by mallinfo(arena+hblkhd)
         86298 MiB available memory on the node where the printing process lives
------------------
     ethr =  8.42E-05,  avg # of iterations =  4.0

     negative rho (up, down):  2.966E-03 0.000E+00

     total cpu time spent up to now is      124.5 secs

     total energy              =  -14727.42565157 Ry
     estimated scf accuracy    <       0.01526164 Ry

     iteration #  5     ecut=    30.00 Ry     beta= 0.70
     Davidson diagonalization with overlap

---- Real-time Memory Report at c_bands before calling an iterative solver
            73 MiB given to the printing process from OS
             0 MiB allocation reported by mallinfo(arena+hblkhd)
         86300 MiB available memory on the node where the printing process lives
------------------
     ethr =  2.38E-06,  avg # of iterations =  6.2

     negative rho (up, down):  2.973E-03 0.000E+00

     total cpu time spent up to now is      149.5 secs

     total energy              =  -14727.42365438 Ry
     estimated scf accuracy    <       0.16877899 Ry

     iteration #  6     ecut=    30.00 Ry     beta= 0.70
     Davidson diagonalization with overlap

---- Real-time Memory Report at c_bands before calling an iterative solver
            73 MiB given to the printing process from OS
             0 MiB allocation reported by mallinfo(arena+hblkhd)
         86296 MiB available memory on the node where the printing process lives
------------------
     ethr =  2.38E-06,  avg # of iterations =  3.8

     negative rho (up, down):  3.059E-03 0.000E+00

     total cpu time spent up to now is      165.9 secs

     total energy              =  -14727.42785576 Ry
     estimated scf accuracy    <       0.02371065 Ry

     iteration #  7     ecut=    30.00 Ry     beta= 0.70
     Davidson diagonalization with overlap

---- Real-time Memory Report at c_bands before calling an iterative solver
            73 MiB given to the printing process from OS
             0 MiB allocation reported by mallinfo(arena+hblkhd)
         86295 MiB available memory on the node where the printing process lives
------------------
     ethr =  2.38E-06,  avg # of iterations =  3.4

     negative rho (up, down):  3.109E-03 0.000E+00

     total cpu time spent up to now is      181.8 secs

     total energy              =  -14727.42843872 Ry
     estimated scf accuracy    <       0.00055235 Ry

     iteration #  8     ecut=    30.00 Ry     beta= 0.70
     Davidson diagonalization with overlap

---- Real-time Memory Report at c_bands before calling an iterative solver
            73 MiB given to the printing process from OS
             0 MiB allocation reported by mallinfo(arena+hblkhd)
         86292 MiB available memory on the node where the printing process lives
------------------
     ethr =  8.63E-08,  avg # of iterations =  2.0

     negative rho (up, down):  3.119E-03 0.000E+00

     total cpu time spent up to now is      197.1 secs

     total energy              =  -14727.42852889 Ry
     estimated scf accuracy    <       0.00009094 Ry

     iteration #  9     ecut=    30.00 Ry     beta= 0.70
     Davidson diagonalization with overlap

---- Real-time Memory Report at c_bands before calling an iterative solver
            73 MiB given to the printing process from OS
             0 MiB allocation reported by mallinfo(arena+hblkhd)
         86292 MiB available memory on the node where the printing process lives
------------------
     ethr =  1.42E-08,  avg # of iterations =  2.0

     negative rho (up, down):  3.120E-03 0.000E+00

     total cpu time spent up to now is      212.2 secs

     total energy              =  -14727.42853394 Ry
     estimated scf accuracy    <       0.00002933 Ry

     iteration # 10     ecut=    30.00 Ry     beta= 0.70
     Davidson diagonalization with overlap

---- Real-time Memory Report at c_bands before calling an iterative solver
            73 MiB given to the printing process from OS
             0 MiB allocation reported by mallinfo(arena+hblkhd)
         86286 MiB available memory on the node where the printing process lives
------------------
     ethr =  4.58E-09,  avg # of iterations =  2.0

     negative rho (up, down):  3.121E-03 0.000E+00

     total cpu time spent up to now is      227.3 secs

     total energy              =  -14727.42853757 Ry
     estimated scf accuracy    <       0.00000353 Ry

     iteration # 11     ecut=    30.00 Ry     beta= 0.70
     Davidson diagonalization with overlap

---- Real-time Memory Report at c_bands before calling an iterative solver
            73 MiB given to the printing process from OS
             0 MiB allocation reported by mallinfo(arena+hblkhd)
         86283 MiB available memory on the node where the printing process lives
------------------
     ethr =  5.52E-10,  avg # of iterations =  2.0

     negative rho (up, down):  3.121E-03 0.000E+00

     total cpu time spent up to now is      242.5 secs

     total energy              =  -14727.42853804 Ry
     estimated scf accuracy    <       0.00000078 Ry

     iteration # 12     ecut=    30.00 Ry     beta= 0.70
     Davidson diagonalization with overlap

---- Real-time Memory Report at c_bands before calling an iterative solver
            73 MiB given to the printing process from OS
             0 MiB allocation reported by mallinfo(arena+hblkhd)
         86283 MiB available memory on the node where the printing process lives
------------------
     ethr =  1.22E-10,  avg # of iterations =  1.8

     negative rho (up, down):  3.121E-03 0.000E+00

     total cpu time spent up to now is      257.1 secs

     End of self-consistent calculation

          k = 0.0000 0.0000 0.0000 ( 10573 PWs)   bands (ev):

  -121.9652-121.9593-121.9149-121.9130-121.2911-121.2911-121.2911-121.2861
  -121.2861-121.2861-121.2416-121.2416-121.2416-121.2408-121.2408-121.2408
  -120.5972-120.5972-120.5972-120.5952-120.5952-120.5952-120.5499-120.5499
  -120.5499-120.5495-120.5495-120.5495-119.8983-119.8975-119.8540-119.8503
   -77.7129 -77.7129 -77.7129 -77.7086 -77.7086 -77.7086 -77.6707 -77.6707
   -77.6707 -77.6697 -77.6697 -77.6697 -77.3862 -77.3862 -77.3803 -77.3803
   -77.3490 -77.3490 -77.3372 -77.3372 -76.5744 -76.5744 -76.5744 -76.5618
   -76.5618 -76.5618 -76.5255 -76.5255 -76.5255 -76.5254 -76.5254 -76.5254
   -75.0487 -75.0251 -74.9293 -74.9288 -74.6816 -74.6816 -74.6816 -74.6494
   -74.6494 -74.6494 -74.6470 -74.6470 -74.6470 -74.6316 -74.6316 -74.6316
   -74.6063 -74.6063 -74.6063 -74.5994 -74.5994 -74.5994 -74.5600 -74.5600
   -74.5600 -74.5536 -74.5536 -74.5536 -74.3087 -74.3087 -74.3087 -74.2741
   -74.2741 -74.2741 -74.1893 -74.1893 -74.1893 -74.1848 -74.1848 -74.1848
   -73.9454 -73.9074 -73.8107 -73.8033 -73.7981 -73.7981 -73.7885 -73.7885
   -73.7624 -73.7624 -73.7518 -73.7518 -73.4262 -73.4262 -73.4262 -73.4194
   -73.4194 -73.4194 -73.3909 -73.3909 -73.3909 -73.3858 -73.3858 -73.3858
    -7.8328  -7.8328  -7.8328  -7.7431  -7.7431  -7.7431  -7.6389  -7.6389
    -7.6389  -7.5996  -7.5996  -7.5996  -6.6354  -6.4174  -6.4174  -6.4174
    -6.3974  -6.3974  -6.3974  -6.3467  -6.3467  -6.3467  -6.3466  -6.3466
    -6.3466  -6.2815  -6.0609  -6.0023  -5.3581  -5.3581  -5.3581  -5.3436
    -5.0662  -5.0662  -5.0662  -5.0216  -5.0216  -5.0216  -4.7496  -4.7496
    -4.7496  -4.6030  -4.6030  -4.6030  -4.5844  -4.5844  -4.5844  -4.4302
    -4.4302  -4.3965  -4.2102  -4.2102  -4.0621  -4.0621  -4.0621  -3.9730
    -3.9730  -3.9730  -3.9452  -3.9452  -3.8128  -3.8128  -3.8060  -3.8060
    -3.8060  -3.6919  -3.6919  -3.6918  -3.6557  -3.6557  -3.6557  -3.6097
    -3.6097  -3.6097  -3.2242  -3.2242  -3.2081  -3.2081  -3.1654  -3.1654
    -3.1475  -3.1475  -3.1294  -3.1294  -3.1177  -3.1177  -3.0798  -3.0798
    -3.0540  -3.0540  -2.4601  -1.5574  -1.5574  -1.5574  -1.4752  -1.4752
    -1.4752  -1.3500  -1.3500  -1.3500  -0.9836  -0.9836  -0.9836  -0.5798
    -0.5798  -0.5798  -0.4875  -0.4875  -0.4875  -0.2547  -0.2547  -0.2547
    -0.1975  -0.1975  -0.1975  -0.0052  -0.0052  -0.0052   0.5065   0.5065
     0.5065   0.5118   0.5118   0.6330   0.6330   0.7720   0.7720   0.8172
     0.8172   0.8301   0.8382   1.1949   1.4461   1.4461   1.4461   1.5453
     1.5453   1.5453   1.5912   1.6081   1.6081   1.6081   1.6944   1.6944
     1.6944   1.7081   1.7081   1.7081   1.8368   1.8704   1.8704   1.8704
     1.8861   1.8861   1.8861   1.9115   1.9115   1.9115   1.9164   1.9164
     1.9164   1.9164   1.9164   1.9164   2.0805   2.0805   2.0805   2.4833
     3.1907   3.1907   3.1907   4.9974   4.9974   4.9974   5.7873   5.7873
     5.7873   6.1767   6.1767   6.1767   6.4133   6.7187   6.7187   6.7187
     7.1360   7.1360   7.1360   9.6015   9.6015   9.6015  10.0443  10.8865
    10.8865  10.8865  13.1996  13.1996  13.1996  13.4040  14.4150  14.5840
    14.5840  14.5840  14.7227  14.7227  14.7227  15.1220  15.3732  15.5870
    15.5870  15.5870  15.8472  15.8472  15.8472  16.8580  17.6167  17.6167
    17.6167  17.8972  18.2792  18.2792  18.2792  18.3337  18.3337  18.3337
    19.1665  19.1665  19.1665  19.8711  20.5769  20.5769  20.5769  21.2322
    21.2322  21.2322  21.2747  21.6071  21.6071  21.6071  21.8307  21.8307
    21.8307  21.9477  21.9477  21.9477  22.1415  22.1415  22.1415  22.2020
    22.2020  22.2020  22.8251  22.8251  22.8251  22.8709  22.8709  22.8709

     occupation numbers 
     1.0000   1.0000   1.0000   1.0000   1.0000   1.0000   1.0000   1.0000
     1.0000   1.0000   1.0000   1.0000   1.0000   1.0000   1.0000   1.0000
     1.0000   1.0000   1.0000   1.0000   1.0000   1.0000   1.0000   1.0000
     1.0000   1.0000   1.0000   1.0000   1.0000   1.0000   1.0000   1.0000
     1.0000   1.0000   1.0000   1.0000   1.0000   1.0000   1.0000   1.0000
     1.0000   1.0000   1.0000   1.0000   1.0000   1.0000   1.0000   1.0000
     1.0000   1.0000   1.0000   1.0000   1.0000   1.0000   1.0000   1.0000
     1.0000   1.0000   1.0000   1.0000   1.0000   1.0000   1.0000   1.0000
     1.0000   1.0000   1.0000   1.0000   1.0000   1.0000   1.0000   1.0000
     1.0000   1.0000   1.0000   1.0000   1.0000   1.0000   1.0000   1.0000
     1.0000   1.0000   1.0000   1.0000   1.0000   1.0000   1.0000   1.0000
     1.0000   1.0000   1.0000   1.0000   1.0000   1.0000   1.0000   1.0000
     1.0000   1.0000   1.0000   1.0000   1.0000   1.0000   1.0000   1.0000
     1.0000   1.0000   1.0000   1.0000   1.0000   1.0000   1.0000   1.0000
     1.0000   1.0000   1.0000   1.0000   1.0000   1.0000   1.0000   1.0000
     1.0000   1.0000   1.0000   1.0000   1.0000   1.0000   1.0000   1.0000
     1.0000   1.0000   1.0000   1.0000   1.0000   1.0000   1.0000   1.0000
     1.0000   1.0000   1.0000   1.0000   1.0000   1.0000   1.0000   1.0000
     1.0000   1.0000   1.0000   1.0000   1.0000   1.0000   1.0000   1.0000
     1.0000   1.0000   1.0000   1.0000   1.0000   1.0000   1.0000   1.0000
     1.0000   1.0000   1.0000   1.0000   1.0000   1.0000   1.0000   1.0000
     1.0000   1.0000   1.0000   1.0000   1.0000   1.0000   1.0000   1.0000
     1.0000   1.0000   1.0000   1.0000   1.0000   1.0000   1.0000   1.0000
     1.0000   1.0000   1.0000   1.0000   1.0000   1.0000   1.0000   1.0000
     1.0000   1.0000   1.0000   1.0000   1.0000   1.0000   1.0000   1.0000
     1.0000   1.0000   1.0000   1.0000   1.0000   1.0000   1.0000   1.0000
     1.0000   1.0000   1.0000   1.0000   1.0000   1.0000   1.0000   1.0000
     1.0000   1.0000   1.0000   1.0000   1.0000   1.0000   1.0000   1.0000
     1.0000   1.0000   1.0000   1.0000   1.0000   1.0000   1.0000   1.0000
     1.0000   1.0000   1.0000   1.0000   1.0000   1.0000   1.0000   1.0000
     1.0000   1.0000   1.0000   1.0000   1.0000   1.0000   1.0000   1.0000
     1.0000   1.0000   1.0000   1.0000   1.0000   1.0000   1.0000   1.0000
     1.0000   1.0000   1.0000   1.0000   1.0000   1.0000   1.0000   1.0000
     1.0000   1.0000   1.0000   1.0000   1.0000   1.0000   1.0000   1.0000
     1.0000   1.0000   1.0000   1.0000   1.0000   1.0000   1.0000   1.0000
     1.0000   1.0000   1.0000   1.0000   1.0000   1.0000   1.0000   1.0000
     1.0000   1.0000   1.0000   1.0000   1.0000   1.0000   1.0000   1.0000
     1.0000   1.0000   1.0000   1.0000   1.0000   1.0000   1.0000   1.0000
     1.0000   1.0000   1.0000   1.0000   1.0000   1.0000   1.0000   1.0000
     1.0000   1.0000   1.0000   1.0000   1.0000   1.0000   1.0000   1.0805
     1.0805   1.0805   0.0000   0.0000   0.0000   0.0000   0.0000   0.0000
     0.0000   0.0000   0.0000   0.0000   0.0000   0.0000   0.0000   0.0000
     0.0000   0.0000   0.0000   0.0000   0.0000   0.0000   0.0000   0.0000
     0.0000   0.0000   0.0000   0.0000   0.0000   0.0000   0.0000   0.0000
     0.0000   0.0000   0.0000   0.0000   0.0000   0.0000   0.0000   0.0000
     0.0000   0.0000   0.0000   0.0000   0.0000   0.0000   0.0000   0.0000
     0.0000   0.0000   0.0000   0.0000   0.0000   0.0000   0.0000   0.0000
     0.0000   0.0000   0.0000   0.0000   0.0000   0.0000   0.0000   0.0000

          k = 0.0000 0.3849 0.0000 ( 10529 PWs)   bands (ev):

  -121.8437-121.8402-121.7943-121.7940-121.5351-121.5327-121.4870-121.4860
  -121.2886-121.2886-121.2861-121.2861-121.2405-121.2405-121.2399-121.2399
  -120.6012-120.6012-120.5998-120.5998-120.5543-120.5543-120.5539-120.5539
  -120.3438-120.3414-120.2966-120.2961-120.0201-120.0183-119.9734-119.9732
   -77.8145 -77.8145 -77.8081 -77.8081 -77.7710 -77.7710 -77.7697 -77.7697
   -77.6406 -77.6319 -77.5946 -77.5935 -77.4697 -77.4627 -77.4259 -77.4240
   -77.1985 -77.1943 -77.1584 -77.1553 -76.8172 -76.8145 -76.7806 -76.7736
   -76.3655 -76.3655 -76.3577 -76.3577 -76.3233 -76.3233 -76.3226 -76.3226
   -74.9840 -74.9543 -74.8624 -74.8612 -74.8326 -74.8326 -74.8295 -74.8295
   -74.8166 -74.7962 -74.7962 -74.7960 -74.7960 -74.7845 -74.6936 -74.6918
   -74.6778 -74.6778 -74.6460 -74.6460 -74.5575 -74.5575 -74.5526 -74.5526
   -74.3655 -74.3638 -74.3324 -74.3282 -74.3106 -74.3106 -74.2751 -74.2751
   -74.1878 -74.1878 -74.1864 -74.1864 -74.1697 -74.1393 -74.0515 -74.0481
   -74.0061 -73.9697 -73.9584 -73.9548 -73.9244 -73.9223 -73.8830 -73.8709
   -73.6937 -73.6863 -73.6571 -73.6561 -73.5113 -73.5009 -73.4730 -73.4722
   -73.3451 -73.3451 -73.3421 -73.3421 -73.3129 -73.3129 -73.3104 -73.3104
    -8.3921  -8.3921  -8.3069  -8.3069  -8.2154  -8.2154  -8.1855  -8.1855
    -7.1642  -7.0796  -6.9775  -6.9383  -6.0249  -5.9929  -5.9477  -5.9459
    -5.9358  -5.9358  -5.7582  -5.6283  -5.6133  -5.5775  -5.5775  -5.5395
    -5.5387  -5.4330  -5.4330  -5.3999  -5.3999  -5.3561  -5.3561  -5.3543
    -5.3543  -5.2892  -5.1507  -5.1454  -5.1454  -5.0808  -5.0196  -4.9143
    -4.9071  -4.9071  -4.8753  -4.8738  -4.8258  -4.8089  -4.8075  -4.6872
    -4.6425  -4.5740  -4.4767  -4.4627  -4.4457  -4.4430  -4.4126  -4.3108
    -4.2580  -4.1927  -4.1694  -4.1641  -4.1581  -4.1581  -4.0744  -4.0744
    -4.0457  -4.0457  -4.0224  -4.0103  -3.9383  -3.9383  -3.9212  -3.9212
    -3.8997  -3.7897  -3.7530  -3.7530  -3.7475  -3.6956  -3.3445  -3.3445
    -3.0820  -3.0820  -2.8668  -2.2949  -2.2594  -2.0733  -2.0733  -1.9802
    -1.9802  -1.8795  -1.8795  -1.8024  -1.5186  -1.4290  -1.3698  -1.3387
    -1.1240  -1.0633  -0.9974  -0.9804  -0.9077  -0.9077  -0.9048  -0.9048
    -0.7818  -0.6649  -0.6649  -0.5649  -0.4808  -0.4808  -0.3403  -0.3393
    -0.3221  -0.2281  -0.0641  -0.0641  -0.0629  -0.0629  -0.0429  -0.0225
     0.1497   0.1497   0.1857   0.4420   0.5193   0.5193   0.5739   0.6534
     0.6595   0.8051   0.8191   0.8191   0.8971   0.9162   0.9409   0.9892
     1.0061   1.0331   1.0603   1.0640   1.1891   1.2376   1.2376   1.2477
     1.3203   1.4044   1.4953   1.5013   1.5079   1.7054   1.7054   1.7641
     1.7641   1.7754   1.8472   1.8472   1.8522   1.8522   1.8525   1.8531
     1.9848   2.1033   2.1033   2.7761   2.7761   2.9614   2.9614   3.0126
     3.0126   3.1644   3.1644   3.8250   3.9607   3.9607   4.2357   5.8790
     5.8790   7.2565   7.2565   7.3296   7.6220   8.0092   8.0092   8.9735
     8.9735   9.9956  10.0359  10.5069  10.5069  11.1391  11.1391  11.1430
    11.2852  11.4071  11.4071  12.1222  12.1222  12.2711  13.7253  13.7253
    13.7366  13.7366  14.3286  14.4426  14.9692  15.2466  15.3582  15.3582
    16.0318  16.0318  16.0458  16.0664  16.1877  16.8470  16.8470  16.9727
    17.0169  17.3147  17.5747  17.7790  17.7860  18.1173  18.2998  18.2998
    18.7199  18.7270  18.7524  19.1168  19.4163  19.4163  19.4551  19.4551
    19.6011  19.7929  20.2098  20.2098  20.3949  20.7428  20.7647  20.7657
    20.8428  21.1018  21.1542  21.1542  21.2217  21.2217  21.4746  21.4746
    21.9975  22.1779  22.1779  22.1945  22.4583  22.7411  22.7634  22.8489

     occupation numbers 
     1.0000   1.0000   1.0000   1.0000   1.0000   1.0000   1.0000   1.0000
     1.0000   1.0000   1.0000   1.0000   1.0000   1.0000   1.0000   1.0000
     1.0000   1.0000   1.0000   1.0000   1.0000   1.0000   1.0000   1.0000
     1.0000   1.0000   1.0000   1.0000   1.0000   1.0000   1.0000   1.0000
     1.0000   1.0000   1.0000   1.0000   1.0000   1.0000   1.0000   1.0000
     1.0000   1.0000   1.0000   1.0000   1.0000   1.0000   1.0000   1.0000
     1.0000   1.0000   1.0000   1.0000   1.0000   1.0000   1.0000   1.0000
     1.0000   1.0000   1.0000   1.0000   1.0000   1.0000   1.0000   1.0000
     1.0000   1.0000   1.0000   1.0000   1.0000   1.0000   1.0000   1.0000
     1.0000   1.0000   1.0000   1.0000   1.0000   1.0000   1.0000   1.0000
     1.0000   1.0000   1.0000   1.0000   1.0000   1.0000   1.0000   1.0000
     1.0000   1.0000   1.0000   1.0000   1.0000   1.0000   1.0000   1.0000
     1.0000   1.0000   1.0000   1.0000   1.0000   1.0000   1.0000   1.0000
     1.0000   1.0000   1.0000   1.0000   1.0000   1.0000   1.0000   1.0000
     1.0000   1.0000   1.0000   1.0000   1.0000   1.0000   1.0000   1.0000
     1.0000   1.0000   1.0000   1.0000   1.0000   1.0000   1.0000   1.0000
     1.0000   1.0000   1.0000   1.0000   1.0000   1.0000   1.0000   1.0000
     1.0000   1.0000   1.0000   1.0000   1.0000   1.0000   1.0000   1.0000
     1.0000   1.0000   1.0000   1.0000   1.0000   1.0000   1.0000   1.0000
     1.0000   1.0000   1.0000   1.0000   1.0000   1.0000   1.0000   1.0000
     1.0000   1.0000   1.0000   1.0000   1.0000   1.0000   1.0000   1.0000
     1.0000   1.0000   1.0000   1.0000   1.0000   1.0000   1.0000   1.0000
     1.0000   1.0000   1.0000   1.0000   1.0000   1.0000   1.0000   1.0000
     1.0000   1.0000   1.0000   1.0000   1.0000   1.0000   1.0000   1.0000
     1.0000   1.0000   1.0000   1.0000   1.0000   1.0000   1.0000   1.0000
     1.0000   1.0000   1.0000   1.0000   1.0000   1.0000   1.0000   1.0000
     1.0000   1.0000   1.0000   1.0000   1.0000   1.0000   1.0000   1.0000
     1.0000   1.0000   1.0000   1.0000   1.0000   1.0000   1.0000   1.0000
     1.0000   1.0000   1.0000   1.0000   1.0000   1.0000   1.0000   1.0000
     1.0000   1.0000   1.0000   1.0000   1.0000   1.0000   1.0000   1.0000
     1.0000   1.0000   1.0000   1.0000   1.0000   1.0000   1.0000   1.0000
     1.0000   1.0000   1.0000   1.0000   1.0000   1.0000   1.0000   1.0000
     1.0000   1.0000   1.0000   1.0000   1.0000   1.0000   1.0000   1.0000
     1.0000   1.0000   1.0000   1.0000   1.0000   1.0000   1.0000   1.0000
     1.0000   1.0000   1.0000   1.0000   1.0000   1.0000   1.0000   1.0000
     1.0000   1.0000   1.0000   1.0000   1.0000   1.0000   1.0000   1.0000
     1.0000   1.0000   1.0000   1.0000   1.0000   1.0000   1.0000   1.0000
     1.0000   1.0000   1.0000   1.0000   1.0000   1.0000   1.0000   1.0000
     1.0000   1.0000   1.0000   1.0000   1.0000   1.0000   1.0000   1.0000
     1.0000   1.0000   1.0000   1.0021   1.0021   0.8341   0.8341   0.8246
     0.4445   0.1822   0.1822   0.0000   0.0000   0.0000   0.0000   0.0000
     0.0000   0.0000   0.0000   0.0000   0.0000   0.0000   0.0000   0.0000
     0.0000   0.0000   0.0000   0.0000   0.0000   0.0000   0.0000   0.0000
     0.0000   0.0000   0.0000   0.0000   0.0000   0.0000   0.0000   0.0000
     0.0000   0.0000   0.0000   0.0000   0.0000   0.0000   0.0000   0.0000
     0.0000   0.0000   0.0000   0.0000   0.0000   0.0000   0.0000   0.0000
     0.0000   0.0000   0.0000   0.0000   0.0000   0.0000   0.0000   0.0000
     0.0000   0.0000   0.0000   0.0000   0.0000   0.0000   0.0000   0.0000

          k = 0.3333 0.1925 0.0000 ( 10529 PWs)   bands (ev):

  -121.8437-121.8402-121.7943-121.7940-121.5351-121.5327-121.4870-121.4860
  -121.2886-121.2886-121.2861-121.2861-121.2405-121.2405-121.2399-121.2399
  -120.6012-120.6012-120.5998-120.5998-120.5543-120.5543-120.5539-120.5539
  -120.3438-120.3414-120.2966-120.2961-120.0201-120.0183-119.9734-119.9732
   -77.8145 -77.8145 -77.8081 -77.8081 -77.7710 -77.7710 -77.7697 -77.7697
   -77.6406 -77.6319 -77.5946 -77.5935 -77.4697 -77.4627 -77.4259 -77.4240
   -77.1985 -77.1943 -77.1584 -77.1553 -76.8172 -76.8145 -76.7806 -76.7736
   -76.3655 -76.3655 -76.3577 -76.3577 -76.3233 -76.3233 -76.3226 -76.3226
   -74.9840 -74.9543 -74.8624 -74.8612 -74.8326 -74.8326 -74.8295 -74.8295
   -74.8166 -74.7962 -74.7962 -74.7960 -74.7960 -74.7845 -74.6936 -74.6918
   -74.6778 -74.6778 -74.6460 -74.6460 -74.5575 -74.5575 -74.5526 -74.5526
   -74.3655 -74.3638 -74.3324 -74.3282 -74.3106 -74.3106 -74.2751 -74.2751
   -74.1878 -74.1878 -74.1864 -74.1864 -74.1697 -74.1393 -74.0515 -74.0481
   -74.0061 -73.9697 -73.9584 -73.9548 -73.9244 -73.9223 -73.8830 -73.8709
   -73.6937 -73.6863 -73.6571 -73.6561 -73.5113 -73.5009 -73.4730 -73.4722
   -73.3451 -73.3451 -73.3421 -73.3421 -73.3129 -73.3129 -73.3104 -73.3104
    -8.3921  -8.3921  -8.3069  -8.3069  -8.2154  -8.2154  -8.1855  -8.1855
    -7.1642  -7.0796  -6.9775  -6.9383  -6.0249  -5.9929  -5.9477  -5.9459
    -5.9358  -5.9358  -5.7582  -5.6283  -5.6133  -5.5775  -5.5775  -5.5395
    -5.5387  -5.4330  -5.4330  -5.3999  -5.3999  -5.3561  -5.3561  -5.3543
    -5.3543  -5.2892  -5.1507  -5.1454  -5.1454  -5.0808  -5.0196  -4.9143
    -4.9071  -4.9071  -4.8753  -4.8738  -4.8258  -4.8089  -4.8075  -4.6872
    -4.6425  -4.5740  -4.4767  -4.4627  -4.4457  -4.4430  -4.4126  -4.3108
    -4.2580  -4.1927  -4.1694  -4.1641  -4.1581  -4.1581  -4.0744  -4.0744
    -4.0457  -4.0457  -4.0224  -4.0103  -3.9383  -3.9383  -3.9212  -3.9212
    -3.8997  -3.7897  -3.7530  -3.7530  -3.7475  -3.6956  -3.3445  -3.3445
    -3.0820  -3.0820  -2.8668  -2.2949  -2.2594  -2.0733  -2.0733  -1.9802
    -1.9802  -1.8795  -1.8795  -1.8024  -1.5186  -1.4290  -1.3698  -1.3387
    -1.1240  -1.0633  -0.9974  -0.9804  -0.9077  -0.9077  -0.9048  -0.9048
    -0.7818  -0.6649  -0.6649  -0.5649  -0.4808  -0.4808  -0.3403  -0.3393
    -0.3221  -0.2281  -0.0641  -0.0641  -0.0629  -0.0629  -0.0429  -0.0225
     0.1497   0.1497   0.1857   0.4420   0.5193   0.5193   0.5739   0.6534
     0.6595   0.8051   0.8191   0.8191   0.8971   0.9162   0.9409   0.9892
     1.0061   1.0331   1.0603   1.0640   1.1891   1.2376   1.2376   1.2477
     1.3203   1.4044   1.4953   1.5013   1.5079   1.7054   1.7054   1.7641
     1.7641   1.7754   1.8472   1.8472   1.8522   1.8522   1.8525   1.8531
     1.9848   2.1033   2.1033   2.7761   2.7761   2.9614   2.9614   3.0126
     3.0126   3.1644   3.1644   3.8250   3.9607   3.9607   4.2357   5.8790
     5.8790   7.2565   7.2565   7.3296   7.6220   8.0092   8.0092   8.9735
     8.9735   9.9956  10.0359  10.5069  10.5069  11.1391  11.1391  11.1430
    11.2852  11.4071  11.4071  12.1222  12.1222  12.2711  13.7253  13.7253
    13.7366  13.7366  14.3286  14.4426  14.9692  15.2466  15.3582  15.3582
    16.0318  16.0318  16.0458  16.0664  16.1877  16.8470  16.8470  16.9727
    17.0169  17.3147  17.5747  17.7790  17.7860  18.1173  18.2998  18.2998
    18.7199  18.7270  18.7524  19.1168  19.4163  19.4163  19.4551  19.4551
    19.6011  19.7929  20.2098  20.2098  20.3949  20.7428  20.7647  20.7657
    20.8428  21.1018  21.1542  21.1542  21.2217  21.2217  21.4746  21.4746
    21.9975  22.1779  22.1779  22.1945  22.4583  22.7411  22.7634  22.8489

     occupation numbers 
     1.0000   1.0000   1.0000   1.0000   1.0000   1.0000   1.0000   1.0000
     1.0000   1.0000   1.0000   1.0000   1.0000   1.0000   1.0000   1.0000
     1.0000   1.0000   1.0000   1.0000   1.0000   1.0000   1.0000   1.0000
     1.0000   1.0000   1.0000   1.0000   1.0000   1.0000   1.0000   1.0000
     1.0000   1.0000   1.0000   1.0000   1.0000   1.0000   1.0000   1.0000
     1.0000   1.0000   1.0000   1.0000   1.0000   1.0000   1.0000   1.0000
     1.0000   1.0000   1.0000   1.0000   1.0000   1.0000   1.0000   1.0000
     1.0000   1.0000   1.0000   1.0000   1.0000   1.0000   1.0000   1.0000
     1.0000   1.0000   1.0000   1.0000   1.0000   1.0000   1.0000   1.0000
     1.0000   1.0000   1.0000   1.0000   1.0000   1.0000   1.0000   1.0000
     1.0000   1.0000   1.0000   1.0000   1.0000   1.0000   1.0000   1.0000
     1.0000   1.0000   1.0000   1.0000   1.0000   1.0000   1.0000   1.0000
     1.0000   1.0000   1.0000   1.0000   1.0000   1.0000   1.0000   1.0000
     1.0000   1.0000   1.0000   1.0000   1.0000   1.0000   1.0000   1.0000
     1.0000   1.0000   1.0000   1.0000   1.0000   1.0000   1.0000   1.0000
     1.0000   1.0000   1.0000   1.0000   1.0000   1.0000   1.0000   1.0000
     1.0000   1.0000   1.0000   1.0000   1.0000   1.0000   1.0000   1.0000
     1.0000   1.0000   1.0000   1.0000   1.0000   1.0000   1.0000   1.0000
     1.0000   1.0000   1.0000   1.0000   1.0000   1.0000   1.0000   1.0000
     1.0000   1.0000   1.0000   1.0000   1.0000   1.0000   1.0000   1.0000
     1.0000   1.0000   1.0000   1.0000   1.0000   1.0000   1.0000   1.0000
     1.0000   1.0000   1.0000   1.0000   1.0000   1.0000   1.0000   1.0000
     1.0000   1.0000   1.0000   1.0000   1.0000   1.0000   1.0000   1.0000
     1.0000   1.0000   1.0000   1.0000   1.0000   1.0000   1.0000   1.0000
     1.0000   1.0000   1.0000   1.0000   1.0000   1.0000   1.0000   1.0000
     1.0000   1.0000   1.0000   1.0000   1.0000   1.0000   1.0000   1.0000
     1.0000   1.0000   1.0000   1.0000   1.0000   1.0000   1.0000   1.0000
     1.0000   1.0000   1.0000   1.0000   1.0000   1.0000   1.0000   1.0000
     1.0000   1.0000   1.0000   1.0000   1.0000   1.0000   1.0000   1.0000
     1.0000   1.0000   1.0000   1.0000   1.0000   1.0000   1.0000   1.0000
     1.0000   1.0000   1.0000   1.0000   1.0000   1.0000   1.0000   1.0000
     1.0000   1.0000   1.0000   1.0000   1.0000   1.0000   1.0000   1.0000
     1.0000   1.0000   1.0000   1.0000   1.0000   1.0000   1.0000   1.0000
     1.0000   1.0000   1.0000   1.0000   1.0000   1.0000   1.0000   1.0000
     1.0000   1.0000   1.0000   1.0000   1.0000   1.0000   1.0000   1.0000
     1.0000   1.0000   1.0000   1.0000   1.0000   1.0000   1.0000   1.0000
     1.0000   1.0000   1.0000   1.0000   1.0000   1.0000   1.0000   1.0000
     1.0000   1.0000   1.0000   1.0000   1.0000   1.0000   1.0000   1.0000
     1.0000   1.0000   1.0000   1.0000   1.0000   1.0000   1.0000   1.0000
     1.0000   1.0000   1.0000   1.0021   1.0021   0.8341   0.8341   0.8246
     0.4445   0.1822   0.1822   0.0000   0.0000   0.0000   0.0000   0.0000
     0.0000   0.0000   0.0000   0.0000   0.0000   0.0000   0.0000   0.0000
     0.0000   0.0000   0.0000   0.0000   0.0000   0.0000   0.0000   0.0000
     0.0000   0.0000   0.0000   0.0000   0.0000   0.0000   0.0000   0.0000
     0.0000   0.0000   0.0000   0.0000   0.0000   0.0000   0.0000   0.0000
     0.0000   0.0000   0.0000   0.0000   0.0000   0.0000   0.0000   0.0000
     0.0000   0.0000   0.0000   0.0000   0.0000   0.0000   0.0000   0.0000
     0.0000   0.0000   0.0000   0.0000   0.0000   0.0000   0.0000   0.0000

          k = 0.3333 0.5774 0.0000 ( 10518 PWs)   bands (ev):

  -121.6259-121.6259-121.6259-121.6235-121.6235-121.6235-121.5779-121.5779
  -121.5779-121.5765-121.5765-121.5765-120.9485-120.9485-120.9440-120.9440
  -120.8993-120.8993-120.8990-120.8990-120.2486-120.2486-120.2486-120.2480
  -120.2480-120.2480-120.2024-120.2024-120.2023-120.2021-120.2021-120.2021
   -77.9270 -77.9171 -77.8796 -77.8753 -77.6369 -77.6369 -77.6369 -77.6344
   -77.6344 -77.6344 -77.5960 -77.5960 -77.5960 -77.5947 -77.5947 -77.5947
   -76.8616 -76.8616 -76.8616 -76.8592 -76.8592 -76.8592 -76.8228 -76.8228
   -76.8228 -76.8204 -76.8204 -76.8204 -75.5980 -75.5980 -75.5898 -75.5898
   -75.5553 -75.5553 -75.5549 -75.5549 -74.8684 -74.8684 -74.8684 -74.8366
   -74.8366 -74.8366 -74.7476 -74.7476 -74.7476 -74.7419 -74.7419 -74.7419
   -74.4894 -74.4894 -74.4609 -74.4609 -74.3772 -74.3772 -74.3621 -74.3621
   -74.3077 -74.3077 -74.3076 -74.3015 -74.3015 -74.3015 -74.2718 -74.2718
   -74.2718 -74.2688 -74.2688 -74.2688 -74.1258 -74.1258 -74.1258 -74.0884
   -74.0884 -74.0884 -74.0032 -74.0032 -74.0032 -73.9984 -73.9984 -73.9984
   -73.5230 -73.5230 -73.5230 -73.5158 -73.5158 -73.5158 -73.4865 -73.4865
   -73.4865 -73.4853 -73.4853 -73.4853 -73.2380 -73.2363 -73.2074 -73.2025
    -9.0077  -8.9229  -8.8239  -8.7836  -7.1603  -7.1603  -7.1603  -7.0669
    -7.0669  -7.0669  -6.9758  -6.9758  -6.9758  -6.9483  -6.9483  -6.9483
    -6.2914  -5.9114  -5.4665  -5.3527  -5.3527  -5.3527  -5.1919  -5.1910
    -5.1910  -5.1910  -5.1704  -5.1704  -5.1704  -5.1222  -5.1222  -5.1222
    -5.1190  -5.1190  -5.1190  -5.0537  -5.0537  -5.0537  -4.7797  -4.7797
    -4.7797  -4.7005  -4.7005  -4.7005  -4.6817  -4.6817  -4.6817  -4.5856
    -4.5856  -4.5856  -4.5715  -4.5715  -4.5715  -4.5107  -4.5107  -4.4790
    -4.4790  -4.4790  -4.4719  -4.4719  -4.4090  -4.4090  -4.4052  -4.4052
    -4.2632  -4.2632  -4.2632  -3.9777  -3.9777  -3.9777  -3.6545  -3.6545
    -3.6545  -3.5990  -3.5990  -3.5990  -3.4841  -3.4841  -3.4841  -2.9881
    -2.9881  -2.8387  -2.8387  -2.8387  -2.7268  -2.7268  -2.3360  -2.3360
    -2.1120  -2.1120  -2.1120  -1.9676  -1.9676  -1.1144  -1.1144  -0.9684
    -0.9684  -0.9684  -0.8408  -0.8408  -0.8408  -0.7065  -0.7065  -0.7065
    -0.6473  -0.6473  -0.6473  -0.4490  -0.4490  -0.4191  -0.4191  -0.4191
    -0.4171  -0.4171  -0.4171  -0.1748  -0.1748  -0.1748   0.0495   0.0495
     0.0495   0.1217   0.1217   0.1217   0.1700   0.1700   0.3628   0.3628
     0.3628   0.4512   0.4512   0.4512   0.5107   0.5107   1.0687   1.0687
     1.0687   1.1840   1.1840   1.1840   1.2673   1.2673   1.2673   1.3479
     1.3479   1.3479   1.4456   1.4456   1.4456   1.4552   1.4552   1.4552
     1.4719   1.4719   1.4719   1.7798   1.7798   1.7798   1.9425   1.9847
     2.0133   2.0133   2.0133   2.0578   2.0717   3.1112   3.1112   3.1112
     4.1305   4.1359   4.1609   4.1627   4.7036   5.7772   5.8388   5.8388
     6.4548   6.4548   6.4548   6.7672   6.7672   7.2335   8.4720   8.4720
     8.4910   9.5633   9.5633   9.5633  11.0647  11.0647  12.8068  12.8068
    12.8068  13.4199  13.4199  13.4199  13.4541  13.4541  13.7444  13.7444
    13.7444  14.4384  14.4384  14.4384  14.4676  14.4676  14.4676  15.8891
    16.1749  16.1749  16.1749  16.3904  16.3904  16.3904  16.6143  16.6143
    16.6143  16.9533  16.9533  16.9533  17.0341  17.0341  17.8757  17.8757
    17.8757  17.9136  17.9136  17.9136  17.9967  18.4556  18.4556  18.4556
    18.6782  18.6782  18.6782  19.6639  19.6639  19.6639  20.4051  20.4051
    20.4051  20.5416  20.6106  20.6106  20.8565  20.8565  20.8565  21.4547
    21.4547  21.4547  22.5335  22.5335  22.5335  22.8296  23.5412  23.5412

     occupation numbers 
     1.0000   1.0000   1.0000   1.0000   1.0000   1.0000   1.0000   1.0000
     1.0000   1.0000   1.0000   1.0000   1.0000   1.0000   1.0000   1.0000
     1.0000   1.0000   1.0000   1.0000   1.0000   1.0000   1.0000   1.0000
     1.0000   1.0000   1.0000   1.0000   1.0000   1.0000   1.0000   1.0000
     1.0000   1.0000   1.0000   1.0000   1.0000   1.0000   1.0000   1.0000
     1.0000   1.0000   1.0000   1.0000   1.0000   1.0000   1.0000   1.0000
     1.0000   1.0000   1.0000   1.0000   1.0000   1.0000   1.0000   1.0000
     1.0000   1.0000   1.0000   1.0000   1.0000   1.0000   1.0000   1.0000
     1.0000   1.0000   1.0000   1.0000   1.0000   1.0000   1.0000   1.0000
     1.0000   1.0000   1.0000   1.0000   1.0000   1.0000   1.0000   1.0000
     1.0000   1.0000   1.0000   1.0000   1.0000   1.0000   1.0000   1.0000
     1.0000   1.0000   1.0000   1.0000   1.0000   1.0000   1.0000   1.0000
     1.0000   1.0000   1.0000   1.0000   1.0000   1.0000   1.0000   1.0000
     1.0000   1.0000   1.0000   1.0000   1.0000   1.0000   1.0000   1.0000
     1.0000   1.0000   1.0000   1.0000   1.0000   1.0000   1.0000   1.0000
     1.0000   1.0000   1.0000   1.0000   1.0000   1.0000   1.0000   1.0000
     1.0000   1.0000   1.0000   1.0000   1.0000   1.0000   1.0000   1.0000
     1.0000   1.0000   1.0000   1.0000   1.0000   1.0000   1.0000   1.0000
     1.0000   1.0000   1.0000   1.0000   1.0000   1.0000   1.0000   1.0000
     1.0000   1.0000   1.0000   1.0000   1.0000   1.0000   1.0000   1.0000
     1.0000   1.0000   1.0000   1.0000   1.0000   1.0000   1.0000   1.0000
     1.0000   1.0000   1.0000   1.0000   1.0000   1.0000   1.0000   1.0000
     1.0000   1.0000   1.0000   1.0000   1.0000   1.0000   1.0000   1.0000
     1.0000   1.0000   1.0000   1.0000   1.0000   1.0000   1.0000   1.0000
     1.0000   1.0000   1.0000   1.0000   1.0000   1.0000   1.0000   1.0000
     1.0000   1.0000   1.0000   1.0000   1.0000   1.0000   1.0000   1.0000
     1.0000   1.0000   1.0000   1.0000   1.0000   1.0000   1.0000   1.0000
     1.0000   1.0000   1.0000   1.0000   1.0000   1.0000   1.0000   1.0000
     1.0000   1.0000   1.0000   1.0000   1.0000   1.0000   1.0000   1.0000
     1.0000   1.0000   1.0000   1.0000   1.0000   1.0000   1.0000   1.0000
     1.0000   1.0000   1.0000   1.0000   1.0000   1.0000   1.0000   1.0000
     1.0000   1.0000   1.0000   1.0000   1.0000   1.0000   1.0000   1.0000
     1.0000   1.0000   1.0000   1.0000   1.0000   1.0000   1.0000   1.0000
     1.0000   1.0000   1.0000   1.0000   1.0000   1.0000   1.0000   1.0000
     1.0000   1.0000   1.0000   1.0000   1.0000   1.0000   1.0000   1.0000
     1.0000   1.0000   1.0000   1.0000   1.0000   1.0000   1.0000   1.0000
     1.0000   1.0000   1.0000   1.0000   1.0000   1.0000   1.0000   1.0000
     1.0000   1.0000   1.0000   1.0000   1.0000   1.0000   1.0000   1.0000
     1.0000   1.0000   1.0000   1.0000   1.0000   1.0000   1.0000   1.0000
     1.0000   1.0000   1.0000   1.0000   0.9809   0.9809   0.0000   0.0000
     0.0000   0.0000   0.0000   0.0000   0.0000   0.0000   0.0000   0.0000
     0.0000   0.0000   0.0000   0.0000   0.0000   0.0000   0.0000   0.0000
     0.0000   0.0000   0.0000   0.0000   0.0000   0.0000   0.0000   0.0000
     0.0000   0.0000   0.0000   0.0000   0.0000   0.0000   0.0000   0.0000
     0.0000   0.0000   0.0000   0.0000   0.0000   0.0000   0.0000   0.0000
     0.0000   0.0000   0.0000   0.0000   0.0000   0.0000   0.0000   0.0000
     0.0000   0.0000   0.0000   0.0000   0.0000   0.0000   0.0000   0.0000
     0.0000   0.0000   0.0000   0.0000   0.0000   0.0000   0.0000   0.0000

          k = 0.3333-0.1925 0.0000 ( 10529 PWs)   bands (ev):

  -121.8437-121.8402-121.7943-121.7940-121.5351-121.5327-121.4870-121.4860
  -121.2886-121.2886-121.2861-121.2861-121.2405-121.2405-121.2399-121.2399
  -120.6012-120.6012-120.5998-120.5998-120.5543-120.5543-120.5539-120.5539
  -120.3438-120.3414-120.2966-120.2961-120.0201-120.0183-119.9734-119.9732
   -77.8145 -77.8145 -77.8081 -77.8081 -77.7710 -77.7710 -77.7697 -77.7697
   -77.6406 -77.6319 -77.5946 -77.5935 -77.4697 -77.4627 -77.4259 -77.4240
   -77.1985 -77.1943 -77.1584 -77.1553 -76.8172 -76.8145 -76.7806 -76.7736
   -76.3655 -76.3655 -76.3577 -76.3577 -76.3233 -76.3233 -76.3226 -76.3226
   -74.9840 -74.9543 -74.8624 -74.8612 -74.8326 -74.8326 -74.8295 -74.8295
   -74.8166 -74.7962 -74.7962 -74.7960 -74.7960 -74.7845 -74.6936 -74.6918
   -74.6778 -74.6778 -74.6460 -74.6460 -74.5575 -74.5575 -74.5526 -74.5526
   -74.3655 -74.3638 -74.3324 -74.3282 -74.3106 -74.3106 -74.2751 -74.2751
   -74.1878 -74.1878 -74.1864 -74.1864 -74.1697 -74.1393 -74.0515 -74.0481
   -74.0061 -73.9697 -73.9584 -73.9548 -73.9244 -73.9223 -73.8830 -73.8709
   -73.6937 -73.6863 -73.6571 -73.6561 -73.5113 -73.5009 -73.4730 -73.4722
   -73.3451 -73.3451 -73.3421 -73.3421 -73.3129 -73.3129 -73.3104 -73.3104
    -8.3921  -8.3921  -8.3069  -8.3069  -8.2154  -8.2154  -8.1855  -8.1855
    -7.1642  -7.0796  -6.9775  -6.9383  -6.0249  -5.9929  -5.9477  -5.9459
    -5.9358  -5.9358  -5.7582  -5.6283  -5.6133  -5.5775  -5.5775  -5.5395
    -5.5387  -5.4330  -5.4330  -5.3999  -5.3999  -5.3561  -5.3561  -5.3543
    -5.3543  -5.2892  -5.1507  -5.1454  -5.1454  -5.0808  -5.0196  -4.9143
    -4.9071  -4.9071  -4.8753  -4.8738  -4.8258  -4.8089  -4.8075  -4.6872
    -4.6425  -4.5740  -4.4767  -4.4627  -4.4457  -4.4430  -4.4126  -4.3108
    -4.2580  -4.1927  -4.1694  -4.1641  -4.1581  -4.1581  -4.0744  -4.0744
    -4.0457  -4.0457  -4.0224  -4.0103  -3.9383  -3.9383  -3.9212  -3.9212
    -3.8997  -3.7897  -3.7530  -3.7530  -3.7475  -3.6956  -3.3445  -3.3445
    -3.0820  -3.0820  -2.8668  -2.2949  -2.2594  -2.0733  -2.0733  -1.9802
    -1.9802  -1.8795  -1.8795  -1.8024  -1.5186  -1.4290  -1.3698  -1.3387
    -1.1240  -1.0633  -0.9974  -0.9804  -0.9077  -0.9077  -0.9048  -0.9048
    -0.7818  -0.6649  -0.6649  -0.5649  -0.4808  -0.4808  -0.3403  -0.3393
    -0.3221  -0.2281  -0.0641  -0.0641  -0.0629  -0.0629  -0.0429  -0.0225
     0.1497   0.1497   0.1857   0.4420   0.5193   0.5193   0.5739   0.6534
     0.6595   0.8051   0.8191   0.8191   0.8971   0.9162   0.9409   0.9892
     1.0061   1.0331   1.0603   1.0640   1.1891   1.2376   1.2376   1.2477
     1.3203   1.4044   1.4953   1.5013   1.5079   1.7054   1.7054   1.7641
     1.7641   1.7754   1.8472   1.8472   1.8522   1.8522   1.8525   1.8531
     1.9848   2.1033   2.1033   2.7761   2.7761   2.9614   2.9614   3.0126
     3.0126   3.1644   3.1644   3.8250   3.9607   3.9607   4.2357   5.8790
     5.8790   7.2565   7.2565   7.3296   7.6220   8.0092   8.0092   8.9735
     8.9735   9.9956  10.0359  10.5069  10.5069  11.1391  11.1391  11.1430
    11.2852  11.4071  11.4071  12.1222  12.1222  12.2711  13.7253  13.7253
    13.7366  13.7366  14.3286  14.4426  14.9692  15.2466  15.3582  15.3582
    16.0318  16.0318  16.0458  16.0664  16.1877  16.8470  16.8470  16.9727
    17.0169  17.3147  17.5747  17.7790  17.7860  18.1173  18.2998  18.2998
    18.7199  18.7270  18.7524  19.1168  19.4163  19.4163  19.4551  19.4551
    19.6011  19.7929  20.2098  20.2098  20.3949  20.7428  20.7647  20.7657
    20.8428  21.1018  21.1542  21.1542  21.2217  21.2217  21.4746  21.4746
    21.9975  22.1779  22.1779  22.1945  22.4583  22.7411  22.7634  22.8489

     occupation numbers 
     1.0000   1.0000   1.0000   1.0000   1.0000   1.0000   1.0000   1.0000
     1.0000   1.0000   1.0000   1.0000   1.0000   1.0000   1.0000   1.0000
     1.0000   1.0000   1.0000   1.0000   1.0000   1.0000   1.0000   1.0000
     1.0000   1.0000   1.0000   1.0000   1.0000   1.0000   1.0000   1.0000
     1.0000   1.0000   1.0000   1.0000   1.0000   1.0000   1.0000   1.0000
     1.0000   1.0000   1.0000   1.0000   1.0000   1.0000   1.0000   1.0000
     1.0000   1.0000   1.0000   1.0000   1.0000   1.0000   1.0000   1.0000
     1.0000   1.0000   1.0000   1.0000   1.0000   1.0000   1.0000   1.0000
     1.0000   1.0000   1.0000   1.0000   1.0000   1.0000   1.0000   1.0000
     1.0000   1.0000   1.0000   1.0000   1.0000   1.0000   1.0000   1.0000
     1.0000   1.0000   1.0000   1.0000   1.0000   1.0000   1.0000   1.0000
     1.0000   1.0000   1.0000   1.0000   1.0000   1.0000   1.0000   1.0000
     1.0000   1.0000   1.0000   1.0000   1.0000   1.0000   1.0000   1.0000
     1.0000   1.0000   1.0000   1.0000   1.0000   1.0000   1.0000   1.0000
     1.0000   1.0000   1.0000   1.0000   1.0000   1.0000   1.0000   1.0000
     1.0000   1.0000   1.0000   1.0000   1.0000   1.0000   1.0000   1.0000
     1.0000   1.0000   1.0000   1.0000   1.0000   1.0000   1.0000   1.0000
     1.0000   1.0000   1.0000   1.0000   1.0000   1.0000   1.0000   1.0000
     1.0000   1.0000   1.0000   1.0000   1.0000   1.0000   1.0000   1.0000
     1.0000   1.0000   1.0000   1.0000   1.0000   1.0000   1.0000   1.0000
     1.0000   1.0000   1.0000   1.0000   1.0000   1.0000   1.0000   1.0000
     1.0000   1.0000   1.0000   1.0000   1.0000   1.0000   1.0000   1.0000
     1.0000   1.0000   1.0000   1.0000   1.0000   1.0000   1.0000   1.0000
     1.0000   1.0000   1.0000   1.0000   1.0000   1.0000   1.0000   1.0000
     1.0000   1.0000   1.0000   1.0000   1.0000   1.0000   1.0000   1.0000
     1.0000   1.0000   1.0000   1.0000   1.0000   1.0000   1.0000   1.0000
     1.0000   1.0000   1.0000   1.0000   1.0000   1.0000   1.0000   1.0000
     1.0000   1.0000   1.0000   1.0000   1.0000   1.0000   1.0000   1.0000
     1.0000   1.0000   1.0000   1.0000   1.0000   1.0000   1.0000   1.0000
     1.0000   1.0000   1.0000   1.0000   1.0000   1.0000   1.0000   1.0000
     1.0000   1.0000   1.0000   1.0000   1.0000   1.0000   1.0000   1.0000
     1.0000   1.0000   1.0000   1.0000   1.0000   1.0000   1.0000   1.0000
     1.0000   1.0000   1.0000   1.0000   1.0000   1.0000   1.0000   1.0000
     1.0000   1.0000   1.0000   1.0000   1.0000   1.0000   1.0000   1.0000
     1.0000   1.0000   1.0000   1.0000   1.0000   1.0000   1.0000   1.0000
     1.0000   1.0000   1.0000   1.0000   1.0000   1.0000   1.0000   1.0000
     1.0000   1.0000   1.0000   1.0000   1.0000   1.0000   1.0000   1.0000
     1.0000   1.0000   1.0000   1.0000   1.0000   1.0000   1.0000   1.0000
     1.0000   1.0000   1.0000   1.0000   1.0000   1.0000   1.0000   1.0000
     1.0000   1.0000   1.0000   1.0021   1.0021   0.8341   0.8341   0.8246
     0.4445   0.1822   0.1822   0.0000   0.0000   0.0000   0.0000   0.0000
     0.0000   0.0000   0.0000   0.0000   0.0000   0.0000   0.0000   0.0000
     0.0000   0.0000   0.0000   0.0000   0.0000   0.0000   0.0000   0.0000
     0.0000   0.0000   0.0000   0.0000   0.0000   0.0000   0.0000   0.0000
     0.0000   0.0000   0.0000   0.0000   0.0000   0.0000   0.0000   0.0000
     0.0000   0.0000   0.0000   0.0000   0.0000   0.0000   0.0000   0.0000
     0.0000   0.0000   0.0000   0.0000   0.0000   0.0000   0.0000   0.0000
     0.0000   0.0000   0.0000   0.0000   0.0000   0.0000   0.0000   0.0000

     the Fermi energy is    11.3023 ev

!    total energy              =  -14727.42853808 Ry
     estimated scf accuracy    <       0.00000002 Ry
     smearing contrib. (-TS)   =      -0.01139081 Ry
     internal energy E=F+TS    =  -14727.41714727 Ry

     The total energy is F=E-TS. E is the sum of the following terms:
     one-electron contribution = -173862.47808058 Ry
     hartree contribution      =   87002.38975309 Ry
     xc contribution           =   -1379.09908416 Ry
     ewald contribution        =   73511.77026437 Ry

     convergence has been achieved in  12 iterations

     Forces acting on atoms (cartesian axes, Ry/au):

     atom    1 type  1   force =    -0.00000075    0.00000202   -0.10650713
     atom    2 type  1   force =     0.00000222    0.00000081    0.01177530
     atom    3 type  1   force =     0.00000162   -0.00000105   -0.01162697
     atom    4 type  1   force =     0.00000037   -0.00000321    0.10635851
     atom    5 type  1   force =     0.00000314   -0.00000120   -0.10650747
     atom    6 type  1   force =     0.00000312    0.00000178    0.01177595
     atom    7 type  1   force =     0.00000177    0.00000256   -0.01162658
     atom    8 type  1   force =    -0.00000029    0.00000274    0.10635825
     atom    9 type  1   force =     0.00000129   -0.00000112   -0.10650622
     atom   10 type  1   force =    -0.00000168   -0.00000262    0.01177672
     atom   11 type  1   force =    -0.00000106   -0.00000308   -0.01162766
     atom   12 type  1   force =     0.00000005   -0.00000263    0.10635802
     atom   13 type  1   force =    -0.00000246   -0.00000012   -0.10650615
     atom   14 type  1   force =    -0.00000267   -0.00000051    0.01177597
     atom   15 type  1   force =    -0.00000125    0.00000110   -0.01162793
     atom   16 type  1   force =     0.00000104    0.00000261    0.10635828
     atom   17 type  1   force =     0.00000061    0.00000108   -0.10650686
     atom   18 type  1   force =     0.00000364    0.00000186    0.01177724
     atom   19 type  1   force =     0.00000156   -0.00000040   -0.01162738
     atom   20 type  1   force =     0.00000039   -0.00000140    0.10635783
     atom   21 type  1   force =     0.00000111    0.00000046   -0.10650634
     atom   22 type  1   force =     0.00000302    0.00000255    0.01177532
     atom   23 type  1   force =     0.00000077    0.00000218   -0.01162830
     atom   24 type  1   force =    -0.00000079    0.00000164    0.10635832
     atom   25 type  1   force =    -0.00000116   -0.00000052   -0.10650652
     atom   26 type  1   force =    -0.00000418   -0.00000189    0.01177535
     atom   27 type  1   force =    -0.00000210   -0.00000159   -0.01162737
     atom   28 type  1   force =    -0.00000081   -0.00000093    0.10635825
     atom   29 type  1   force =    -0.00000174   -0.00000066   -0.10650715
     atom   30 type  1   force =    -0.00000352   -0.00000194    0.01177551
     atom   31 type  1   force =    -0.00000126    0.00000030   -0.01162761
     atom   32 type  1   force =    -0.00000001    0.00000118    0.10635881
     The non-local contrib.  to forces
     atom    1 type  1   force =    -0.00000090    0.00000143    0.36631333
     atom    2 type  1   force =     0.00000086    0.00000076   -0.04905643
     atom    3 type  1   force =     0.00000047   -0.00000045    0.04914917
     atom    4 type  1   force =    -0.00000024   -0.00000171   -0.36643200
     atom    5 type  1   force =     0.00000135   -0.00000044    0.36631313
     atom    6 type  1   force =     0.00000147    0.00000128   -0.04905600
     atom    7 type  1   force =     0.00000060    0.00000180    0.04914942
     atom    8 type  1   force =    -0.00000061    0.00000194   -0.36643208
     atom    9 type  1   force =     0.00000028   -0.00000047    0.36631401
     atom   10 type  1   force =    -0.00000143   -0.00000128   -0.04905601
     atom   11 type  1   force =    -0.00000107   -0.00000157    0.04914874
     atom   12 type  1   force =    -0.00000039   -0.00000139   -0.36643223
     atom   13 type  1   force =    -0.00000196    0.00000022    0.36631399
     atom   14 type  1   force =    -0.00000208   -0.00000006   -0.04905648
     atom   15 type  1   force =    -0.00000121    0.00000091    0.04914855
     atom   16 type  1   force =     0.00000003    0.00000185   -0.36643209
     atom   17 type  1   force =     0.00000092    0.00000041    0.36631362
     atom   18 type  1   force =     0.00000254    0.00000085   -0.04905561
     atom   19 type  1   force =     0.00000141   -0.00000046    0.04914906
     atom   20 type  1   force =     0.00000071   -0.00000115   -0.36643241
     atom   21 type  1   force =     0.00000116    0.00000006    0.36631377
     atom   22 type  1   force =     0.00000225    0.00000121   -0.04905661
     atom   23 type  1   force =     0.00000091    0.00000106    0.04914842
     atom   24 type  1   force =     0.00000003    0.00000086   -0.36643201
     atom   25 type  1   force =    -0.00000029   -0.00000056    0.36631367
     atom   26 type  1   force =    -0.00000199   -0.00000138   -0.04905641
     atom   27 type  1   force =    -0.00000081   -0.00000116    0.04914898
     atom   28 type  1   force =    -0.00000007   -0.00000085   -0.36643212
     atom   29 type  1   force =    -0.00000055   -0.00000064    0.36631342
     atom   30 type  1   force =    -0.00000166   -0.00000141   -0.04905628
     atom   31 type  1   force =    -0.00000030   -0.00000014    0.04914885
     atom   32 type  1   force =     0.00000054    0.00000045   -0.36643180
     The ionic contribution  to forces
     atom    1 type  1   force =     0.00000390   -0.00000203 -842.04002068
     atom    2 type  1   force =     0.00000393   -0.00000204 -280.39736088
     atom    3 type  1   force =     0.00000393   -0.00000204  280.39736088
     atom    4 type  1   force =     0.00000390   -0.00000203  842.04002068
     atom    5 type  1   force =     0.00000389   -0.00000220 -842.04002068
     atom    6 type  1   force =     0.00000392   -0.00000222 -280.39736088
     atom    7 type  1   force =     0.00000392   -0.00000222  280.39736088
     atom    8 type  1   force =     0.00000389   -0.00000220  842.04002068
     atom    9 type  1   force =     0.00000377   -0.00000212 -842.04002067
     atom   10 type  1   force =     0.00000380   -0.00000213 -280.39736088
     atom   11 type  1   force =     0.00000380   -0.00000213  280.39736088
     atom   12 type  1   force =     0.00000377   -0.00000212  842.04002067
     atom   13 type  1   force =     0.00000376   -0.00000229 -842.04002068
     atom   14 type  1   force =     0.00000379   -0.00000231 -280.39736088
     atom   15 type  1   force =     0.00000379   -0.00000231  280.39736088
     atom   16 type  1   force =     0.00000376   -0.00000229  842.04002068
     atom   17 type  1   force =    -0.00000376    0.00000229 -842.04002068
     atom   18 type  1   force =    -0.00000379    0.00000231 -280.39736088
     atom   19 type  1   force =    -0.00000379    0.00000231  280.39736088
     atom   20 type  1   force =    -0.00000376    0.00000229  842.04002068
     atom   21 type  1   force =    -0.00000377    0.00000212 -842.04002067
     atom   22 type  1   force =    -0.00000380    0.00000213 -280.39736088
     atom   23 type  1   force =    -0.00000380    0.00000213  280.39736088
     atom   24 type  1   force =    -0.00000377    0.00000212  842.04002067
     atom   25 type  1   force =    -0.00000389    0.00000220 -842.04002068
     atom   26 type  1   force =    -0.00000392    0.00000222 -280.39736088
     atom   27 type  1   force =    -0.00000392    0.00000222  280.39736088
     atom   28 type  1   force =    -0.00000389    0.00000220  842.04002068
     atom   29 type  1   force =    -0.00000390    0.00000203 -842.04002068
     atom   30 type  1   force =    -0.00000393    0.00000204 -280.39736088
     atom   31 type  1   force =    -0.00000393    0.00000204  280.39736088
     atom   32 type  1   force =    -0.00000390    0.00000203  842.04002068
     The local contribution  to forces
     atom    1 type  1   force =    -0.00000163   -0.00000143  841.56683455
     atom    2 type  1   force =    -0.00000658    0.00000030  280.45759989
     atom    3 type  1   force =    -0.00000537    0.00000313 -280.45777024
     atom    4 type  1   force =    -0.00000351    0.00000642 -841.56668357
     atom    5 type  1   force =    -0.00000746    0.00000360  841.56683448
     atom    6 type  1   force =    -0.00000794   -0.00000111  280.45759889
     atom    7 type  1   force =    -0.00000561   -0.00000203 -280.45777070
     atom    8 type  1   force =    -0.00000255   -0.00000254 -841.56668329
     atom    9 type  1   force =    -0.00000486    0.00000340  841.56683246
     atom   10 type  1   force =    -0.00000027    0.00000562  280.45760022
     atom   11 type  1   force =    -0.00000129    0.00000609 -280.45776915
     atom   12 type  1   force =    -0.00000299    0.00000570 -841.56668300
     atom   13 type  1   force =     0.00000094    0.00000180  841.56683289
     atom   14 type  1   force =     0.00000122    0.00000261  280.45760123
     atom   15 type  1   force =    -0.00000103    0.00000029 -280.45776866
     atom   16 type  1   force =    -0.00000406   -0.00000222 -841.56668326
     atom   17 type  1   force =     0.00000195   -0.00000342  841.56683284
     atom   18 type  1   force =    -0.00000275   -0.00000477  280.45759890
     atom   19 type  1   force =     0.00000053   -0.00000138 -280.45777008
     atom   20 type  1   force =     0.00000211    0.00000037 -841.56668259
     atom   21 type  1   force =     0.00000108   -0.00000227  841.56683391
     atom   22 type  1   force =    -0.00000196   -0.00000554  280.45760101
     atom   23 type  1   force =     0.00000176   -0.00000476 -280.45776884
     atom   24 type  1   force =     0.00000390   -0.00000430 -841.56668340
     atom   25 type  1   force =     0.00000456   -0.00000091  841.56683393
     atom   26 type  1   force =     0.00000960    0.00000133  280.45759992
     atom   27 type  1   force =     0.00000611    0.00000050 -280.45777022
     atom   28 type  1   force =     0.00000437   -0.00000031 -841.56668320
     atom   29 type  1   force =     0.00000548   -0.00000074  841.56683367
     atom   30 type  1   force =     0.00000871    0.00000158  280.45759956
     atom   31 type  1   force =     0.00000491   -0.00000182 -280.45776985
     atom   32 type  1   force =     0.00000271   -0.00000312 -841.56668401
     The core correction contribution to forces
     atom    1 type  1   force =     0.00000000    0.00000000    0.00000000
     atom    2 type  1   force =     0.00000000    0.00000000    0.00000000
     atom    3 type  1   force =     0.00000000    0.00000000    0.00000000
     atom    4 type  1   force =     0.00000000    0.00000000    0.00000000
     atom    5 type  1   force =     0.00000000    0.00000000    0.00000000
     atom    6 type  1   force =     0.00000000    0.00000000    0.00000000
     atom    7 type  1   force =     0.00000000    0.00000000    0.00000000
     atom    8 type  1   force =     0.00000000    0.00000000    0.00000000
     atom    9 type  1   force =     0.00000000    0.00000000    0.00000000
     atom   10 type  1   force =     0.00000000    0.00000000    0.00000000
     atom   11 type  1   force =     0.00000000    0.00000000    0.00000000
     atom   12 type  1   force =     0.00000000    0.00000000    0.00000000
     atom   13 type  1   force =     0.00000000    0.00000000    0.00000000
     atom   14 type  1   force =     0.00000000    0.00000000    0.00000000
     atom   15 type  1   force =     0.00000000    0.00000000    0.00000000
     atom   16 type  1   force =     0.00000000    0.00000000    0.00000000
     atom   17 type  1   force =     0.00000000    0.00000000    0.00000000
     atom   18 type  1   force =     0.00000000    0.00000000    0.00000000
     atom   19 type  1   force =     0.00000000    0.00000000    0.00000000
     atom   20 type  1   force =     0.00000000    0.00000000    0.00000000
     atom   21 type  1   force =     0.00000000    0.00000000    0.00000000
     atom   22 type  1   force =     0.00000000    0.00000000    0.00000000
     atom   23 type  1   force =     0.00000000    0.00000000    0.00000000
     atom   24 type  1   force =     0.00000000    0.00000000    0.00000000
     atom   25 type  1   force =     0.00000000    0.00000000    0.00000000
     atom   26 type  1   force =     0.00000000    0.00000000    0.00000000
     atom   27 type  1   force =     0.00000000    0.00000000    0.00000000
     atom   28 type  1   force =     0.00000000    0.00000000    0.00000000
     atom   29 type  1   force =     0.00000000    0.00000000    0.00000000
     atom   30 type  1   force =     0.00000000    0.00000000    0.00000000
     atom   31 type  1   force =     0.00000000    0.00000000    0.00000000
     atom   32 type  1   force =     0.00000000    0.00000000    0.00000000
     The Hubbard contrib.    to forces
     atom    1 type  1   force =     0.00000000    0.00000000    0.00000000
     atom    2 type  1   force =     0.00000000    0.00000000    0.00000000
     atom    3 type  1   force =     0.00000000    0.00000000    0.00000000
     atom    4 type  1   force =     0.00000000    0.00000000    0.00000000
     atom    5 type  1   force =     0.00000000    0.00000000    0.00000000
     atom    6 type  1   force =     0.00000000    0.00000000    0.00000000
     atom    7 type  1   force =     0.00000000    0.00000000    0.00000000
     atom    8 type  1   force =     0.00000000    0.00000000    0.00000000
     atom    9 type  1   force =     0.00000000    0.00000000    0.00000000
     atom   10 type  1   force =     0.00000000    0.00000000    0.00000000
     atom   11 type  1   force =     0.00000000    0.00000000    0.00000000
     atom   12 type  1   force =     0.00000000    0.00000000    0.00000000
     atom   13 type  1   force =     0.00000000    0.00000000    0.00000000
     atom   14 type  1   force =     0.00000000    0.00000000    0.00000000
     atom   15 type  1   force =     0.00000000    0.00000000    0.00000000
     atom   16 type  1   force =     0.00000000    0.00000000    0.00000000
     atom   17 type  1   force =     0.00000000    0.00000000    0.00000000
     atom   18 type  1   force =     0.00000000    0.00000000    0.00000000
     atom   19 type  1   force =     0.00000000    0.00000000    0.00000000
     atom   20 type  1   force =     0.00000000    0.00000000    0.00000000
     atom   21 type  1   force =     0.00000000    0.00000000    0.00000000
     atom   22 type  1   force =     0.00000000    0.00000000    0.00000000
     atom   23 type  1   force =     0.00000000    0.00000000    0.00000000
     atom   24 type  1   force =     0.00000000    0.00000000    0.00000000
     atom   25 type  1   force =     0.00000000    0.00000000    0.00000000
     atom   26 type  1   force =     0.00000000    0.00000000    0.00000000
     atom   27 type  1   force =     0.00000000    0.00000000    0.00000000
     atom   28 type  1   force =     0.00000000    0.00000000    0.00000000
     atom   29 type  1   force =     0.00000000    0.00000000    0.00000000
     atom   30 type  1   force =     0.00000000    0.00000000    0.00000000
     atom   31 type  1   force =     0.00000000    0.00000000    0.00000000
     atom   32 type  1   force =     0.00000000    0.00000000    0.00000000
     The SCF correction term to forces
     atom    1 type  1   force =    -0.00000000    0.00000000    0.00000000
     atom    2 type  1   force =     0.00000000    0.00000000    0.00000000
     atom    3 type  1   force =     0.00000000   -0.00000000   -0.00038792
     atom    4 type  1   force =     0.00000000   -0.00000000   -0.00056774
     atom    5 type  1   force =     0.00000000   -0.00000000    0.00000000
     atom    6 type  1   force =     0.00000000    0.00000000    0.00000000
     atom    7 type  1   force =     0.00000000    0.00000000   -0.00038732
     atom    8 type  1   force =    -0.00000000    0.00000000   -0.00056820
     atom    9 type  1   force =     0.00000000   -0.00000000    0.00000000
     atom   10 type  1   force =    -0.00000000   -0.00000000    0.00000000
     atom   11 type  1   force =    -0.00000000   -0.00000000   -0.00038927
     atom   12 type  1   force =    -0.00000000   -0.00000000   -0.00056857
     atom   13 type  1   force =    -0.00000000    0.00000000    0.00000000
     atom   14 type  1   force =    -0.00000000   -0.00000000    0.00000000
     atom   15 type  1   force =    -0.00000000    0.00000000   -0.00038984
     atom   16 type  1   force =     0.00000000    0.00000000   -0.00056818
     atom   17 type  1   force =     0.00000000    0.00000000    0.00000000
     atom   18 type  1   force =     0.00000000    0.00000000    0.00000000
     atom   19 type  1   force =     0.00000000   -0.00000000   -0.00038837
     atom   20 type  1   force =     0.00000000   -0.00000000   -0.00056899
     atom   21 type  1   force =     0.00000000    0.00000000    0.00000000
     atom   22 type  1   force =     0.00000000    0.00000000    0.00000000
     atom   23 type  1   force =     0.00000000    0.00000000   -0.00038990
     atom   24 type  1   force =    -0.00000000    0.00000000   -0.00056808
     atom   25 type  1   force =    -0.00000000   -0.00000000    0.00000000
     atom   26 type  1   force =    -0.00000000   -0.00000000    0.00000000
     atom   27 type  1   force =    -0.00000000   -0.00000000   -0.00038816
     atom   28 type  1   force =    -0.00000000   -0.00000000   -0.00056825
     atom   29 type  1   force =    -0.00000000   -0.00000000    0.00000000
     atom   30 type  1   force =    -0.00000000   -0.00000000    0.00000000
     atom   31 type  1   force =    -0.00000000    0.00000000   -0.00038862
     atom   32 type  1   force =     0.00000000    0.00000000   -0.00056719

     Total force =     0.302619     Total SCF correction =     0.001947


     Computing stress (Cartesian axis) and pressure

          total   stress  (Ry/bohr**3)                   (kbar)     P=     2996.70
   0.03108565   0.00000000   0.00000000         4572.86        0.00        0.00
   0.00000000   0.03108565   0.00000000            0.00     4572.86        0.00
   0.00000000   0.00000000  -0.00105786            0.00        0.00     -155.62

     kinetic stress (kbar)  35104.25     -0.00     -0.00
                               -0.00  35104.25      0.00
                               -0.00      0.00  35245.34

     local   stress (kbar)**********     -0.01      0.00
                               -0.01**********      0.00
                                0.00      0.006561604.17

     nonloc. stress (kbar)  -3572.46     -0.00      0.00
                               -0.00  -3572.46     -0.00
                                0.00     -0.00  -2433.54

     hartree stress (kbar)3263237.85      0.00     -0.00
                                0.003263237.85     -0.00
                               -0.00     -0.00**********

     exc-cor stress (kbar) -17083.48      0.00     -0.00
                                0.00 -17083.48     -0.00
                               -0.00     -0.00 -17160.88

     corecor stress (kbar)      0.00      0.00      0.00
                                0.00      0.00      0.00
                                0.00      0.00      0.00

     ewald   stress (kbar)3137160.32      0.01     -0.00
                                0.013137160.33     -0.00
                               -0.00     -0.00**********

     hubbard stress (kbar)      0.00      0.00      0.00
                                0.00      0.00      0.00
                                0.00      0.00      0.00

     DFT-D   stress (kbar)      0.00      0.00      0.00
                                0.00      0.00      0.00
                                0.00      0.00      0.00

     XDM     stress (kbar)      0.00      0.00      0.00
                                0.00      0.00      0.00
                                0.00      0.00      0.00

     dft-nl  stress (kbar)      0.00      0.00      0.00
                                0.00      0.00      0.00
                                0.00      0.00      0.00

     TS-vdW  stress (kbar)      0.00      0.00      0.00
                                0.00      0.00      0.00
                                0.00      0.00      0.00

     MDB     stress (kbar)      0.00      0.00      0.00
                                0.00      0.00      0.00
                                0.00      0.00      0.00

     3D-RISM stress (kbar)      0.00      0.00      0.00
                                0.00      0.00      0.00
                                0.00      0.00      0.00

     Energy error            =      4.0E+01 Ry
     Gradient error          =      1.1E-01 Ry/Bohr

     number of scf cycles    =   2
     number of bfgs steps    =   1

     energy             old  =  -14767.5022770054 Ry
     energy             new  =  -14727.4285380814 Ry

     CASE: energy            _new > energy            _old

     new trust radius        =       0.0000699511 bohr

     trust_radius < trust_radius_min

     resetting bfgs history

     new conv_thr            =       0.0000007350 Ry


ATOMIC_POSITIONS (angstrom)
Zn              -0.0000000013        1.5094014066        1.2726699898    0   0   0
Zn              -0.0000000014        1.5094014062        3.4978553247    0   0   0
Zn               0.0562221023        1.5418671269        5.8860373657    0   0   1
Zn               0.0900804655        1.5614188427        8.0303677561    0   0   1
Zn              -1.3071799293        3.7735034563        1.2726699898    0   0   0
Zn              -1.3071799290        3.7735034559        3.4978553247    0   0   0
Zn              -1.2509569054        3.8059701004        5.8860377667    0   0   1
Zn              -1.2171005513        3.8255223634        8.0303668643    0   0   1
Zn               2.6143598544        1.5094014066        1.2726699898    0   0   0
Zn               2.6143598542        1.5094014062        3.4978553247    0   0   0
Zn               2.6684740773        1.5406505662        5.8780936931    0   0   1
Zn               2.7034181849        1.5608271434        8.0211323409    0   0   1
Zn               1.3071799267        3.7735034563        1.2726699898    0   0   0
Zn               1.3071799266        3.7735034559        3.4978553247    0   0   0
Zn               1.3612937819        3.8047518292        5.8780953294    0   0   1
Zn               1.3962380846        3.8249293646        8.0211356987    0   0   1
[...]
     atom   11 type  1   force =    -0.38696413   -0.22352343    1.12385406
     atom   12 type  1   force =    -0.05108131   -0.02948483    1.07468356
     atom   13 type  1   force =     0.00078413    0.00045213    0.76183159
     atom   14 type  1   force =    -0.00079509   -0.00046003    0.95581691
     atom   15 type  1   force =    -0.38695358   -0.22352734    1.12385460
     atom   16 type  1   force =    -0.05108843   -0.02948571    1.07469276
     atom   17 type  1   force =    -0.00039319   -0.00022651   -1.15579095
     atom   18 type  1   force =    -0.00003898   -0.00002180   -0.95577265
     atom   19 type  1   force =     0.37560053    0.21697287   -1.12338057
     atom   20 type  1   force =     0.04688255    0.02706401   -0.69900635
     atom   21 type  1   force =    -0.00039316   -0.00022647   -1.15579106
     atom   22 type  1   force =    -0.00003895   -0.00002183   -0.95577071
     atom   23 type  1   force =     0.37560423    0.21696962   -1.12338264
     atom   24 type  1   force =     0.04687414    0.02706090   -0.69899850
     atom   25 type  1   force =    -0.00024354   -0.00014016   -1.15578627
     atom   26 type  1   force =     0.00031164    0.00018053   -0.95562431
     atom   27 type  1   force =     0.40577061    0.23438295   -1.11598657
     atom   28 type  1   force =     0.05720188    0.03301708   -0.69475079
     atom   29 type  1   force =    -0.00024357   -0.00014008   -1.15578619
     atom   30 type  1   force =     0.00031159    0.00018056   -0.95562533
     atom   31 type  1   force =     0.40576876    0.23439090   -1.11598509
     atom   32 type  1   force =     0.05720710    0.03301066   -0.69475011
     The non-local contrib.  to forces
     atom    1 type  1   force =     0.00080350    0.00046457   -0.50641882
     atom    2 type  1   force =     0.00489005    0.00282317   -1.10072179
     atom    3 type  1   force =     0.48280217    0.27889356   -1.19929698
     atom    4 type  1   force =     0.06849572    0.03952955   -1.34088738
     atom    5 type  1   force =     0.00080335    0.00046463   -0.50641898
     atom    6 type  1   force =     0.00488849    0.00282450   -1.10072126
     atom    7 type  1   force =     0.48281734    0.27888220   -1.19929972
     atom    8 type  1   force =     0.06848860    0.03954272   -1.34088286
     atom    9 type  1   force =    -0.00068674   -0.00039574   -0.50604307
     atom   10 type  1   force =     0.00456649    0.00263791   -1.09797292
     atom   11 type  1   force =     0.47673036    0.27536850   -1.19809394
     atom   12 type  1   force =     0.05976517    0.03449746   -1.30945829
     atom   13 type  1   force =    -0.00068660   -0.00039591   -0.50604297
     atom   14 type  1   force =     0.00456790    0.00263744   -1.09797439
     atom   15 type  1   force =     0.47671619    0.27537380   -1.19809455
     atom   16 type  1   force =     0.05977434    0.03449889   -1.30947117
     atom   17 type  1   force =     0.00044873    0.00025812    1.47595623
     atom   18 type  1   force =    -0.00620651   -0.00358512    0.88530972
     atom   19 type  1   force =    -0.44998615   -0.25993882    1.36563774
     atom   20 type  1   force =    -0.05845561   -0.03374317    0.40732458
     atom   21 type  1   force =     0.00044849    0.00025821    1.47595610
     atom   22 type  1   force =    -0.00620658   -0.00358513    0.88530707
     atom   23 type  1   force =    -0.44999124   -0.25993456    1.36563862
     atom   24 type  1   force =    -0.05844412   -0.03373996    0.40731222
     atom   25 type  1   force =     0.00058949    0.00033969    1.47325728
     atom   26 type  1   force =    -0.00686857   -0.00396724    0.88663750
     atom   27 type  1   force =    -0.49199067   -0.28417845    1.35623900
     atom   28 type  1   force =    -0.06921041   -0.03995163    0.40633189
     atom   29 type  1   force =     0.00058972    0.00033957    1.47325767
     atom   30 type  1   force =    -0.00686852   -0.00396744    0.88663873
     atom   31 type  1   force =    -0.49198744   -0.28418897    1.35623768
     atom   32 type  1   force =    -0.06921935   -0.03994153    0.40633162
     The ionic contribution  to forces
     atom    1 type  1   force =    -0.00210519   -0.00122195 -822.33577648
     atom    2 type  1   force =    -0.33289057   -0.19218562 -223.49085952
     atom    3 type  1   force =    -7.18386730   -4.14967928  392.70161369
     atom    4 type  1   force =    -0.87066135   -0.50234317  941.04217120
     atom    5 type  1   force =    -0.00209965   -0.00122748 -822.33577906
     atom    6 type  1   force =    -0.33277555   -0.19230300 -223.49088912
     atom    7 type  1   force =    -7.18410416   -4.14960253  392.70176229
     atom    8 type  1   force =    -0.87050357   -0.50266963  941.04191581
     atom    9 type  1   force =     0.00081459    0.00045744 -822.34606227
     atom   10 type  1   force =    -0.26965547   -0.15580600 -223.75201075
     atom   11 type  1   force =    -6.88963167   -3.97950332  390.83867787
     atom   12 type  1   force =    -0.66875776   -0.38601726  938.36352560
     atom   13 type  1   force =     0.00080907    0.00045824 -822.34605642
     atom   14 type  1   force =    -0.26976545   -0.15578651 -223.75191866
     atom   15 type  1   force =    -6.88941126   -3.97965875  390.83906061
     atom   16 type  1   force =    -0.66897615   -0.38608362  938.36445895
     atom   17 type  1   force =    -0.00254799   -0.00146043 -951.32041174
     atom   18 type  1   force =     0.10862686    0.06277897 -357.84050819
     atom   19 type  1   force =     6.36028784    3.67413773  198.16842087
     atom   20 type  1   force =     1.04957016    0.60596144  825.53048677
     atom   21 type  1   force =    -0.00254760   -0.00146048 -951.32040483
     atom   22 type  1   force =     0.10863255    0.06277695 -357.84033039
     atom   23 type  1   force =     6.36036437    3.67402784  198.16930843
     atom   24 type  1   force =     1.04926606    0.60583794  825.53131444
     atom   25 type  1   force =     0.00324952    0.00188632 -951.32170022
     atom   26 type  1   force =     0.23547391    0.13600208 -357.85357324
     atom   27 type  1   force =     7.45604039    4.30655565  198.57249272
     atom   28 type  1   force =     1.00610193    0.58090450  825.04219809
     atom   29 type  1   force =     0.00324912    0.00188666 -951.32170342
     atom   30 type  1   force =     0.23546523    0.13601119 -357.85366043
     atom   31 type  1   force =     7.45600966    4.30674546  198.57204608
     atom   32 type  1   force =     1.00633944    0.58058063  825.04219132
     The local contribution  to forces
     atom    1 type  1   force =     0.00209772    0.00121652  823.60291206
     atom    2 type  1   force =     0.32690429    0.18872892  225.54758403
     atom    3 type  1   force =     6.31201304    3.64604209 -390.38080623
     atom    4 type  1   force =     0.74458663    0.42958398 -938.60039343
     atom    5 type  1   force =     0.00209243    0.00122197  823.60291482
     atom    6 type  1   force =     0.32679151    0.18884430  225.54761294
     atom    7 type  1   force =     6.31222355    3.64598544 -390.38095057
     atom    8 type  1   force =     0.74444111    0.42988710 -938.60014569
     atom    9 type  1   force =     0.00066569    0.00039589  823.61295232
     atom   10 type  1   force =     0.26430785    0.15271564  225.80477003
     atom   11 type  1   force =     6.02590685    3.48059381 -388.51732657
     atom   12 type  1   force =     0.55790440    0.32203099 -935.97758613
     atom   13 type  1   force =     0.00067095    0.00039530  823.61294631
     atom   14 type  1   force =     0.26441578    0.15269685  225.80467985
     atom   15 type  1   force =     6.02571105    3.48074015 -388.51770813
     atom   16 type  1   force =     0.55810649    0.32209516 -935.97849740
     atom   17 type  1   force =     0.00171324    0.00098001  948.68809660
     atom   18 type  1   force =    -0.10241496   -0.05918998  355.99800872
     atom   19 type  1   force =    -5.53460685   -3.19717157 -200.65807491
     atom   20 type  1   force =    -0.94421041   -0.54514185 -826.63549001
     atom   21 type  1   force =     0.00171317    0.00097995  948.68808976
     atom   22 type  1   force =    -0.10242054   -0.05918801  355.99783545
     atom   23 type  1   force =    -5.53467461   -3.19706917 -200.65896544
     atom   24 type  1   force =    -0.94392624   -0.54502452 -826.63629748
     atom   25 type  1   force =    -0.00407036   -0.00235910  948.69211140
     atom   26 type  1   force =    -0.22832729   -0.13187369  356.00989468
     atom   27 type  1   force =    -6.55835022   -3.78803529 -201.04535317
     atom   28 type  1   force =    -0.87968753   -0.50793459 -826.14198070
     atom   29 type  1   force =    -0.00407026   -0.00235926  948.69211423
     atom   30 type  1   force =    -0.22831877   -0.13188256  356.00997962
     atom   31 type  1   force =    -6.55832459   -3.78820659 -201.04490368
     atom   32 type  1   force =    -0.87991083   -0.50762714 -826.14197296
     The core correction contribution to forces
     atom    1 type  1   force =     0.00000000    0.00000000    0.00000000
     atom    2 type  1   force =     0.00000000    0.00000000    0.00000000
     atom    3 type  1   force =     0.00000000    0.00000000    0.00000000
     atom    4 type  1   force =     0.00000000    0.00000000    0.00000000
     atom    5 type  1   force =     0.00000000    0.00000000    0.00000000
     atom    6 type  1   force =     0.00000000    0.00000000    0.00000000
     atom    7 type  1   force =     0.00000000    0.00000000    0.00000000
     atom    8 type  1   force =     0.00000000    0.00000000    0.00000000
     atom    9 type  1   force =     0.00000000    0.00000000    0.00000000
     atom   10 type  1   force =     0.00000000    0.00000000    0.00000000
     atom   11 type  1   force =     0.00000000    0.00000000    0.00000000
     atom   12 type  1   force =     0.00000000    0.00000000    0.00000000
     atom   13 type  1   force =     0.00000000    0.00000000    0.00000000
     atom   14 type  1   force =     0.00000000    0.00000000    0.00000000
     atom   15 type  1   force =     0.00000000    0.00000000    0.00000000
     atom   16 type  1   force =     0.00000000    0.00000000    0.00000000
     atom   17 type  1   force =     0.00000000    0.00000000    0.00000000
     atom   18 type  1   force =     0.00000000    0.00000000    0.00000000
     atom   19 type  1   force =     0.00000000    0.00000000    0.00000000
     atom   20 type  1   force =     0.00000000    0.00000000    0.00000000
     atom   21 type  1   force =     0.00000000    0.00000000    0.00000000
     atom   22 type  1   force =     0.00000000    0.00000000    0.00000000
     atom   23 type  1   force =     0.00000000    0.00000000    0.00000000
     atom   24 type  1   force =     0.00000000    0.00000000    0.00000000
     atom   25 type  1   force =     0.00000000    0.00000000    0.00000000
     atom   26 type  1   force =     0.00000000    0.00000000    0.00000000
     atom   27 type  1   force =     0.00000000    0.00000000    0.00000000
     atom   28 type  1   force =     0.00000000    0.00000000    0.00000000
     atom   29 type  1   force =     0.00000000    0.00000000    0.00000000
     atom   30 type  1   force =     0.00000000    0.00000000    0.00000000
     atom   31 type  1   force =     0.00000000    0.00000000    0.00000000
     atom   32 type  1   force =     0.00000000    0.00000000    0.00000000
     The Hubbard contrib.    to forces
     atom    1 type  1   force =     0.00000000    0.00000000    0.00000000
     atom    2 type  1   force =     0.00000000    0.00000000    0.00000000
     atom    3 type  1   force =     0.00000000    0.00000000    0.00000000
     atom    4 type  1   force =     0.00000000    0.00000000    0.00000000
     atom    5 type  1   force =     0.00000000    0.00000000    0.00000000
     atom    6 type  1   force =     0.00000000    0.00000000    0.00000000
     atom    7 type  1   force =     0.00000000    0.00000000    0.00000000
     atom    8 type  1   force =     0.00000000    0.00000000    0.00000000
     atom    9 type  1   force =     0.00000000    0.00000000    0.00000000
     atom   10 type  1   force =     0.00000000    0.00000000    0.00000000
     atom   11 type  1   force =     0.00000000    0.00000000    0.00000000
     atom   12 type  1   force =     0.00000000    0.00000000    0.00000000
     atom   13 type  1   force =     0.00000000    0.00000000    0.00000000
     atom   14 type  1   force =     0.00000000    0.00000000    0.00000000
     atom   15 type  1   force =     0.00000000    0.00000000    0.00000000
     atom   16 type  1   force =     0.00000000    0.00000000    0.00000000
     atom   17 type  1   force =     0.00000000    0.00000000    0.00000000
     atom   18 type  1   force =     0.00000000    0.00000000    0.00000000
     atom   19 type  1   force =     0.00000000    0.00000000    0.00000000
     atom   20 type  1   force =     0.00000000    0.00000000    0.00000000
     atom   21 type  1   force =     0.00000000    0.00000000    0.00000000
     atom   22 type  1   force =     0.00000000    0.00000000    0.00000000
     atom   23 type  1   force =     0.00000000    0.00000000    0.00000000
     atom   24 type  1   force =     0.00000000    0.00000000    0.00000000
     atom   25 type  1   force =     0.00000000    0.00000000    0.00000000
     atom   26 type  1   force =     0.00000000    0.00000000    0.00000000
     atom   27 type  1   force =     0.00000000    0.00000000    0.00000000
     atom   28 type  1   force =     0.00000000    0.00000000    0.00000000
     atom   29 type  1   force =     0.00000000    0.00000000    0.00000000
     atom   30 type  1   force =     0.00000000    0.00000000    0.00000000
     atom   31 type  1   force =     0.00000000    0.00000000    0.00000000
     atom   32 type  1   force =     0.00000000    0.00000000    0.00000000
     The SCF correction term to forces
     atom    1 type  1   force =     0.00000000    0.00000000    0.00000000
     atom    2 type  1   force =    -0.00000000   -0.00000000    0.00000000
     atom    3 type  1   force =     0.00000000    0.00000000    0.00070661
     atom    4 type  1   force =    -0.00000000   -0.00000000   -0.00168547
     atom    5 type  1   force =     0.00000000    0.00000000    0.00000000
     atom    6 type  1   force =    -0.00000000   -0.00000000    0.00000000
     atom    7 type  1   force =     0.00000000    0.00000000    0.00070655
     atom    8 type  1   force =    -0.00000000   -0.00000000   -0.00168546
     atom    9 type  1   force =     0.00000000    0.00000000    0.00000000
     atom   10 type  1   force =    -0.00000000   -0.00000000    0.00000000
     atom   11 type  1   force =     0.00000000    0.00000000    0.00075082
     atom   12 type  1   force =     0.00000000    0.00000000   -0.00164349
     atom   13 type  1   force =     0.00000000    0.00000000    0.00000000
     atom   14 type  1   force =    -0.00000000   -0.00000000    0.00000000
     atom   15 type  1   force =     0.00000000    0.00000000    0.00075080
     atom   16 type  1   force =     0.00000000    0.00000000   -0.00164349
     atom   17 type  1   force =     0.00000000    0.00000000    0.00000000
     atom   18 type  1   force =    -0.00000000   -0.00000000    0.00000000
     atom   19 type  1   force =    -0.00000000   -0.00000000    0.00078985
     atom   20 type  1   force =    -0.00000000   -0.00000000   -0.00117357
     atom   21 type  1   force =     0.00000000    0.00000000    0.00000000
     atom   22 type  1   force =    -0.00000000   -0.00000000    0.00000000
     atom   23 type  1   force =    -0.00000000   -0.00000000    0.00078989
     atom   24 type  1   force =    -0.00000000   -0.00000000   -0.00117356
     atom   25 type  1   force =    -0.00000000   -0.00000000    0.00000000
     atom   26 type  1   force =     0.00000000    0.00000000    0.00000000
     atom   27 type  1   force =     0.00000000    0.00000000    0.00078900
     atom   28 type  1   force =     0.00000000    0.00000000   -0.00114595
     atom   29 type  1   force =    -0.00000000   -0.00000000    0.00000000
     atom   30 type  1   force =     0.00000000    0.00000000    0.00000000
     atom   31 type  1   force =     0.00000000    0.00000000    0.00078896
     atom   32 type  1   force =     0.00000000    0.00000000   -0.00114596

     Total force =     4.089898     Total SCF correction =     0.004592


     Computing stress (Cartesian axis) and pressure

          total   stress  (Ry/bohr**3)                   (kbar)     P=     2711.16
   0.02495374  -0.00107050  -0.00045940         3670.82     -157.48      -67.58
  -0.00107050   0.02619019  -0.00026536         -157.48     3852.71      -39.04
  -0.00045940  -0.00026536   0.00414636          -67.58      -39.04      609.95

     kinetic stress (kbar)  35153.93     -0.50     -7.33
                               -0.50  35154.51     -4.23
                               -7.33     -4.23  35147.29

     local   stress (kbar)**********   5707.35   1259.01
                             5707.35**********    727.26
                             1259.01    727.267091768.70

     nonloc. stress (kbar)  -3405.23     32.86     12.73
                               32.86  -3443.19      7.36
                               12.73      7.36  -2630.91

     hartree stress (kbar)3537840.45  -2060.55   -401.95
                            -2060.553540220.39   -232.19
                             -401.95   -232.19**********

     exc-cor stress (kbar) -17075.85     -1.93     -0.61
                               -1.93 -17073.62     -0.35
                               -0.61     -0.35 -17126.98

     corecor stress (kbar)      0.00      0.00      0.00
                                0.00      0.00      0.00
                                0.00      0.00      0.00

     ewald   stress (kbar)3403939.71  -3834.69   -929.43
                            -3834.693408368.79   -536.87
                             -929.43   -536.87**********

     hubbard stress (kbar)      0.00      0.00      0.00
                                0.00      0.00      0.00
                                0.00      0.00      0.00

     DFT-D   stress (kbar)      0.00      0.00      0.00
                                0.00      0.00      0.00
                                0.00      0.00      0.00

     XDM     stress (kbar)      0.00      0.00      0.00
                                0.00      0.00      0.00
                                0.00      0.00      0.00

     dft-nl  stress (kbar)      0.00      0.00      0.00
                                0.00      0.00      0.00
                                0.00      0.00      0.00

     TS-vdW  stress (kbar)      0.00      0.00      0.00
                                0.00      0.00      0.00
                                0.00      0.00      0.00

     MDB     stress (kbar)      0.00      0.00      0.00
                                0.00      0.00      0.00
                                0.00      0.00      0.00

     3D-RISM stress (kbar)      0.00      0.00      0.00
                                0.00      0.00      0.00
                                0.00      0.00      0.00

     Energy error            =      3.5E+01 Ry
     Gradient error          =      1.1E+00 Ry/Bohr

     number of scf cycles    =   4
     number of bfgs steps    =   2

     energy             old  =  -14767.5030062215 Ry
     energy             new  =  -14732.5977955086 Ry

     CASE: energy            _new > energy            _old


 %%%%%%%%%%%%%%%%%%%%%%%%%%%%%%%%%%%%%%%%%%%%%%%%%%%%%%%%%%%%%%%%%%%%%%%%%%%%%%
     Error in routine bfgs (1):
     dE0s is positive which should never happen
 %%%%%%%%%%%%%%%%%%%%%%%%%%%%%%%%%%%%%%%%%%%%%%%%%%%%%%%%%%%%%%%%%%%%%%%%%%%%%%

     stopping ...
