--------------------------------------------------------------------------
By default, for Open MPI 4.0 and later, infiniband ports on a device
are not used by default.  The intent is to use UCX for these devices.
You can override this policy by setting the btl_openib_allow_ib MCA parameter
to true.

  Local host:              psid06
  Local adapter:           mlx4_0
  Local port:              1

--------------------------------------------------------------------------
--------------------------------------------------------------------------
WARNING: There was an error initializing an OpenFabrics device.

  Local host:   psid06
  Local device: mlx4_0
--------------------------------------------------------------------------

     Program PWSCF v.7.3.1 starts on 22Mar2025 at  3:50:34 

     This program is part of the open-source Quantum ESPRESSO suite
     for quantum simulation of materials; please cite
         "P. Giannozzi et al., J. Phys.:Condens. Matter 21 395502 (2009);
         "P. Giannozzi et al., J. Phys.:Condens. Matter 29 465901 (2017);
         "P. Giannozzi et al., J. Chem. Phys. 152 154105 (2020);
          URL http://www.quantum-espresso.org", 
     in publications or presentations arising from this work. More details at
     http://www.quantum-espresso.org/quote

     Parallel version (MPI), running on    33 processors

     MPI processes distributed on     1 nodes
     182378 MiB available memory on the printing compute node when the environment starts

     Waiting for input...
     Reading input from standard input
Warning: card &CELL ignored
Warning: card   CELL_DOFREE = 'ALL' ignored
Warning: card / ignored

     Current dimensions of program PWSCF are:
     Max number of different atomic species (ntypx) = 10
     Max number of k-points (npk) =  40000
     Max angular momentum in pseudopotentials (lmaxx) =  4
     file C.pbe-n-kjpaw_psl.1.0.0.UPF: wavefunction(s)  2S 2P renormalized

     R & G space division:  proc/nbgrp/npool/nimage =      33
     Subspace diagonalization in iterative solution of the eigenvalue problem:
     one sub-group per band group will be used
     custom distributed-memory algorithm (size of sub-group:  5*  5 procs)


     Parallelization info
     --------------------
     sticks:   dense  smooth     PW     G-vecs:    dense   smooth      PW
     Min         116     116     32                11331    11331    1679
     Max         117     117     33                11336    11336    1687
     Sum        3835    3835   1083               374027   374027   55577

     Using Slab Decomposition



     bravais-lattice index     =            0
     lattice parameter (alat)  =      20.9009  a.u.
     unit-cell volume          =   16846.7507 (a.u.)^3
     number of atoms/cell      =           79
     number of atomic types    =            4
     number of electrons       =      1324.00
     number of Kohn-Sham states=          794
     kinetic-energy cutoff     =      30.0000  Ry
     charge density cutoff     =     120.0000  Ry
     scf convergence threshold =      7.3E-07
     mixing beta               =       0.7000
     number of iterations used =            8  plain     mixing
     energy convergence thresh.=      1.0E-05
     force convergence thresh. =      5.0E-04
     Exchange-correlation= PBE
                           (   1   4   3   4   0   0   0)
     nstep                     =          100


     celldm(1)=  20.900943  celldm(2)=   0.000000  celldm(3)=   0.000000
     celldm(4)=   0.000000  celldm(5)=   0.000000  celldm(6)=   0.000000

     crystal axes: (cart. coord. in units of alat)
               a(1) = (   1.000000   0.000000   0.000000 )  
               a(2) = (  -0.223489   0.918700   0.000000 )  
               a(3) = (  -4.200249  -1.021781   2.008375 )  

     reciprocal axes: (cart. coord. in units 2 pi/alat)
               b(1) = (  1.000000  0.243267  2.215131 )  
               b(2) = ( -0.000000  1.088495  0.553783 )  
               b(3) = (  0.000000 -0.000000  0.497915 )  


     PseudoPot. # 1 for Zn read from file:
     /home/ys/qepseudo/SSSP_1.3.0_PBE_efficiency/Zn_pbe_v1.uspp.F.UPF
     MD5 check sum: df62231357ef9e81f77b2b3087fa5675
     Pseudo is Ultrasoft, Zval = 20.0
     Generated by new atomic code, or converted to UPF format
     Using radial grid of  943 points,  6 beta functions with: 
                l(1) =   0
                l(2) =   0
                l(3) =   1
                l(4) =   1
                l(5) =   2
                l(6) =   2
     Q(r) pseudized with  8 coefficients,  rinner =    1.100   1.100   1.100
                                                       1.100   1.100

     PseudoPot. # 2 for C  read from file:
     /home/ys/qepseudo/SSSP_1.3.0_PBE_efficiency/C.pbe-n-kjpaw_psl.1.0.0.UPF
     MD5 check sum: 5d2aebdfa2cae82b50a7e79e9516da0f
     Pseudo is Projector augmented-wave + core cor, Zval =  4.0
     Generated using "atomic" code by A. Dal Corso  v.5.1
     Shape of augmentation charge: PSQ
     Using radial grid of 1073 points,  4 beta functions with: 
                l(1) =   0
                l(2) =   0
                l(3) =   1
                l(4) =   1
     Q(r) pseudized with 0 coefficients 


     PseudoPot. # 3 for N  read from file:
     /home/ys/qepseudo/SSSP_1.3.0_PBE_efficiency/N.pbe-n-radius_5.UPF
     MD5 check sum: 16739722b17309cd8fe442a2ace49922
     Pseudo is Ultrasoft + core correction, Zval =  5.0
     Generated using "atomic" code by A. Dal Corso  v.5.1
     Using radial grid of 1085 points,  4 beta functions with: 
                l(1) =   0
                l(2) =   0
                l(3) =   1
                l(4) =   1
     Q(r) pseudized with 0 coefficients 


     PseudoPot. # 4 for H  read from file:
     /home/ys/qepseudo/SSSP_1.3.0_PBE_efficiency/H.pbe-rrkjus_psl.1.0.0.UPF
     MD5 check sum: f52b6d4d1c606e5624b1dc7b2218f220
     Pseudo is Ultrasoft, Zval =  1.0
     Generated using "atomic" code by A. Dal Corso  v.5.1
     Using radial grid of  929 points,  2 beta functions with: 
                l(1) =   0
                l(2) =   0
     Q(r) pseudized with 0 coefficients 


     atomic species   valence    mass     pseudopotential
     Zn               20.00    65.38000     Zn( 1.00)
     C                 4.00    12.01070     C ( 1.00)
     N                 5.00    14.00670     N ( 1.00)
     H                 1.00     1.00800     H ( 1.00)

     No symmetry found


                                    s                        frac. trans.

      isym =  1     identity                                     

 cryst.   s( 1) = (     1          0          0      )
                  (     0          1          0      )
                  (     0          0          1      )

 cart.    s( 1) = (  1.0000000  0.0000000  0.0000000 )
                  (  0.0000000  1.0000000  0.0000000 )
                  (  0.0000000  0.0000000  1.0000000 )


   Cartesian axes

     site n.     atom                  positions (alat units)
         1        Zn     tau(   1) = (  -0.0970639   0.0980210   0.1082939  )
         2        Zn     tau(   2) = (  -0.2088085   0.5573710   0.1082939  )
         3        Zn     tau(   3) = (  -0.4853192   0.0035714   0.2939406  )
         4        Zn     tau(   4) = (  -0.5970639   0.4629214   0.2939406  )
         5        Zn     tau(   5) = (  -0.8778168  -0.0917986   0.5024637  )
         6        Zn     tau(   6) = (  -0.9895264   0.3675466   0.5024137  )
         7        Zn     tau(   7) = (  -1.2406027  -0.1798552   0.6910406  )
         8        Zn     tau(   8) = (  -1.3522669   0.2794611   0.6910199  )
         9        Zn     tau(   9) = (  -0.1529362   0.3276960   0.1082939  )
        10        Zn     tau(  10) = (  -0.2646808   0.7870460   0.1082939  )
        11        Zn     tau(  11) = (  -0.5411915   0.2332464   0.2939406  )
        12        Zn     tau(  12) = (  -0.6529362   0.6925964   0.2939406  )
        13        Zn     tau(  13) = (  -0.9336469   0.1378867   0.5024624  )
        14        Zn     tau(  14) = (  -1.0454415   0.5972109   0.5024147  )
        15        Zn     tau(  15) = (  -1.2963824   0.0498229   0.6909782  )
        16        Zn     tau(  16) = (  -1.4082339   0.5091311   0.6910822  )
        17        Zn     tau(  17) = (   0.4029361   0.0980210   0.1082939  )
        18        Zn     tau(  18) = (   0.2911915   0.5573710   0.1082939  )
        19        Zn     tau(  19) = (   0.0146808   0.0035714   0.2939406  )
        20        Zn     tau(  20) = (  -0.0970639   0.4629214   0.2939406  )
        21        Zn     tau(  21) = (  -0.3778584  -0.0918024   0.5025944  )
        22        Zn     tau(  22) = (  -0.4896087   0.3675192   0.5025659  )
        23        Zn     tau(  23) = (  -0.7409254  -0.1799822   0.6911262  )
        24        Zn     tau(  24) = (  -0.8527216   0.2793980   0.6911899  )
        25        Zn     tau(  25) = (   0.3470638   0.3276960   0.1082939  )
        26        Zn     tau(  26) = (   0.2353192   0.7870460   0.1082939  )
        27        Zn     tau(  27) = (  -0.0411915   0.2332464   0.2939406  )
        28        Zn     tau(  28) = (  -0.1529362   0.6925964   0.2939406  )
        29        Zn     tau(  29) = (  -0.4337391   0.1378295   0.5025928  )
        30        Zn     tau(  30) = (  -0.5454721   0.5972380   0.5025679  )
        31        Zn     tau(  31) = (  -0.7968526   0.0496773   0.6911857  )
        32        Zn     tau(  32) = (  -0.9085381   0.5090884   0.6911313  )
        33        Zn     tau(  33) = (   0.1529362   0.0372043   0.0773528  )
        34        Zn     tau(  34) = (   0.0411915   0.4965543   0.0773528  )
        35        Zn     tau(  35) = (  -0.2353192  -0.0572454   0.2629995  )
        36        Zn     tau(  36) = (  -0.3470638   0.4021046   0.2629995  )
        37        Zn     tau(  37) = (  -0.6280951  -0.1529585   0.4553783  )
        38        Zn     tau(  38) = (  -0.7398296   0.3064181   0.4553934  )
        39        Zn     tau(  39) = (  -1.0052352  -0.2442836   0.6603749  )
        40        Zn     tau(  40) = (  -1.1168712   0.2151081   0.6603799  )
        41        Zn     tau(  41) = (   0.0970639   0.2668793   0.0773528  )
        42        Zn     tau(  42) = (  -0.0146808   0.7262293   0.0773528  )
        43        Zn     tau(  43) = (  -0.2911915   0.1724296   0.2629995  )
        44        Zn     tau(  44) = (  -0.4029361   0.6317796   0.2629995  )
        45        Zn     tau(  45) = (  -0.6839755   0.0767104   0.4553893  )
        46        Zn     tau(  46) = (  -0.7956904   0.5360988   0.4553814  )
        47        Zn     tau(  47) = (  -1.0610488  -0.0145857   0.6603978  )
        48        Zn     tau(  48) = (  -1.1728037   0.4447627   0.6603571  )
        49        Zn     tau(  49) = (   0.6529362   0.0372043   0.0773528  )
        50        Zn     tau(  50) = (   0.5411915   0.4965543   0.0773528  )
        51        Zn     tau(  51) = (   0.2646808  -0.0572454   0.2629995  )
        52        Zn     tau(  52) = (   0.1529362   0.4021046   0.2629995  )
        53        Zn     tau(  53) = (  -0.1280445  -0.1528982   0.4553743  )
        54        Zn     tau(  54) = (  -0.2397657   0.3063891   0.4553297  )
        55        Zn     tau(  55) = (  -0.5055002  -0.2443167   0.6603316  )
        56        Zn     tau(  56) = (  -0.6173111   0.2149623   0.6603566  )
        57        Zn     tau(  57) = (   0.5970639   0.2668793   0.0773528  )
        58        Zn     tau(  58) = (   0.4853192   0.7262293   0.0773528  )
        59        Zn     tau(  59) = (   0.2088085   0.1724296   0.2629995  )
        60        Zn     tau(  60) = (   0.0970639   0.6317796   0.2629995  )
        61        Zn     tau(  61) = (  -0.1838756   0.0767547   0.4553744  )
        62        Zn     tau(  62) = (  -0.2956772   0.5360837   0.4553280  )
        63        Zn     tau(  63) = (  -0.5614277  -0.0146977   0.6603020  )
        64        Zn     tau(  64) = (  -0.6731294   0.4446946   0.6603871  )
        65        C      tau(  65) = (  -0.5725173   0.2403349   1.4927949  )
        66        C      tau(  66) = (  -0.5796828   0.2379002   1.3636710  )
        67        C      tau(  67) = (  -0.6140055   0.3417446   1.2983734  )
        68        C      tau(  68) = (  -0.5525642   0.1315979   1.2989416  )
        69        C      tau(  69) = (  -0.5594598   0.1290644   1.1737715  )
        70        C      tau(  70) = (  -0.6210001   0.3395495   1.1732024  )
        71        C      tau(  71) = (  -0.5938628   0.2330628   1.1078958  )
        72        N      tau(  72) = (  -0.5667039   0.2423183   1.5977209  )
        73        N      tau(  73) = (  -0.6007250   0.2307324   0.9845586  )
        74        H      tau(  74) = (  -0.5812421   0.1547546   0.9379285  )
        75        H      tau(  75) = (  -0.6251715   0.3050057   0.9375223  )
        76        H      tau(  76) = (  -0.6353130   0.4248438   1.3471979  )
        77        H      tau(  77) = (  -0.5258223   0.0503528   1.3482015  )
        78        H      tau(  78) = (  -0.5380582   0.0456919   1.1251825  )
        79        H      tau(  79) = (  -0.6478102   0.4210768   1.1241765  )

   Crystallographic axes

     site n.     atom                  positions (cryst. coord.)
         1        Zn     tau(   1) = (  0.1666667  0.1666667  0.0539212  )
         2        Zn     tau(   2) = (  0.1666667  0.6666667  0.0539212  )
         3        Zn     tau(   3) = (  0.1666667  0.1666667  0.1463574  )
         4        Zn     tau(   4) = (  0.1666667  0.6666667  0.1463574  )
         5        Zn     tau(   5) = (  0.2128747  0.1783335  0.2501842  )
         6        Zn     tau(   6) = (  0.2127978  0.6783005  0.2501593  )
         7        Zn     tau(   7) = (  0.2463902  0.1869149  0.3440795  )
         8        Zn     tau(   8) = (  0.2464166  0.6868668  0.3440692  )
         9        Zn     tau(   9) = (  0.1666667  0.4166667  0.0539212  )
        10        Zn     tau(  10) = (  0.1666667  0.9166667  0.0539212  )
        11        Zn     tau(  11) = (  0.1666667  0.4166667  0.1463574  )
        12        Zn     tau(  12) = (  0.1666667  0.9166667  0.1463574  )
        13        Zn     tau(  13) = (  0.2129167  0.4283440  0.2501836  )
        14        Zn     tau(  14) = (  0.2127547  0.9282895  0.2501598  )
        15        Zn     tau(  15) = (  0.2463452  0.4368838  0.3440484  )
        16        Zn     tau(  16) = (  0.2464587  0.9368959  0.3441002  )
        17        Zn     tau(  17) = (  0.6666667  0.1666667  0.0539212  )
        18        Zn     tau(  18) = (  0.6666667  0.6666667  0.0539212  )
        19        Zn     tau(  19) = (  0.6666667  0.1666667  0.1463574  )
        20        Zn     tau(  20) = (  0.6666667  0.6666667  0.1463574  )
        21        Zn     tau(  21) = (  0.7131217  0.1784017  0.2502493  )
        22        Zn     tau(  22) = (  0.7130461  0.6783550  0.2502351  )
        23        Zn     tau(  23) = (  0.7462263  0.1868242  0.3441221  )
        24        Zn     tau(  24) = (  0.7463231  0.6868923  0.3441538  )
        25        Zn     tau(  25) = (  0.6666667  0.4166667  0.0539212  )
        26        Zn     tau(  26) = (  0.6666667  0.9166667  0.0539212  )
        27        Zn     tau(  27) = (  0.6666667  0.4166667  0.1463574  )
        28        Zn     tau(  28) = (  0.6666667  0.9166667  0.1463574  )
        29        Zn     tau(  29) = (  0.7130994  0.4283539  0.2502485  )
        30        Zn     tau(  30) = (  0.7130701  0.9284039  0.2502361  )
        31        Zn     tau(  31) = (  0.7462994  0.4368403  0.3441517  )
        32        Zn     tau(  32) = (  0.7462528  0.9368766  0.3441246  )
        33        Zn     tau(  33) = (  0.3333333  0.0833333  0.0385151  )
        34        Zn     tau(  34) = (  0.3333333  0.5833333  0.0385151  )
        35        Zn     tau(  35) = (  0.3333333  0.0833333  0.1309514  )
        36        Zn     tau(  36) = (  0.3333333  0.5833333  0.1309514  )
        37        Zn     tau(  37) = (  0.3434179  0.0856861  0.2267397  )
        38        Zn     tau(  38) = (  0.3434679  0.5857235  0.2267472  )
        39        Zn     tau(  39) = (  0.3981557  0.0998028  0.3288105  )
        40        Zn     tau(  40) = (  0.3982858  0.5998511  0.3288131  )
        41        Zn     tau(  41) = (  0.3333333  0.3333333  0.0385151  )
        42        Zn     tau(  42) = (  0.3333333  0.8333333  0.0385151  )
        43        Zn     tau(  43) = (  0.3333333  0.3333333  0.1309514  )
        44        Zn     tau(  44) = (  0.3333333  0.8333333  0.1309514  )
        45        Zn     tau(  45) = (  0.3434327  0.3356857  0.2267452  )
        46        Zn     tau(  46) = (  0.3434542  0.8357230  0.2267412  )
        47        Zn     tau(  47) = (  0.3982709  0.3498405  0.3288220  )
        48        Zn     tau(  48) = (  0.3981701  0.8498162  0.3288017  )
        49        Zn     tau(  49) = (  0.8333333  0.0833333  0.0385151  )
        50        Zn     tau(  50) = (  0.8333333  0.5833333  0.0385151  )
        51        Zn     tau(  51) = (  0.8333333  0.0833333  0.1309514  )
        52        Zn     tau(  52) = (  0.8333333  0.5833333  0.1309514  )
        53        Zn     tau(  53) = (  0.8434743  0.0857495  0.2267377  )
        54        Zn     tau(  54) = (  0.8433836  0.5856566  0.2267155  )
        55        Zn     tau(  55) = (  0.8977868  0.0997428  0.3287890  )
        56        Zn     tau(  56) = (  0.8977586  0.5996794  0.3288014  )
        57        Zn     tau(  57) = (  0.8333333  0.3333333  0.0385151  )
        58        Zn     tau(  58) = (  0.8333333  0.8333333  0.0385151  )
        59        Zn     tau(  59) = (  0.8333333  0.3333333  0.1309514  )
        60        Zn     tau(  60) = (  0.8333333  0.8333333  0.1309514  )
        61        Zn     tau(  61) = (  0.8435104  0.3357256  0.2267377  )
        62        Zn     tau(  62) = (  0.8433456  0.8356770  0.2267147  )
        63        Zn     tau(  63) = (  0.8976524  0.3496655  0.3287743  )
        64        Zn     tau(  64) = (  0.8978942  0.8497587  0.3288166  )
        65        C      tau(  65) = (  2.7926849  1.0882874  0.7432850  )
        66        C      tau(  66) = (  2.4989009  1.0141307  0.6789922  )
        67        C      tau(  67) = (  2.3451972  1.0910040  0.6464796  )
        68        C      tau(  68) = (  2.3567755  0.8625751  0.6467625  )
        69        C      tau(  69) = (  2.0719954  0.7905004  0.5844385  )
        70        C      tau(  70) = (  2.0603985  1.0192971  0.5841551  )
        71        C      tau(  71) = (  1.9169684  0.8672212  0.5516379  )
        72        N      tau(  72) = (  3.0314057  1.1485525  0.7955292  )
        73        N      tau(  73) = (  1.6363312  0.7963825  0.4902265  )
        74        H      tau(  74) = (  1.5340395  0.6878582  0.4670087  )
        75        H      tau(  75) = (  1.5257613  0.8511807  0.4668064  )
        76        H      tau(  76) = (  2.4522577  1.2084952  0.6707900  )
        77        H      tau(  77) = (  2.4728702  0.8014195  0.6712897  )
        78        H      tau(  78) = (  1.9654841  0.6728421  0.5602452  )
        79        H      tau(  79) = (  1.9448224  1.0808894  0.5597443  )

     number of k points=     5  Marzari-Vanderbilt smearing, width (Ry)=  0.0200
                       cart. coord. in units 2pi/alat
        k(    1) = (   0.0000000   0.0000000   0.0000000), wk =   0.2222222
        k(    2) = (   0.0000000   0.3628315   0.1845943), wk =   0.4444444
        k(    3) = (   0.3333333   0.0810890   0.7383771), wk =   0.4444444
        k(    4) = (   0.3333333   0.4439205   0.9229714), wk =   0.4444444
        k(    5) = (   0.3333333  -0.2817426   0.5537829), wk =   0.4444444

                       cryst. coord.
        k(    1) = (   0.0000000   0.0000000   0.0000000), wk =   0.2222222
        k(    2) = (   0.0000000   0.3333333   0.0000000), wk =   0.4444444
        k(    3) = (   0.3333333   0.0000000   0.0000000), wk =   0.4444444
        k(    4) = (   0.3333333   0.3333333   0.0000000), wk =   0.4444444
        k(    5) = (   0.3333333  -0.3333333   0.0000000), wk =   0.4444444

     Dense  grid:   374027 G-vectors     FFT dimensions: (  75,  72, 360)

     Dynamical RAM for                 wfc:      17.16 MB

     Dynamical RAM for     wfc (w. buffer):     102.93 MB

     Dynamical RAM for           str. fact:       0.69 MB

     Dynamical RAM for           local pot:       0.00 MB

     Dynamical RAM for          nlocal pot:      26.71 MB

     Dynamical RAM for                qrad:       3.52 MB

     Dynamical RAM for          rho,v,vnew:       1.88 MB

     Dynamical RAM for               rhoin:       0.63 MB

     Dynamical RAM for            rho*nmix:       2.77 MB

     Dynamical RAM for           G-vectors:       0.73 MB

     Dynamical RAM for          h,s,v(r/c):       4.60 MB

     Dynamical RAM for          <psi|beta>:      14.97 MB

     Dynamical RAM for                 psi:      34.31 MB

     Dynamical RAM for                hpsi:      34.31 MB

     Dynamical RAM for                spsi:      34.31 MB

     Dynamical RAM for      wfcinit/wfcrot:      55.26 MB

     Dynamical RAM for           addusdens:      43.23 MB

     Dynamical RAM for          addusforce:      65.35 MB

     Dynamical RAM for         addusstress:      34.76 MB

     Estimated static dynamical RAM per process >     140.22 MB

     Estimated max dynamical RAM per process >     265.50 MB

     Estimated total dynamical RAM >       8.56 GB

     Check: negative core charge=   -0.000052

     Initial potential from superposition of free atoms

     starting charge    1323.9906, renormalised to    1324.0000

     negative rho (up, down):  8.394E-03 0.000E+00
     Starting wfcs are  874 randomized atomic wfcs
[psid06:265196] 32 more processes have sent help message help-mpi-btl-openib.txt / ib port not selected
[psid06:265196] Set MCA parameter "orte_base_help_aggregate" to 0 to see all help / error messages
[psid06:265196] 32 more processes have sent help message help-mpi-btl-openib.txt / error in device init
     Checking if some PAW data can be deallocated... 
       PAW data deallocated on   29 nodes for type:  2

     total cpu time spent up to now is       83.9 secs

     Self-consistent Calculation

     iteration #  1     ecut=    30.00 Ry     beta= 0.70
     Davidson diagonalization with overlap

---- Real-time Memory Report at c_bands before calling an iterative solver
           225 MiB given to the printing process from OS
             0 MiB allocation reported by mallinfo(arena+hblkhd)
        177277 MiB available memory on the node where the printing process lives
------------------
     ethr =  1.00E-02,  avg # of iterations =  7.4

     Threshold (ethr) on eigenvalues was too large:
     Diagonalizing with lowered threshold

     Davidson diagonalization with overlap

---- Real-time Memory Report at c_bands before calling an iterative solver
           307 MiB given to the printing process from OS
             0 MiB allocation reported by mallinfo(arena+hblkhd)
        175868 MiB available memory on the node where the printing process lives
------------------
     ethr =  8.57E-04,  avg # of iterations =  1.8

     negative rho (up, down):  4.053E-02 0.000E+00

     total cpu time spent up to now is      678.6 secs

     total energy              =  -29703.43852995 Ry
     estimated scf accuracy    <      11.57945093 Ry

     iteration #  2     ecut=    30.00 Ry     beta= 0.70
     Davidson diagonalization with overlap

---- Real-time Memory Report at c_bands before calling an iterative solver
           319 MiB given to the printing process from OS
             0 MiB allocation reported by mallinfo(arena+hblkhd)
        175811 MiB available memory on the node where the printing process lives
------------------
     ethr =  8.75E-04,  avg # of iterations = 10.0

     negative rho (up, down):  3.758E-02 0.000E+00

     total cpu time spent up to now is     1160.6 secs

     total energy              =  -29672.47457723 Ry
     estimated scf accuracy    <     609.69195300 Ry

     iteration #  3     ecut=    30.00 Ry     beta= 0.70
     Davidson diagonalization with overlap

---- Real-time Memory Report at c_bands before calling an iterative solver
           322 MiB given to the printing process from OS
             0 MiB allocation reported by mallinfo(arena+hblkhd)
        175781 MiB available memory on the node where the printing process lives
------------------
     ethr =  8.75E-04,  avg # of iterations =  9.0

     negative rho (up, down):  2.825E-02 0.000E+00

     total cpu time spent up to now is     1849.6 secs

     total energy              =  -29704.91692289 Ry
     estimated scf accuracy    <      66.59716407 Ry

     iteration #  4     ecut=    30.00 Ry     beta= 0.70
     Davidson diagonalization with overlap

---- Real-time Memory Report at c_bands before calling an iterative solver
           323 MiB given to the printing process from OS
             0 MiB allocation reported by mallinfo(arena+hblkhd)
        175757 MiB available memory on the node where the printing process lives
------------------
     ethr =  8.75E-04,  avg # of iterations =  7.8

     negative rho (up, down):  2.449E-02 0.000E+00

     total cpu time spent up to now is     2176.1 secs

     total energy              =  -29706.96215826 Ry
     estimated scf accuracy    <      81.78650512 Ry

     iteration #  5     ecut=    30.00 Ry     beta= 0.70
     Davidson diagonalization with overlap

---- Real-time Memory Report at c_bands before calling an iterative solver
           324 MiB given to the printing process from OS
             0 MiB allocation reported by mallinfo(arena+hblkhd)
        175737 MiB available memory on the node where the printing process lives
------------------
     ethr =  8.75E-04,  avg # of iterations =  5.6

     negative rho (up, down):  2.542E-02 0.000E+00

     total cpu time spent up to now is     2471.5 secs

     total energy              =  -29711.02848784 Ry
     estimated scf accuracy    <       3.81306454 Ry

     iteration #  6     ecut=    30.00 Ry     beta= 0.70
     Davidson diagonalization with overlap

---- Real-time Memory Report at c_bands before calling an iterative solver
           324 MiB given to the printing process from OS
             0 MiB allocation reported by mallinfo(arena+hblkhd)
        175718 MiB available memory on the node where the printing process lives
------------------
     ethr =  2.88E-04,  avg # of iterations =  3.0

     negative rho (up, down):  2.966E-02 0.000E+00

     total cpu time spent up to now is     2747.1 secs

     total energy              =  -29711.39780958 Ry
     estimated scf accuracy    <       0.22311561 Ry

     iteration #  7     ecut=    30.00 Ry     beta= 0.70
     Davidson diagonalization with overlap

---- Real-time Memory Report at c_bands before calling an iterative solver
           325 MiB given to the printing process from OS
             0 MiB allocation reported by mallinfo(arena+hblkhd)
        175697 MiB available memory on the node where the printing process lives
------------------
     ethr =  1.69E-05,  avg # of iterations = 13.0

     negative rho (up, down):  3.420E-02 0.000E+00

     total cpu time spent up to now is     3091.8 secs

     total energy              =  -29711.40365729 Ry
     estimated scf accuracy    <       0.10377203 Ry

     iteration #  8     ecut=    30.00 Ry     beta= 0.70
     Davidson diagonalization with overlap

---- Real-time Memory Report at c_bands before calling an iterative solver
           326 MiB given to the printing process from OS
             0 MiB allocation reported by mallinfo(arena+hblkhd)
        175678 MiB available memory on the node where the printing process lives
------------------
     ethr =  7.84E-06,  avg # of iterations =  7.2

     negative rho (up, down):  3.662E-02 0.000E+00

     total cpu time spent up to now is     3396.9 secs

     total energy              =  -29711.39017396 Ry
     estimated scf accuracy    <       0.18543852 Ry

     iteration #  9     ecut=    30.00 Ry     beta= 0.70
     Davidson diagonalization with overlap

---- Real-time Memory Report at c_bands before calling an iterative solver
           326 MiB given to the printing process from OS
             0 MiB allocation reported by mallinfo(arena+hblkhd)
        175657 MiB available memory on the node where the printing process lives
------------------
     ethr =  7.84E-06,  avg # of iterations =  7.4

     negative rho (up, down):  3.799E-02 0.000E+00

     total cpu time spent up to now is     3693.7 secs

     total energy              =  -29711.40508932 Ry
     estimated scf accuracy    <       0.10126151 Ry

     iteration # 10     ecut=    30.00 Ry     beta= 0.70
     Davidson diagonalization with overlap

---- Real-time Memory Report at c_bands before calling an iterative solver
           327 MiB given to the printing process from OS
             0 MiB allocation reported by mallinfo(arena+hblkhd)
        175641 MiB available memory on the node where the printing process lives
------------------
     ethr =  7.65E-06,  avg # of iterations =  3.0

     negative rho (up, down):  3.804E-02 0.000E+00

     total cpu time spent up to now is     3967.0 secs

     total energy              =  -29711.41149917 Ry
     estimated scf accuracy    <       0.03599241 Ry

     iteration # 11     ecut=    30.00 Ry     beta= 0.70
     Davidson diagonalization with overlap

---- Real-time Memory Report at c_bands before calling an iterative solver
           328 MiB given to the printing process from OS
             0 MiB allocation reported by mallinfo(arena+hblkhd)
        175622 MiB available memory on the node where the printing process lives
------------------
     ethr =  2.72E-06,  avg # of iterations = 12.8

     negative rho (up, down):  4.148E-02 0.000E+00

     total cpu time spent up to now is     4262.1 secs

     total energy              =  -29711.40157910 Ry
     estimated scf accuracy    <       0.02002410 Ry

     iteration # 12     ecut=    30.00 Ry     beta= 0.70
     Davidson diagonalization with overlap

---- Real-time Memory Report at c_bands before calling an iterative solver
           328 MiB given to the printing process from OS
             0 MiB allocation reported by mallinfo(arena+hblkhd)
        175619 MiB available memory on the node where the printing process lives
------------------
     c_bands:  2 eigenvalues not converged
     c_bands:  2 eigenvalues not converged
     c_bands:  1 eigenvalues not converged
     ethr =  1.51E-06,  avg # of iterations = 18.4

     negative rho (up, down):  3.980E-02 0.000E+00

     total cpu time spent up to now is     4647.4 secs

     total energy              =  -29711.39969568 Ry
     estimated scf accuracy    <       0.03280291 Ry

     iteration # 13     ecut=    30.00 Ry     beta= 0.70
     Davidson diagonalization with overlap

---- Real-time Memory Report at c_bands before calling an iterative solver
           328 MiB given to the printing process from OS
             0 MiB allocation reported by mallinfo(arena+hblkhd)
        175617 MiB available memory on the node where the printing process lives
------------------
     c_bands:  1 eigenvalues not converged
     ethr =  1.51E-06,  avg # of iterations =  8.0

     negative rho (up, down):  3.862E-02 0.000E+00

     total cpu time spent up to now is     4951.4 secs

     total energy              =  -29711.39476452 Ry
     estimated scf accuracy    <       0.03649558 Ry

     iteration # 14     ecut=    30.00 Ry     beta= 0.70
     Davidson diagonalization with overlap

---- Real-time Memory Report at c_bands before calling an iterative solver
           328 MiB given to the printing process from OS
             0 MiB allocation reported by mallinfo(arena+hblkhd)
        175615 MiB available memory on the node where the printing process lives
------------------
     c_bands:  1 eigenvalues not converged
     c_bands:  1 eigenvalues not converged
     ethr =  1.51E-06,  avg # of iterations = 17.2

     negative rho (up, down):  3.878E-02 0.000E+00

     total cpu time spent up to now is     5326.8 secs

     total energy              =  -29711.38471756 Ry
     estimated scf accuracy    <       0.39768794 Ry

     iteration # 15     ecut=    30.00 Ry     beta= 0.70
     Davidson diagonalization with overlap

---- Real-time Memory Report at c_bands before calling an iterative solver
           328 MiB given to the printing process from OS
             0 MiB allocation reported by mallinfo(arena+hblkhd)
        175615 MiB available memory on the node where the printing process lives
------------------
     c_bands:  1 eigenvalues not converged
     c_bands:  1 eigenvalues not converged
     ethr =  1.51E-06,  avg # of iterations = 15.4

     negative rho (up, down):  3.918E-02 0.000E+00

     total cpu time spent up to now is     5672.6 secs

     total energy              =  -29711.40199200 Ry
     estimated scf accuracy    <       0.00871095 Ry

     iteration # 16     ecut=    30.00 Ry     beta= 0.70
     Davidson diagonalization with overlap

---- Real-time Memory Report at c_bands before calling an iterative solver
           328 MiB given to the printing process from OS
             0 MiB allocation reported by mallinfo(arena+hblkhd)
        175612 MiB available memory on the node where the printing process lives
------------------
     c_bands:  1 eigenvalues not converged
     ethr =  6.58E-07,  avg # of iterations =  6.2

     negative rho (up, down):  3.874E-02 0.000E+00

     total cpu time spent up to now is     5958.3 secs

     total energy              =  -29711.40294762 Ry
     estimated scf accuracy    <       0.00541163 Ry

     iteration # 17     ecut=    30.00 Ry     beta= 0.70
     Davidson diagonalization with overlap

---- Real-time Memory Report at c_bands before calling an iterative solver
           328 MiB given to the printing process from OS
             0 MiB allocation reported by mallinfo(arena+hblkhd)
        175612 MiB available memory on the node where the printing process lives
------------------
     ethr =  4.09E-07,  avg # of iterations =  2.2

     negative rho (up, down):  3.868E-02 0.000E+00

     total cpu time spent up to now is     6220.2 secs

     total energy              =  -29711.40334089 Ry
     estimated scf accuracy    <       0.00120412 Ry

     iteration # 18     ecut=    30.00 Ry     beta= 0.70
     Davidson diagonalization with overlap

---- Real-time Memory Report at c_bands before calling an iterative solver
           328 MiB given to the printing process from OS
             0 MiB allocation reported by mallinfo(arena+hblkhd)
        175611 MiB available memory on the node where the printing process lives
------------------
     ethr =  9.09E-08,  avg # of iterations =  2.2

     negative rho (up, down):  3.857E-02 0.000E+00

     total cpu time spent up to now is     6481.7 secs

     total energy              =  -29711.40348722 Ry
     estimated scf accuracy    <       0.00031007 Ry

     iteration # 19     ecut=    30.00 Ry     beta= 0.70
     Davidson diagonalization with overlap

---- Real-time Memory Report at c_bands before calling an iterative solver
           328 MiB given to the printing process from OS
             0 MiB allocation reported by mallinfo(arena+hblkhd)
        175610 MiB available memory on the node where the printing process lives
------------------
     ethr =  2.34E-08,  avg # of iterations =  2.0

     negative rho (up, down):  3.853E-02 0.000E+00

     total cpu time spent up to now is     6744.9 secs

     total energy              =  -29711.40350434 Ry
     estimated scf accuracy    <       0.00012704 Ry

     iteration # 20     ecut=    30.00 Ry     beta= 0.70
     Davidson diagonalization with overlap

---- Real-time Memory Report at c_bands before calling an iterative solver
           328 MiB given to the printing process from OS
             0 MiB allocation reported by mallinfo(arena+hblkhd)
        175609 MiB available memory on the node where the printing process lives
------------------
     ethr =  9.60E-09,  avg # of iterations =  2.0

     negative rho (up, down):  3.849E-02 0.000E+00

     total cpu time spent up to now is     7005.6 secs

     total energy              =  -29711.40351763 Ry
     estimated scf accuracy    <       0.00006940 Ry

     iteration # 21     ecut=    30.00 Ry     beta= 0.70
     Davidson diagonalization with overlap

---- Real-time Memory Report at c_bands before calling an iterative solver
           328 MiB given to the printing process from OS
             0 MiB allocation reported by mallinfo(arena+hblkhd)
        175609 MiB available memory on the node where the printing process lives
------------------
     ethr =  5.24E-09,  avg # of iterations =  2.0

     negative rho (up, down):  3.848E-02 0.000E+00

     total cpu time spent up to now is     7267.8 secs

     total energy              =  -29711.40352354 Ry
     estimated scf accuracy    <       0.00001309 Ry

     iteration # 22     ecut=    30.00 Ry     beta= 0.70
     Davidson diagonalization with overlap

---- Real-time Memory Report at c_bands before calling an iterative solver
           328 MiB given to the printing process from OS
             0 MiB allocation reported by mallinfo(arena+hblkhd)
        175611 MiB available memory on the node where the printing process lives
------------------
     ethr =  9.89E-10,  avg # of iterations =  2.0

     negative rho (up, down):  3.847E-02 0.000E+00

     total cpu time spent up to now is     7533.2 secs

     total energy              =  -29711.40352529 Ry
     estimated scf accuracy    <       0.00000435 Ry

     iteration # 23     ecut=    30.00 Ry     beta= 0.70
     Davidson diagonalization with overlap

---- Real-time Memory Report at c_bands before calling an iterative solver
           328 MiB given to the printing process from OS
             0 MiB allocation reported by mallinfo(arena+hblkhd)
        175609 MiB available memory on the node where the printing process lives
------------------
     ethr =  3.29E-10,  avg # of iterations =  2.0

     negative rho (up, down):  3.845E-02 0.000E+00

     total cpu time spent up to now is     7798.2 secs

     total energy              =  -29711.40352579 Ry
     estimated scf accuracy    <       0.00000173 Ry

     iteration # 24     ecut=    30.00 Ry     beta= 0.70
     Davidson diagonalization with overlap

---- Real-time Memory Report at c_bands before calling an iterative solver
           328 MiB given to the printing process from OS
             0 MiB allocation reported by mallinfo(arena+hblkhd)
        175608 MiB available memory on the node where the printing process lives
------------------
     ethr =  1.31E-10,  avg # of iterations =  2.0

     negative rho (up, down):  3.846E-02 0.000E+00

     total cpu time spent up to now is     8059.5 secs

     total energy              =  -29711.40352581 Ry
     estimated scf accuracy    <       0.00000194 Ry

     iteration # 25     ecut=    30.00 Ry     beta= 0.70
     Davidson diagonalization with overlap

---- Real-time Memory Report at c_bands before calling an iterative solver
           328 MiB given to the printing process from OS
             0 MiB allocation reported by mallinfo(arena+hblkhd)
        175609 MiB available memory on the node where the printing process lives
------------------
     ethr =  1.31E-10,  avg # of iterations =  2.0

     negative rho (up, down):  3.845E-02 0.000E+00

     total cpu time spent up to now is     8319.6 secs

     total energy              =  -29711.40352585 Ry
     estimated scf accuracy    <       0.00000362 Ry

     iteration # 26     ecut=    30.00 Ry     beta= 0.70
     Davidson diagonalization with overlap

---- Real-time Memory Report at c_bands before calling an iterative solver
           328 MiB given to the printing process from OS
             0 MiB allocation reported by mallinfo(arena+hblkhd)
        175609 MiB available memory on the node where the printing process lives
------------------
     ethr =  1.31E-10,  avg # of iterations =  2.0

     negative rho (up, down):  3.845E-02 0.000E+00

     total cpu time spent up to now is     8580.0 secs

     End of self-consistent calculation

          k = 0.0000 0.0000 0.0000 ( 46769 PWs)   bands (ev):

  -123.8491-123.8483-123.8481-123.8479-123.8478-123.8476-123.8471-123.8468
  -123.8083-123.8074-123.8070-123.8068-123.8057-123.8049-123.8047-123.8046
  -123.7466-123.7458-123.7456-123.7453-123.7450-123.7449-123.7446-123.7445
  -123.7031-123.7023-123.7019-123.7016-123.7003-123.6996-123.6993-123.6991
  -123.6729-123.6720-123.6714-123.6711-123.6707-123.6704-123.6702-123.6699
  -123.5911-123.5813-123.5807-123.5781-123.5773-123.5770-123.5769-123.5767
  -123.5450-123.5444-123.5440-123.5439-123.5432-123.5430-123.5419-123.5414
  -123.4693-123.4680-123.4664-123.4654-123.4643-123.4637-123.4631-123.4629
   -77.9547 -77.9539 -77.9416 -77.9389 -77.9385 -77.9384 -77.9379 -77.9378
   -77.9377 -77.9370 -77.9352 -77.9351 -77.9339 -77.9317 -77.9316 -77.9309
   -77.9302 -77.9301 -77.9301 -77.9298 -77.9295 -77.9294 -77.9223 -77.9216
   -77.9154 -77.9129 -77.9018 -77.8979 -77.8977 -77.8968 -77.8966 -77.8961
   -77.8960 -77.8950 -77.8948 -77.8944 -77.8924 -77.8915 -77.8913 -77.8910
   -77.8901 -77.8900 -77.8895 -77.8890 -77.8887 -77.8886 -77.8827 -77.8803
   -77.8512 -77.8506 -77.8394 -77.8359 -77.8352 -77.8352 -77.8346 -77.8345
   -77.8342 -77.8339 -77.8336 -77.8330 -77.8329 -77.8323 -77.8322 -77.8315
   -77.8311 -77.8302 -77.8301 -77.8299 -77.8276 -77.8274 -77.8195 -77.8187
   -77.8064 -77.8040 -77.7976 -77.7924 -77.7924 -77.7912 -77.7899 -77.7897
   -77.7896 -77.7886 -77.7885 -77.7884 -77.7880 -77.7877 -77.7862 -77.7862
   -77.7857 -77.7853 -77.7852 -77.7849 -77.7815 -77.7815 -77.7743 -77.7737
   -77.7728 -77.7722 -77.7720 -77.7718 -77.7716 -77.7715 -77.7711 -77.7708
   -77.7704 -77.7703 -77.7588 -77.7553 -77.7549 -77.7539 -77.7537 -77.7534
   -77.7528 -77.7521 -77.7516 -77.7513 -77.7476 -77.7474 -77.7395 -77.7384
   -77.6897 -77.6858 -77.6802 -77.6783 -77.6778 -77.6768 -77.6746 -77.6744
   -77.6742 -77.6740 -77.6739 -77.6677 -77.6661 -77.6658 -77.6639 -77.6634
   -77.6626 -77.6622 -77.6614 -77.6610 -77.6581 -77.6577 -77.6506 -77.6475
   -77.6451 -77.6444 -77.6437 -77.6436 -77.6435 -77.6430 -77.6429 -77.6427
   -77.6416 -77.6410 -77.6343 -77.6303 -77.6298 -77.6292 -77.6288 -77.6284
   -77.6271 -77.6263 -77.6242 -77.6240 -77.6200 -77.6198 -77.6114 -77.6106
   -77.5730 -77.5712 -77.5700 -77.5691 -77.5685 -77.5670 -77.5666 -77.5662
   -77.5642 -77.5608 -77.5561 -77.5541 -77.5528 -77.5509 -77.5493 -77.5492
   -77.5485 -77.5479 -77.5439 -77.5437 -77.5386 -77.5385 -77.5316 -77.5284
   -16.3118 -14.9672 -14.0546 -11.6396 -11.5645  -8.6554  -8.3779  -7.0138
    -6.4495  -6.0431  -6.0011  -5.9583  -5.9124  -5.8903  -5.6877  -5.6875
    -5.4991  -5.4669  -5.4031  -5.3975  -5.3783  -5.3726  -5.3724  -5.3667
    -5.3666  -5.3507  -5.3200  -5.3192  -5.2806  -5.2802  -5.2347  -5.2228
    -5.2227  -5.2226  -5.2098  -5.2097  -5.1976  -5.1955  -5.1949  -5.1812
    -5.1674  -5.1673  -5.1422  -5.1421  -5.1323  -5.1274  -5.1274  -5.1174
    -5.1153  -5.1148  -5.0848  -5.0847  -5.0795  -5.0794  -5.0668  -5.0662
    -5.0658  -5.0598  -5.0597  -5.0456  -5.0455  -5.0401  -5.0245  -5.0210
    -5.0210  -5.0079  -5.0073  -5.0072  -5.0067  -4.9934  -4.9933  -4.9784
    -4.9763  -4.9727  -4.9727  -4.9407  -4.9407  -4.9403  -4.9396  -4.9396
    -4.9394  -4.9243  -4.9236  -4.9218  -4.9003  -4.8958  -4.8957  -4.8788
    -4.8770  -4.8760  -4.8759  -4.8707  -4.8707  -4.8567  -4.8567  -4.8499
    -4.8417  -4.8328  -4.8327  -4.8290  -4.8289  -4.8275  -4.8114  -4.8068
    -4.8066  -4.8028  -4.7959  -4.7953  -4.7892  -4.7889  -4.7769  -4.7659
    -4.7658  -4.7622  -4.7614  -4.7516  -4.7512  -4.7510  -4.7491  -4.7303
    -4.7302  -4.7150  -4.7147  -4.7137  -4.7136  -4.7031  -4.6963  -4.6959
    -4.6887  -4.6884  -4.6649  -4.6596  -4.6591  -4.6588  -4.6585  -4.6544
    -4.6436  -4.6385  -4.6384  -4.6178  -4.6175  -4.6082  -4.6079  -4.6019
    -4.6002  -4.6000  -4.5988  -4.5988  -4.5771  -4.5759  -4.5681  -4.5680
    -4.5660  -4.5642  -4.5556  -4.5554  -4.5480  -4.5479  -4.5443  -4.5441
    -4.5354  -4.5310  -4.5223  -4.5222  -4.5214  -4.5214  -4.5099  -4.5094
    -4.4992  -4.4991  -4.4919  -4.4919  -4.4904  -4.4903  -4.4736  -4.4735
    -4.4715  -4.4713  -4.4705  -4.4703  -4.4560  -4.4557  -4.4487  -4.4485
    -4.4429  -4.4427  -4.4417  -4.4319  -4.4293  -4.4256  -4.4255  -4.4078
    -4.4076  -4.4012  -4.4007  -4.3964  -4.3944  -4.3942  -4.3828  -4.3766
    -4.3738  -4.3737  -4.3674  -4.3666  -4.3548  -4.3451  -4.3450  -4.3403
    -4.3401  -4.3370  -4.3345  -4.3343  -4.3254  -4.3247  -4.3247  -4.3246
    -4.3216  -4.3214  -4.3211  -4.3097  -4.3005  -4.3000  -4.2997  -4.2995
    -4.2905  -4.2900  -4.2861  -4.2846  -4.2841  -4.2826  -4.2809  -4.2779
    -4.2778  -4.2774  -4.2772  -4.2673  -4.2669  -4.2659  -4.2570  -4.2540
    -4.2497  -4.2495  -4.2436  -4.2433  -4.2413  -4.2410  -4.2336  -4.2335
    -4.2268  -4.2240  -4.2205  -4.2204  -4.2164  -4.2162  -4.2130  -4.2109
    -4.2018  -4.1923  -4.1917  -4.1857  -4.1830  -4.1829  -4.1827  -4.1733
    -4.1722  -4.1715  -4.1586  -4.1572  -4.1571  -4.1548  -4.1543  -4.1542
    -4.1527  -4.1508  -4.1505  -4.1435  -4.1232  -4.1228  -4.1203  -4.1201
    -4.1196  -4.1195  -4.1184  -4.1177  -4.1071  -4.1068  -4.1027  -4.1026
    -4.1025  -4.0986  -4.0927  -4.0926  -4.0910  -4.0747  -4.0743  -4.0691
    -4.0668  -4.0666  -4.0572  -4.0521  -4.0519  -4.0508  -4.0506  -4.0423
    -4.0292  -4.0290  -4.0279  -4.0256  -4.0251  -4.0243  -4.0233  -4.0210
    -4.0097  -4.0092  -4.0085  -3.9994  -3.9992  -3.9915  -3.9914  -3.9786
    -3.9767  -3.9736  -3.9619  -3.9618  -3.9342  -3.9300  -3.9222  -3.9104
    -3.8955  -3.8938  -3.8784  -3.8763  -3.8589  -3.8558  -3.8556  -3.8546
    -3.8461  -3.7899  -3.7883  -3.7501  -3.7291  -3.6104  -3.6033  -3.6031
    -3.2950  -3.1391  -3.0189  -3.0188  -2.7884  -2.7839  -2.7820  -2.5481
    -1.9898  -1.7251  -1.7232  -1.7129  -1.7107  -1.6627  -1.6535  -1.4407
    -1.0272  -1.0182  -1.0179  -0.9377  -0.8309  -0.8309  -0.8275  -0.4875
    -0.4567  -0.4146  -0.4137  -0.2937  -0.2926  -0.2191   0.0923   0.1931
     0.3000   0.3004   0.3077   0.3079   0.5732   0.6360   0.6499   0.6524
     0.7363   0.7370   0.8810   0.8852   0.8918   1.5599   1.5638   1.6434
     1.6660   1.6675   1.7473   1.7475   1.9552   2.0866   2.3340   2.3371
     2.4694   2.4750   2.5181   2.5202   2.5466   2.8456   2.8468   2.8850
     2.8875   2.9772   2.9780   3.0636   3.4778   3.5576   3.5680   3.7009
     3.7016   4.0194   4.0248   4.1814   4.1850   4.2331   4.8263   4.8300
     5.0820   5.0835   5.0983   5.1189   5.1364   5.1497   5.1520   5.2160
     5.2541   5.2552   5.2876   5.3006   5.5105   5.6557   5.6595   5.6775
     5.7062   5.7256   5.7646   5.9020   6.0294   6.0346   6.3677   6.3786
     6.4067   6.4127   6.4308   6.5812   6.6680   6.6681   6.6928   6.7704
     6.9600   6.9776   7.0140   7.0524   7.0558   7.0766   7.1943   7.2142
     7.2822   7.2858   7.3176   7.3229   7.4471   7.4852   7.4904   7.5598
     7.5900   7.6821   7.7010   7.7666   7.7811   7.7996   7.8021   7.8164
     7.8383   7.8862   7.9050   7.9155   8.0479   8.0887   8.1823   8.2030
     8.2108   8.2152   8.2251   8.2608   8.3598   8.3880   8.4481   8.4765
     8.4878   8.5217   8.5497   8.5628   8.5671   8.5860   8.6150   8.6581
     8.6684   8.6830   8.7484   9.0204   9.0359   9.0503   9.0995   9.1093
     9.1266   9.1758   9.1939   9.2415   9.3087   9.4252   9.4871   9.5195
     9.6037   9.6524   9.6689   9.6951   9.7009   9.7128   9.7331   9.7917
     9.8315   9.8626   9.9355   9.9476  10.0769  10.2137  10.2551  10.2624
    10.2785  10.3102

     occupation numbers 
     1.0000   1.0000   1.0000   1.0000   1.0000   1.0000   1.0000   1.0000
     1.0000   1.0000   1.0000   1.0000   1.0000   1.0000   1.0000   1.0000
     1.0000   1.0000   1.0000   1.0000   1.0000   1.0000   1.0000   1.0000
     1.0000   1.0000   1.0000   1.0000   1.0000   1.0000   1.0000   1.0000
     1.0000   1.0000   1.0000   1.0000   1.0000   1.0000   1.0000   1.0000
     1.0000   1.0000   1.0000   1.0000   1.0000   1.0000   1.0000   1.0000
     1.0000   1.0000   1.0000   1.0000   1.0000   1.0000   1.0000   1.0000
     1.0000   1.0000   1.0000   1.0000   1.0000   1.0000   1.0000   1.0000
     1.0000   1.0000   1.0000   1.0000   1.0000   1.0000   1.0000   1.0000
     1.0000   1.0000   1.0000   1.0000   1.0000   1.0000   1.0000   1.0000
     1.0000   1.0000   1.0000   1.0000   1.0000   1.0000   1.0000   1.0000
     1.0000   1.0000   1.0000   1.0000   1.0000   1.0000   1.0000   1.0000
     1.0000   1.0000   1.0000   1.0000   1.0000   1.0000   1.0000   1.0000
     1.0000   1.0000   1.0000   1.0000   1.0000   1.0000   1.0000   1.0000
     1.0000   1.0000   1.0000   1.0000   1.0000   1.0000   1.0000   1.0000
     1.0000   1.0000   1.0000   1.0000   1.0000   1.0000   1.0000   1.0000
     1.0000   1.0000   1.0000   1.0000   1.0000   1.0000   1.0000   1.0000
     1.0000   1.0000   1.0000   1.0000   1.0000   1.0000   1.0000   1.0000
     1.0000   1.0000   1.0000   1.0000   1.0000   1.0000   1.0000   1.0000
     1.0000   1.0000   1.0000   1.0000   1.0000   1.0000   1.0000   1.0000
     1.0000   1.0000   1.0000   1.0000   1.0000   1.0000   1.0000   1.0000
     1.0000   1.0000   1.0000   1.0000   1.0000   1.0000   1.0000   1.0000
     1.0000   1.0000   1.0000   1.0000   1.0000   1.0000   1.0000   1.0000
     1.0000   1.0000   1.0000   1.0000   1.0000   1.0000   1.0000   1.0000
     1.0000   1.0000   1.0000   1.0000   1.0000   1.0000   1.0000   1.0000
     1.0000   1.0000   1.0000   1.0000   1.0000   1.0000   1.0000   1.0000
     1.0000   1.0000   1.0000   1.0000   1.0000   1.0000   1.0000   1.0000
     1.0000   1.0000   1.0000   1.0000   1.0000   1.0000   1.0000   1.0000
     1.0000   1.0000   1.0000   1.0000   1.0000   1.0000   1.0000   1.0000
     1.0000   1.0000   1.0000   1.0000   1.0000   1.0000   1.0000   1.0000
     1.0000   1.0000   1.0000   1.0000   1.0000   1.0000   1.0000   1.0000
     1.0000   1.0000   1.0000   1.0000   1.0000   1.0000   1.0000   1.0000
     1.0000   1.0000   1.0000   1.0000   1.0000   1.0000   1.0000   1.0000
     1.0000   1.0000   1.0000   1.0000   1.0000   1.0000   1.0000   1.0000
     1.0000   1.0000   1.0000   1.0000   1.0000   1.0000   1.0000   1.0000
     1.0000   1.0000   1.0000   1.0000   1.0000   1.0000   1.0000   1.0000
     1.0000   1.0000   1.0000   1.0000   1.0000   1.0000   1.0000   1.0000
     1.0000   1.0000   1.0000   1.0000   1.0000   1.0000   1.0000   1.0000
     1.0000   1.0000   1.0000   1.0000   1.0000   1.0000   1.0000   1.0000
     1.0000   1.0000   1.0000   1.0000   1.0000   1.0000   1.0000   1.0000
     1.0000   1.0000   1.0000   1.0000   1.0000   1.0000   1.0000   1.0000
     1.0000   1.0000   1.0000   1.0000   1.0000   1.0000   1.0000   1.0000
     1.0000   1.0000   1.0000   1.0000   1.0000   1.0000   1.0000   1.0000
     1.0000   1.0000   1.0000   1.0000   1.0000   1.0000   1.0000   1.0000
     1.0000   1.0000   1.0000   1.0000   1.0000   1.0000   1.0000   1.0000
     1.0000   1.0000   1.0000   1.0000   1.0000   1.0000   1.0000   1.0000
     1.0000   1.0000   1.0000   1.0000   1.0000   1.0000   1.0000   1.0000
     1.0000   1.0000   1.0000   1.0000   1.0000   1.0000   1.0000   1.0000
     1.0000   1.0000   1.0000   1.0000   1.0000   1.0000   1.0000   1.0000
     1.0000   1.0000   1.0000   1.0000   1.0000   1.0000   1.0000   1.0000
     1.0000   1.0000   1.0000   1.0000   1.0000   1.0000   1.0000   1.0000
     1.0000   1.0000   1.0000   1.0000   1.0000   1.0000   1.0000   1.0000
     1.0000   1.0000   1.0000   1.0000   1.0000   1.0000   1.0000   1.0000
     1.0000   1.0000   1.0000   1.0000   1.0000   1.0000   1.0000   1.0000
     1.0000   1.0000   1.0000   1.0000   1.0000   1.0000   1.0000   1.0000
     1.0000   1.0000   1.0000   1.0000   1.0000   1.0000   1.0000   1.0000
     1.0000   1.0000   1.0000   1.0000   1.0000   1.0000   1.0000   1.0000
     1.0000   1.0000   1.0000   1.0000   1.0000   1.0000   1.0000   1.0000
     1.0000   1.0000   1.0000   1.0000   1.0000   1.0000   1.0000   1.0000
     1.0000   1.0000   1.0000   1.0000   1.0000   1.0000   1.0000   1.0000
     1.0000   1.0000   1.0000   1.0000   1.0000   1.0000   1.0000   1.0000
     1.0000   1.0000   1.0000   1.0000   1.0000   1.0000   1.0000   1.0000
     1.0000   1.0000   1.0000   1.0000   1.0000   1.0000   1.0000   1.0000
     1.0000   1.0000   1.0000   1.0000   1.0000   1.0000   1.0000   1.0000
     1.0000   1.0000   1.0000   1.0000   1.0000   1.0000   1.0000   1.0000
     1.0000   1.0000   1.0000   1.0000   1.0000   1.0000   1.0000   1.0000
     1.0000   1.0000   1.0000   1.0000   1.0000   1.0000   1.0000   1.0000
     1.0000   1.0000   1.0000   1.0000   1.0000   1.0000   1.0000   1.0000
     1.0000   1.0000   1.0000   1.0000   1.0000   1.0000   1.0000   1.0000
     1.0000   1.0000   1.0000   1.0000   1.0000   1.0000   1.0000   1.0000
     1.0000   1.0000   1.0000   1.0000   1.0000   1.0000   1.0000   1.0000
     1.0000   1.0000   1.0000   1.0000   1.0000   1.0000   1.0000   1.0000
     1.0000   1.0000   1.0000   1.0000   1.0000   1.0000   1.0000   1.0000
     1.0000   1.0000   1.0000   1.0000   1.0000   1.0000   1.0000   1.0000
     1.0000   1.0000   1.0000   1.0000   1.0000   1.0000   1.0000   1.0000
     1.0000   1.0000   1.0000   1.0000   1.0000   1.0000   1.0000   1.0000
     1.0000   1.0000   1.0000   1.0000   1.0000   1.0000   1.0000   1.0000
     1.0000   1.0000   1.0000   1.0000   1.0000   1.0000   1.0000   1.0000
     1.0000   1.0000   1.0000   1.0000   1.0000   1.0000   1.0000   1.0000
     1.0000   1.0000   1.0000   1.0000   1.0000   1.0000   1.0000   1.0000
     1.0000   1.0000   1.0000   1.0000   1.0000   1.0000   1.0000   1.0000
     1.0000   1.0000   1.0000   1.0000   1.0002   1.0024   1.0426   1.0436
     1.0821   1.0827   1.0803   1.0798   1.0704   0.4744   0.4712   0.3733
     0.3672   0.1848   0.1835   0.0791   0.0001   0.0000   0.0000   0.0000
     0.0000   0.0000   0.0000   0.0000   0.0000   0.0000   0.0000   0.0000
     0.0000   0.0000   0.0000   0.0000   0.0000   0.0000   0.0000   0.0000
     0.0000   0.0000   0.0000   0.0000   0.0000   0.0000   0.0000   0.0000
     0.0000   0.0000   0.0000   0.0000   0.0000   0.0000   0.0000   0.0000
     0.0000   0.0000   0.0000   0.0000   0.0000   0.0000   0.0000   0.0000
     0.0000   0.0000   0.0000   0.0000   0.0000   0.0000   0.0000   0.0000
     0.0000   0.0000   0.0000   0.0000   0.0000   0.0000   0.0000   0.0000
     0.0000   0.0000   0.0000   0.0000   0.0000   0.0000   0.0000   0.0000
     0.0000   0.0000   0.0000   0.0000   0.0000   0.0000   0.0000   0.0000
     0.0000   0.0000   0.0000   0.0000   0.0000   0.0000   0.0000   0.0000
     0.0000   0.0000   0.0000   0.0000   0.0000   0.0000   0.0000   0.0000
     0.0000   0.0000   0.0000   0.0000   0.0000   0.0000   0.0000   0.0000
     0.0000   0.0000   0.0000   0.0000   0.0000   0.0000   0.0000   0.0000
     0.0000   0.0000   0.0000   0.0000   0.0000   0.0000   0.0000   0.0000
     0.0000   0.0000   0.0000   0.0000   0.0000   0.0000   0.0000   0.0000
     0.0000   0.0000

          k = 0.0000 0.3628 0.1846 ( 46763 PWs)   bands (ev):

  -123.8492-123.8485-123.8480-123.8478-123.8477-123.8475-123.8471-123.8468
  -123.8082-123.8075-123.8072-123.8067-123.8053-123.8050-123.8047-123.8045
  -123.7467-123.7459-123.7455-123.7451-123.7450-123.7448-123.7446-123.7444
  -123.7031-123.7024-123.7020-123.7015-123.7000-123.6996-123.6993-123.6990
  -123.6730-123.6721-123.6715-123.6710-123.6706-123.6703-123.6703-123.6699
  -123.5911-123.5812-123.5808-123.5779-123.5774-123.5771-123.5768-123.5766
  -123.5451-123.5446-123.5440-123.5436-123.5433-123.5429-123.5419-123.5413
  -123.4693-123.4680-123.4665-123.4654-123.4641-123.4637-123.4632-123.4629
   -77.9522 -77.9512 -77.9423 -77.9419 -77.9411 -77.9401 -77.9387 -77.9383
   -77.9374 -77.9370 -77.9368 -77.9364 -77.9339 -77.9330 -77.9311 -77.9304
   -77.9297 -77.9293 -77.9292 -77.9273 -77.9269 -77.9263 -77.9255 -77.9217
   -77.9130 -77.9104 -77.9028 -77.9022 -77.9004 -77.8996 -77.8974 -77.8965
   -77.8964 -77.8949 -77.8944 -77.8940 -77.8925 -77.8919 -77.8911 -77.8906
   -77.8895 -77.8883 -77.8882 -77.8873 -77.8866 -77.8859 -77.8854 -77.8806
   -77.8488 -77.8478 -77.8395 -77.8387 -77.8381 -77.8371 -77.8355 -77.8349
   -77.8342 -77.8341 -77.8337 -77.8333 -77.8331 -77.8330 -77.8322 -77.8312
   -77.8306 -77.8303 -77.8295 -77.8273 -77.8246 -77.8238 -77.8228 -77.8192
   -77.8042 -77.8016 -77.7974 -77.7951 -77.7942 -77.7923 -77.7913 -77.7909
   -77.7893 -77.7888 -77.7884 -77.7879 -77.7878 -77.7876 -77.7872 -77.7864
   -77.7855 -77.7849 -77.7848 -77.7841 -77.7797 -77.7779 -77.7773 -77.7742
   -77.7729 -77.7725 -77.7722 -77.7717 -77.7713 -77.7709 -77.7701 -77.7697
   -77.7690 -77.7675 -77.7590 -77.7586 -77.7578 -77.7573 -77.7546 -77.7535
   -77.7527 -77.7522 -77.7512 -77.7494 -77.7450 -77.7438 -77.7429 -77.7392
   -77.6896 -77.6837 -77.6786 -77.6777 -77.6775 -77.6767 -77.6751 -77.6742
   -77.6739 -77.6736 -77.6730 -77.6715 -77.6675 -77.6675 -77.6666 -77.6633
   -77.6621 -77.6618 -77.6614 -77.6587 -77.6585 -77.6532 -77.6528 -77.6487
   -77.6443 -77.6440 -77.6436 -77.6430 -77.6426 -77.6421 -77.6412 -77.6411
   -77.6406 -77.6399 -77.6351 -77.6326 -77.6314 -77.6306 -77.6294 -77.6285
   -77.6282 -77.6271 -77.6258 -77.6245 -77.6169 -77.6165 -77.6150 -77.6110
   -77.5725 -77.5710 -77.5700 -77.5690 -77.5669 -77.5664 -77.5660 -77.5656
   -77.5617 -77.5582 -77.5569 -77.5547 -77.5533 -77.5515 -77.5508 -77.5486
   -77.5481 -77.5479 -77.5476 -77.5474 -77.5376 -77.5345 -77.5340 -77.5296
   -16.3118 -14.9672 -14.0546 -11.6396 -11.5644  -8.6554  -8.3780  -6.8466
    -6.4494  -6.3644  -6.0433  -5.9506  -5.9278  -5.7902  -5.6916  -5.6867
    -5.4276  -5.4126  -5.3960  -5.3431  -5.3418  -5.3336  -5.3320  -5.3286
    -5.3135  -5.2977  -5.2971  -5.2963  -5.2843  -5.2729  -5.2605  -5.2603
    -5.2554  -5.2514  -5.2409  -5.2144  -5.2118  -5.2057  -5.1944  -5.1864
    -5.1824  -5.1663  -5.1663  -5.1643  -5.1634  -5.1622  -5.1593  -5.1590
    -5.1532  -5.1434  -5.1237  -5.1115  -5.0928  -5.0907  -5.0886  -5.0880
    -5.0774  -5.0759  -5.0560  -5.0526  -5.0496  -5.0478  -5.0316  -5.0310
    -5.0221  -5.0190  -5.0100  -5.0099  -5.0095  -4.9991  -4.9899  -4.9814
    -4.9789  -4.9672  -4.9639  -4.9635  -4.9630  -4.9623  -4.9586  -4.9431
    -4.9232  -4.9212  -4.9154  -4.9118  -4.9093  -4.9064  -4.9044  -4.9010
    -4.9000  -4.8849  -4.8798  -4.8763  -4.8730  -4.8659  -4.8639  -4.8601
    -4.8598  -4.8550  -4.8533  -4.8484  -4.8436  -4.8387  -4.8283  -4.8266
    -4.8144  -4.8141  -4.8080  -4.7821  -4.7820  -4.7804  -4.7768  -4.7736
    -4.7720  -4.7639  -4.7556  -4.7553  -4.7546  -4.7525  -4.7519  -4.7334
    -4.7312  -4.7308  -4.7302  -4.7171  -4.7132  -4.7093  -4.7078  -4.7044
    -4.7038  -4.6978  -4.6819  -4.6805  -4.6796  -4.6786  -4.6765  -4.6504
    -4.6493  -4.6473  -4.6412  -4.6402  -4.6355  -4.6328  -4.6166  -4.6081
    -4.6041  -4.6033  -4.6004  -4.5997  -4.5993  -4.5918  -4.5835  -4.5817
    -4.5774  -4.5659  -4.5644  -4.5643  -4.5575  -4.5552  -4.5538  -4.5481
    -4.5481  -4.5474  -4.5398  -4.5333  -4.5246  -4.5185  -4.5173  -4.5146
    -4.5136  -4.4988  -4.4983  -4.4936  -4.4858  -4.4822  -4.4761  -4.4753
    -4.4699  -4.4643  -4.4608  -4.4552  -4.4465  -4.4440  -4.4411  -4.4405
    -4.4370  -4.4266  -4.4250  -4.4210  -4.4204  -4.4153  -4.4123  -4.4110
    -4.4071  -4.4062  -4.3997  -4.3938  -4.3923  -4.3809  -4.3802  -4.3750
    -4.3747  -4.3718  -4.3703  -4.3697  -4.3660  -4.3542  -4.3508  -4.3499
    -4.3471  -4.3437  -4.3384  -4.3362  -4.3317  -4.3304  -4.3278  -4.3242
    -4.3240  -4.3172  -4.3088  -4.3076  -4.3066  -4.3052  -4.3015  -4.2950
    -4.2902  -4.2869  -4.2848  -4.2802  -4.2776  -4.2718  -4.2710  -4.2706
    -4.2658  -4.2588  -4.2552  -4.2487  -4.2474  -4.2408  -4.2396  -4.2320
    -4.2235  -4.2221  -4.2197  -4.2189  -4.2176  -4.2172  -4.2056  -4.2040
    -4.2039  -4.2037  -4.1940  -4.1931  -4.1883  -4.1866  -4.1842  -4.1757
    -4.1752  -4.1746  -4.1739  -4.1690  -4.1668  -4.1656  -4.1617  -4.1569
    -4.1513  -4.1496  -4.1457  -4.1442  -4.1407  -4.1362  -4.1357  -4.1353
    -4.1324  -4.1290  -4.1274  -4.1184  -4.1178  -4.1169  -4.1135  -4.1123
    -4.1120  -4.1052  -4.1043  -4.0998  -4.0981  -4.0927  -4.0913  -4.0903
    -4.0772  -4.0758  -4.0752  -4.0700  -4.0680  -4.0650  -4.0616  -4.0598
    -4.0571  -4.0527  -4.0512  -4.0501  -4.0449  -4.0438  -4.0395  -4.0381
    -4.0341  -4.0334  -4.0314  -4.0291  -4.0287  -4.0235  -4.0167  -4.0141
    -4.0135  -4.0128  -4.0079  -3.9998  -3.9994  -3.9967  -3.9933  -3.9891
    -3.9850  -3.9839  -3.9781  -3.9699  -3.9617  -3.9565  -3.9547  -3.9381
    -3.9368  -3.9348  -3.9336  -3.9118  -3.9111  -3.9065  -3.8925  -3.8608
    -3.8480  -3.8361  -3.7281  -3.6540  -3.5959  -3.5692  -3.4263  -3.3322
    -3.2960  -3.2401  -2.9566  -2.7870  -2.6885  -2.6246  -2.5509  -2.4715
    -2.1874  -2.1815  -1.9945  -1.9178  -1.6623  -1.6082  -1.5288  -1.4424
    -1.3838  -1.2328  -1.1722  -1.1326  -0.9162  -0.8277  -0.7016  -0.6117
    -0.4882  -0.4817  -0.4356  -0.2281  -0.2179  -0.1899  -0.1033  -0.0841
    -0.0710   0.1206   0.1666   0.5731   0.6201   0.6853   0.7366   0.7395
     0.8296   0.9732   0.9766   0.9789   1.1624   1.3238   1.5911   1.6348
     1.6609   1.7830   1.8068   1.8354   1.9068   1.9162   1.9674   2.0619
     2.1078   2.4458   2.6108   2.7056   2.8060   2.8610   2.9421   3.1085
     3.1507   3.2548   3.5127   3.5974   3.7581   3.8282   3.8878   3.9457
     4.0433   4.1466   4.1621   4.2512   4.4210   4.4558   4.5375   4.7914
     4.8658   4.8982   4.9629   5.0128   5.0639   5.1688   5.2173   5.2718
     5.2979   5.3292   5.5023   5.5430   5.5864   5.6117   5.6485   5.6666
     5.6939   5.7327   5.8155   5.9819   6.0013   6.1724   6.1787   6.2057
     6.2561   6.3039   6.3336   6.3667   6.3831   6.4462   6.4794   6.4871
     6.5853   6.6342   6.6381   6.7641   6.7960   6.8237   6.9945   7.0282
     7.0472   7.0745   7.0875   7.1740   7.1900   7.2407   7.2630   7.3295
     7.3376   7.3860   7.5025   7.5148   7.5391   7.5656   7.6713   7.7037
     7.7175   7.7571   7.8414   7.8700   7.8983   7.9381   8.0170   8.0458
     8.0863   8.1327   8.2108   8.2888   8.3075   8.4458   8.4735   8.5188
     8.5446   8.6040   8.6150   8.6487   8.6744   8.7594   8.8245   8.8639
     8.9132   8.9292   8.9680   9.0180   9.0490   9.0798   9.1297   9.2686
     9.2986   9.3344   9.3790   9.4596   9.4746   9.4912   9.5211   9.5767
     9.6849   9.7405   9.7799   9.8159   9.8296   9.8452   9.9109   9.9359
     9.9492  10.0160  10.0342  10.0886  10.1296  10.1659  10.2643  10.3008
    10.3233  10.3493

     occupation numbers 
     1.0000   1.0000   1.0000   1.0000   1.0000   1.0000   1.0000   1.0000
     1.0000   1.0000   1.0000   1.0000   1.0000   1.0000   1.0000   1.0000
     1.0000   1.0000   1.0000   1.0000   1.0000   1.0000   1.0000   1.0000
     1.0000   1.0000   1.0000   1.0000   1.0000   1.0000   1.0000   1.0000
     1.0000   1.0000   1.0000   1.0000   1.0000   1.0000   1.0000   1.0000
     1.0000   1.0000   1.0000   1.0000   1.0000   1.0000   1.0000   1.0000
     1.0000   1.0000   1.0000   1.0000   1.0000   1.0000   1.0000   1.0000
     1.0000   1.0000   1.0000   1.0000   1.0000   1.0000   1.0000   1.0000
     1.0000   1.0000   1.0000   1.0000   1.0000   1.0000   1.0000   1.0000
     1.0000   1.0000   1.0000   1.0000   1.0000   1.0000   1.0000   1.0000
     1.0000   1.0000   1.0000   1.0000   1.0000   1.0000   1.0000   1.0000
     1.0000   1.0000   1.0000   1.0000   1.0000   1.0000   1.0000   1.0000
     1.0000   1.0000   1.0000   1.0000   1.0000   1.0000   1.0000   1.0000
     1.0000   1.0000   1.0000   1.0000   1.0000   1.0000   1.0000   1.0000
     1.0000   1.0000   1.0000   1.0000   1.0000   1.0000   1.0000   1.0000
     1.0000   1.0000   1.0000   1.0000   1.0000   1.0000   1.0000   1.0000
     1.0000   1.0000   1.0000   1.0000   1.0000   1.0000   1.0000   1.0000
     1.0000   1.0000   1.0000   1.0000   1.0000   1.0000   1.0000   1.0000
     1.0000   1.0000   1.0000   1.0000   1.0000   1.0000   1.0000   1.0000
     1.0000   1.0000   1.0000   1.0000   1.0000   1.0000   1.0000   1.0000
     1.0000   1.0000   1.0000   1.0000   1.0000   1.0000   1.0000   1.0000
     1.0000   1.0000   1.0000   1.0000   1.0000   1.0000   1.0000   1.0000
     1.0000   1.0000   1.0000   1.0000   1.0000   1.0000   1.0000   1.0000
     1.0000   1.0000   1.0000   1.0000   1.0000   1.0000   1.0000   1.0000
     1.0000   1.0000   1.0000   1.0000   1.0000   1.0000   1.0000   1.0000
     1.0000   1.0000   1.0000   1.0000   1.0000   1.0000   1.0000   1.0000
     1.0000   1.0000   1.0000   1.0000   1.0000   1.0000   1.0000   1.0000
     1.0000   1.0000   1.0000   1.0000   1.0000   1.0000   1.0000   1.0000
     1.0000   1.0000   1.0000   1.0000   1.0000   1.0000   1.0000   1.0000
     1.0000   1.0000   1.0000   1.0000   1.0000   1.0000   1.0000   1.0000
     1.0000   1.0000   1.0000   1.0000   1.0000   1.0000   1.0000   1.0000
     1.0000   1.0000   1.0000   1.0000   1.0000   1.0000   1.0000   1.0000
     1.0000   1.0000   1.0000   1.0000   1.0000   1.0000   1.0000   1.0000
     1.0000   1.0000   1.0000   1.0000   1.0000   1.0000   1.0000   1.0000
     1.0000   1.0000   1.0000   1.0000   1.0000   1.0000   1.0000   1.0000
     1.0000   1.0000   1.0000   1.0000   1.0000   1.0000   1.0000   1.0000
     1.0000   1.0000   1.0000   1.0000   1.0000   1.0000   1.0000   1.0000
     1.0000   1.0000   1.0000   1.0000   1.0000   1.0000   1.0000   1.0000
     1.0000   1.0000   1.0000   1.0000   1.0000   1.0000   1.0000   1.0000
     1.0000   1.0000   1.0000   1.0000   1.0000   1.0000   1.0000   1.0000
     1.0000   1.0000   1.0000   1.0000   1.0000   1.0000   1.0000   1.0000
     1.0000   1.0000   1.0000   1.0000   1.0000   1.0000   1.0000   1.0000
     1.0000   1.0000   1.0000   1.0000   1.0000   1.0000   1.0000   1.0000
     1.0000   1.0000   1.0000   1.0000   1.0000   1.0000   1.0000   1.0000
     1.0000   1.0000   1.0000   1.0000   1.0000   1.0000   1.0000   1.0000
     1.0000   1.0000   1.0000   1.0000   1.0000   1.0000   1.0000   1.0000
     1.0000   1.0000   1.0000   1.0000   1.0000   1.0000   1.0000   1.0000
     1.0000   1.0000   1.0000   1.0000   1.0000   1.0000   1.0000   1.0000
     1.0000   1.0000   1.0000   1.0000   1.0000   1.0000   1.0000   1.0000
     1.0000   1.0000   1.0000   1.0000   1.0000   1.0000   1.0000   1.0000
     1.0000   1.0000   1.0000   1.0000   1.0000   1.0000   1.0000   1.0000
     1.0000   1.0000   1.0000   1.0000   1.0000   1.0000   1.0000   1.0000
     1.0000   1.0000   1.0000   1.0000   1.0000   1.0000   1.0000   1.0000
     1.0000   1.0000   1.0000   1.0000   1.0000   1.0000   1.0000   1.0000
     1.0000   1.0000   1.0000   1.0000   1.0000   1.0000   1.0000   1.0000
     1.0000   1.0000   1.0000   1.0000   1.0000   1.0000   1.0000   1.0000
     1.0000   1.0000   1.0000   1.0000   1.0000   1.0000   1.0000   1.0000
     1.0000   1.0000   1.0000   1.0000   1.0000   1.0000   1.0000   1.0000
     1.0000   1.0000   1.0000   1.0000   1.0000   1.0000   1.0000   1.0000
     1.0000   1.0000   1.0000   1.0000   1.0000   1.0000   1.0000   1.0000
     1.0000   1.0000   1.0000   1.0000   1.0000   1.0000   1.0000   1.0000
     1.0000   1.0000   1.0000   1.0000   1.0000   1.0000   1.0000   1.0000
     1.0000   1.0000   1.0000   1.0000   1.0000   1.0000   1.0000   1.0000
     1.0000   1.0000   1.0000   1.0000   1.0000   1.0000   1.0000   1.0000
     1.0000   1.0000   1.0000   1.0000   1.0000   1.0000   1.0000   1.0000
     1.0000   1.0000   1.0000   1.0000   1.0000   1.0000   1.0000   1.0000
     1.0000   1.0000   1.0000   1.0000   1.0000   1.0000   1.0000   1.0000
     1.0000   1.0000   1.0000   1.0000   1.0000   1.0000   1.0000   1.0000
     1.0000   1.0000   1.0000   1.0000   1.0000   1.0000   1.0000   1.0000
     1.0000   1.0000   1.0000   1.0000   1.0000   1.0000   1.0000   1.0000
     1.0000   1.0000   1.0000   1.0000   1.0000   1.0000   1.0000   1.0000
     1.0000   1.0000   1.0000   1.0000   1.0000   1.0000   1.0000   1.0000
     1.0000   1.0000   1.0000   1.0000   1.0000   1.0000   1.0000   1.0000
     1.0000   1.0000   1.0000   1.0000   1.0000   1.0000   1.0000   1.0000
     1.0000   1.0000   1.0000   1.0000   1.0000   1.0000   1.0000   1.0000
     1.0000   1.0000   1.0000   1.0000   1.0000   1.0000   1.0000   1.0000
     1.0000   1.0000   1.0000   1.0000   1.0000   1.0000   1.0000   1.0000
     1.0000   1.0000   1.0000   1.0000   1.0000   1.0000   1.0000   1.0000
     1.0000   1.0000   1.0000   1.0000   1.0000   1.0000   1.0000   1.0000
     1.0000   1.0000   1.0000   1.0000   1.0000   1.0000   1.0000   1.0000
     1.0000   1.0000   1.0000   1.0000   1.0000   1.0000   1.0000   1.0000
     1.0000   1.0000   1.0000   1.0000   1.0001   1.0001   1.0003   1.0016
     1.0032   1.0781   1.0164   0.8462   0.5827   0.4339   0.2474   0.0473
     0.0278   0.0062   0.0000   0.0000   0.0000   0.0000   0.0000   0.0000
     0.0000   0.0000   0.0000   0.0000   0.0000   0.0000   0.0000   0.0000
     0.0000   0.0000   0.0000   0.0000   0.0000   0.0000   0.0000   0.0000
     0.0000   0.0000   0.0000   0.0000   0.0000   0.0000   0.0000   0.0000
     0.0000   0.0000   0.0000   0.0000   0.0000   0.0000   0.0000   0.0000
     0.0000   0.0000   0.0000   0.0000   0.0000   0.0000   0.0000   0.0000
     0.0000   0.0000   0.0000   0.0000   0.0000   0.0000   0.0000   0.0000
     0.0000   0.0000   0.0000   0.0000   0.0000   0.0000   0.0000   0.0000
     0.0000   0.0000   0.0000   0.0000   0.0000   0.0000   0.0000   0.0000
     0.0000   0.0000   0.0000   0.0000   0.0000   0.0000   0.0000   0.0000
     0.0000   0.0000   0.0000   0.0000   0.0000   0.0000   0.0000   0.0000
     0.0000   0.0000   0.0000   0.0000   0.0000   0.0000   0.0000   0.0000
     0.0000   0.0000   0.0000   0.0000   0.0000   0.0000   0.0000   0.0000
     0.0000   0.0000   0.0000   0.0000   0.0000   0.0000   0.0000   0.0000
     0.0000   0.0000   0.0000   0.0000   0.0000   0.0000   0.0000   0.0000
     0.0000   0.0000   0.0000   0.0000   0.0000   0.0000   0.0000   0.0000
     0.0000   0.0000

          k = 0.3333 0.0811 0.7384 ( 46775 PWs)   bands (ev):

  -123.8490-123.8482-123.8481-123.8480-123.8478-123.8476-123.8472-123.8469
  -123.8081-123.8075-123.8072-123.8069-123.8055-123.8049-123.8048-123.8046
  -123.7465-123.7458-123.7455-123.7453-123.7451-123.7449-123.7447-123.7445
  -123.7029-123.7023-123.7020-123.7016-123.7002-123.6996-123.6994-123.6991
  -123.6728-123.6721-123.6713-123.6711-123.6707-123.6705-123.6703-123.6700
  -123.5912-123.5812-123.5808-123.5779-123.5774-123.5771-123.5770-123.5767
  -123.5450-123.5444-123.5440-123.5439-123.5433-123.5430-123.5419-123.5414
  -123.4692-123.4680-123.4664-123.4654-123.4642-123.4637-123.4632-123.4630
   -77.9551 -77.9544 -77.9407 -77.9393 -77.9389 -77.9386 -77.9385 -77.9380
   -77.9375 -77.9369 -77.9355 -77.9345 -77.9337 -77.9334 -77.9316 -77.9309
   -77.9306 -77.9305 -77.9302 -77.9297 -77.9294 -77.9282 -77.9226 -77.9218
   -77.9160 -77.9136 -77.9003 -77.8985 -77.8980 -77.8969 -77.8966 -77.8965
   -77.8961 -77.8955 -77.8947 -77.8946 -77.8930 -77.8924 -77.8916 -77.8912
   -77.8905 -77.8902 -77.8890 -77.8887 -77.8882 -77.8875 -77.8831 -77.8807
   -77.8516 -77.8509 -77.8375 -77.8359 -77.8355 -77.8351 -77.8351 -77.8346
   -77.8341 -77.8340 -77.8337 -77.8328 -77.8327 -77.8323 -77.8321 -77.8316
   -77.8313 -77.8309 -77.8307 -77.8290 -77.8281 -77.8270 -77.8197 -77.8191
   -77.8071 -77.8047 -77.7953 -77.7929 -77.7926 -77.7918 -77.7904 -77.7899
   -77.7896 -77.7893 -77.7888 -77.7884 -77.7872 -77.7869 -77.7866 -77.7862
   -77.7860 -77.7858 -77.7854 -77.7841 -77.7833 -77.7812 -77.7746 -77.7739
   -77.7730 -77.7723 -77.7720 -77.7720 -77.7719 -77.7715 -77.7711 -77.7709
   -77.7706 -77.7702 -77.7575 -77.7553 -77.7546 -77.7540 -77.7537 -77.7534
   -77.7530 -77.7529 -77.7514 -77.7500 -77.7494 -77.7471 -77.7400 -77.7389
   -77.6899 -77.6862 -77.6805 -77.6783 -77.6780 -77.6763 -77.6750 -77.6746
   -77.6744 -77.6741 -77.6735 -77.6670 -77.6662 -77.6660 -77.6639 -77.6630
   -77.6628 -77.6623 -77.6620 -77.6597 -77.6591 -77.6576 -77.6510 -77.6479
   -77.6446 -77.6442 -77.6441 -77.6438 -77.6436 -77.6431 -77.6430 -77.6420
   -77.6416 -77.6405 -77.6331 -77.6306 -77.6301 -77.6298 -77.6291 -77.6289
   -77.6276 -77.6251 -77.6245 -77.6237 -77.6219 -77.6195 -77.6118 -77.6111
   -77.5726 -77.5709 -77.5700 -77.5687 -77.5677 -77.5670 -77.5666 -77.5658
   -77.5645 -77.5613 -77.5559 -77.5545 -77.5531 -77.5514 -77.5500 -77.5494
   -77.5485 -77.5472 -77.5446 -77.5439 -77.5403 -77.5381 -77.5319 -77.5288
   -16.3119 -14.9673 -14.0546 -11.6396 -11.5644  -8.6554  -8.3781  -6.8748
    -6.4811  -6.4495  -6.0432  -5.9313  -5.8340  -5.7364  -5.6099  -5.5980
    -5.5851  -5.5102  -5.4829  -5.3947  -5.3929  -5.3794  -5.3789  -5.3789
    -5.3647  -5.3164  -5.3162  -5.2955  -5.2943  -5.2786  -5.2533  -5.2527
    -5.2251  -5.2233  -5.2206  -5.1966  -5.1885  -5.1766  -5.1721  -5.1676
    -5.1447  -5.1392  -5.1391  -5.1369  -5.1334  -5.1274  -5.1237  -5.1161
    -5.1006  -5.1004  -5.0960  -5.0911  -5.0747  -5.0723  -5.0657  -5.0653
    -5.0616  -5.0568  -5.0555  -5.0495  -5.0429  -5.0410  -5.0239  -5.0139
    -5.0104  -5.0102  -5.0095  -5.0093  -5.0078  -4.9982  -4.9872  -4.9788
    -4.9764  -4.9752  -4.9743  -4.9520  -4.9510  -4.9482  -4.9452  -4.9387
    -4.9307  -4.9269  -4.9160  -4.9140  -4.9061  -4.9051  -4.8943  -4.8867
    -4.8851  -4.8809  -4.8799  -4.8746  -4.8700  -4.8695  -4.8680  -4.8613
    -4.8583  -4.8536  -4.8456  -4.8373  -4.8296  -4.8229  -4.8223  -4.8134
    -4.8119  -4.7977  -4.7916  -4.7867  -4.7811  -4.7792  -4.7770  -4.7645
    -4.7594  -4.7523  -4.7517  -4.7510  -4.7501  -4.7440  -4.7436  -4.7416
    -4.7283  -4.7217  -4.7138  -4.7121  -4.7097  -4.7060  -4.7050  -4.7046
    -4.7042  -4.6868  -4.6774  -4.6673  -4.6522  -4.6480  -4.6465  -4.6422
    -4.6408  -4.6192  -4.6185  -4.6183  -4.6139  -4.6064  -4.6045  -4.5981
    -4.5973  -4.5936  -4.5812  -4.5779  -4.5777  -4.5749  -4.5743  -4.5586
    -4.5566  -4.5532  -4.5525  -4.5490  -4.5484  -4.5482  -4.5473  -4.5470
    -4.5390  -4.5380  -4.5258  -4.5239  -4.5200  -4.5142  -4.5128  -4.5097
    -4.5091  -4.4986  -4.4952  -4.4896  -4.4875  -4.4874  -4.4781  -4.4761
    -4.4746  -4.4726  -4.4718  -4.4674  -4.4665  -4.4664  -4.4658  -4.4603
    -4.4580  -4.4565  -4.4549  -4.4524  -4.4460  -4.4349  -4.4298  -4.4281
    -4.4174  -4.4172  -4.4029  -4.3967  -4.3919  -4.3821  -4.3814  -4.3792
    -4.3768  -4.3732  -4.3696  -4.3678  -4.3660  -4.3517  -4.3475  -4.3407
    -4.3388  -4.3378  -4.3371  -4.3338  -4.3336  -4.3321  -4.3242  -4.3230
    -4.3219  -4.3161  -4.3153  -4.3150  -4.3148  -4.3142  -4.3108  -4.3017
    -4.3011  -4.2968  -4.2966  -4.2927  -4.2889  -4.2875  -4.2796  -4.2777
    -4.2776  -4.2736  -4.2694  -4.2681  -4.2646  -4.2610  -4.2525  -4.2522
    -4.2482  -4.2473  -4.2399  -4.2390  -4.2346  -4.2338  -4.2332  -4.2327
    -4.2227  -4.2201  -4.2188  -4.2161  -4.2154  -4.2146  -4.2140  -4.2136
    -4.2110  -4.2096  -4.1921  -4.1880  -4.1864  -4.1850  -4.1777  -4.1775
    -4.1686  -4.1627  -4.1615  -4.1609  -4.1607  -4.1606  -4.1553  -4.1495
    -4.1490  -4.1405  -4.1245  -4.1241  -4.1223  -4.1218  -4.1185  -4.1143
    -4.1078  -4.1047  -4.1033  -4.1028  -4.1026  -4.1009  -4.1007  -4.1000
    -4.0975  -4.0900  -4.0896  -4.0857  -4.0777  -4.0706  -4.0701  -4.0667
    -4.0645  -4.0522  -4.0512  -4.0498  -4.0446  -4.0429  -4.0426  -4.0370
    -4.0351  -4.0259  -4.0257  -4.0256  -4.0240  -4.0233  -4.0222  -4.0218
    -4.0180  -4.0156  -4.0149  -3.9994  -3.9972  -3.9930  -3.9882  -3.9851
    -3.9835  -3.9768  -3.9759  -3.9588  -3.9582  -3.9336  -3.9321  -3.9203
    -3.9133  -3.9001  -3.8984  -3.8610  -3.8537  -3.8502  -3.8495  -3.8491
    -3.7824  -3.7809  -3.7290  -3.7043  -3.6619  -3.6305  -3.4794  -3.2953
    -3.2834  -3.2652  -3.0087  -2.8907  -2.7867  -2.6572  -2.5569  -2.5453
    -2.4689  -2.2267  -2.2145  -1.7808  -1.6616  -1.6157  -1.5269  -1.4882
    -1.4423  -1.4033  -1.0266  -0.8297  -0.8260  -0.7062  -0.6186  -0.6185
    -0.4879  -0.4116  -0.3739  -0.2180  -0.1603  -0.0273   0.1068   0.1578
     0.1584   0.4479   0.4496   0.4970   0.5730   0.7032   0.8039   0.9254
     0.9654   0.9832   0.9840   1.0389   1.1973   1.2087   1.2109   1.3669
     1.6221   1.6316   1.7029   1.8369   1.9392   1.9397   1.9760   2.0941
     2.3247   2.4186   2.5063   2.5125   2.5267   2.9804   3.1014   3.1292
     3.2104   3.3297   3.3976   3.3985   3.5043   3.5278   3.8081   3.8098
     3.8699   4.0046   4.1134   4.1491   4.1844   4.2146   4.3590   4.4974
     4.5330   4.5367   4.6038   4.9392   4.9415   5.1049   5.1054   5.1299
     5.1660   5.2117   5.4654   5.4995   5.6095   5.6292   5.6299   5.6929
     5.8710   5.8766   5.9183   5.9661   5.9976   6.1692   6.2706   6.3737
     6.4043   6.4346   6.4456   6.5708   6.5827   6.6313   6.6352   6.6896
     6.7223   6.7352   6.7988   6.8477   6.8500   7.0160   7.0772   7.0952
     7.1850   7.2033   7.3112   7.3255   7.3426   7.3472   7.3671   7.3854
     7.4864   7.5658   7.6366   7.6404   7.7167   7.7312   7.7958   7.8038
     7.8462   7.8725   7.9132   7.9528   8.0050   8.0876   8.0921   8.1109
     8.1591   8.1952   8.2608   8.3368   8.3491   8.4239   8.4977   8.7010
     8.7153   8.7730   8.7980   8.8089   8.8462   8.8506   8.8872   8.9125
     8.9231   8.9519   9.0262   9.1216   9.1344   9.1684   9.1934   9.2384
     9.2981   9.3648   9.3927   9.4043   9.4169   9.4702   9.5003   9.5391
     9.5780   9.5918   9.6083   9.6236   9.6486   9.7224   9.7635   9.7855
     9.7981   9.8339   9.8532   9.9217   9.9975  10.0649  10.0872  10.0976
    10.1467  10.1715

     occupation numbers 
     1.0000   1.0000   1.0000   1.0000   1.0000   1.0000   1.0000   1.0000
     1.0000   1.0000   1.0000   1.0000   1.0000   1.0000   1.0000   1.0000
     1.0000   1.0000   1.0000   1.0000   1.0000   1.0000   1.0000   1.0000
     1.0000   1.0000   1.0000   1.0000   1.0000   1.0000   1.0000   1.0000
     1.0000   1.0000   1.0000   1.0000   1.0000   1.0000   1.0000   1.0000
     1.0000   1.0000   1.0000   1.0000   1.0000   1.0000   1.0000   1.0000
     1.0000   1.0000   1.0000   1.0000   1.0000   1.0000   1.0000   1.0000
     1.0000   1.0000   1.0000   1.0000   1.0000   1.0000   1.0000   1.0000
     1.0000   1.0000   1.0000   1.0000   1.0000   1.0000   1.0000   1.0000
     1.0000   1.0000   1.0000   1.0000   1.0000   1.0000   1.0000   1.0000
     1.0000   1.0000   1.0000   1.0000   1.0000   1.0000   1.0000   1.0000
     1.0000   1.0000   1.0000   1.0000   1.0000   1.0000   1.0000   1.0000
     1.0000   1.0000   1.0000   1.0000   1.0000   1.0000   1.0000   1.0000
     1.0000   1.0000   1.0000   1.0000   1.0000   1.0000   1.0000   1.0000
     1.0000   1.0000   1.0000   1.0000   1.0000   1.0000   1.0000   1.0000
     1.0000   1.0000   1.0000   1.0000   1.0000   1.0000   1.0000   1.0000
     1.0000   1.0000   1.0000   1.0000   1.0000   1.0000   1.0000   1.0000
     1.0000   1.0000   1.0000   1.0000   1.0000   1.0000   1.0000   1.0000
     1.0000   1.0000   1.0000   1.0000   1.0000   1.0000   1.0000   1.0000
     1.0000   1.0000   1.0000   1.0000   1.0000   1.0000   1.0000   1.0000
     1.0000   1.0000   1.0000   1.0000   1.0000   1.0000   1.0000   1.0000
     1.0000   1.0000   1.0000   1.0000   1.0000   1.0000   1.0000   1.0000
     1.0000   1.0000   1.0000   1.0000   1.0000   1.0000   1.0000   1.0000
     1.0000   1.0000   1.0000   1.0000   1.0000   1.0000   1.0000   1.0000
     1.0000   1.0000   1.0000   1.0000   1.0000   1.0000   1.0000   1.0000
     1.0000   1.0000   1.0000   1.0000   1.0000   1.0000   1.0000   1.0000
     1.0000   1.0000   1.0000   1.0000   1.0000   1.0000   1.0000   1.0000
     1.0000   1.0000   1.0000   1.0000   1.0000   1.0000   1.0000   1.0000
[...]
     atom   33 type  1   force =     0.00000000    0.00000000    0.00000000
     atom   34 type  1   force =     0.00000000    0.00000000    0.00000000
     atom   35 type  1   force =     0.00000000    0.00000000    0.00000000
     atom   36 type  1   force =     0.00000000    0.00000000    0.00000000
     atom   37 type  1   force =     0.00000000    0.00000000    0.00000000
     atom   38 type  1   force =     0.00000000    0.00000000    0.00000000
     atom   39 type  1   force =     0.00000000    0.00000000    0.00000000
     atom   40 type  1   force =     0.00000000    0.00000000    0.00000000
     atom   41 type  1   force =     0.00000000    0.00000000    0.00000000
     atom   42 type  1   force =     0.00000000    0.00000000    0.00000000
     atom   43 type  1   force =     0.00000000    0.00000000    0.00000000
     atom   44 type  1   force =     0.00000000    0.00000000    0.00000000
     atom   45 type  1   force =     0.00000000    0.00000000    0.00000000
     atom   46 type  1   force =     0.00000000    0.00000000    0.00000000
     atom   47 type  1   force =     0.00000000    0.00000000    0.00000000
     atom   48 type  1   force =     0.00000000    0.00000000    0.00000000
     atom   49 type  1   force =     0.00000000    0.00000000    0.00000000
     atom   50 type  1   force =     0.00000000    0.00000000    0.00000000
     atom   51 type  1   force =     0.00000000    0.00000000    0.00000000
     atom   52 type  1   force =     0.00000000    0.00000000    0.00000000
     atom   53 type  1   force =     0.00000000    0.00000000    0.00000000
     atom   54 type  1   force =     0.00000000    0.00000000    0.00000000
     atom   55 type  1   force =     0.00000000    0.00000000    0.00000000
     atom   56 type  1   force =     0.00000000    0.00000000    0.00000000
     atom   57 type  1   force =     0.00000000    0.00000000    0.00000000
     atom   58 type  1   force =     0.00000000    0.00000000    0.00000000
     atom   59 type  1   force =     0.00000000    0.00000000    0.00000000
     atom   60 type  1   force =     0.00000000    0.00000000    0.00000000
     atom   61 type  1   force =     0.00000000    0.00000000    0.00000000
     atom   62 type  1   force =     0.00000000    0.00000000    0.00000000
     atom   63 type  1   force =     0.00000000    0.00000000    0.00000000
     atom   64 type  1   force =     0.00000000    0.00000000    0.00000000
     atom   65 type  2   force =     0.00000000    0.00000000    0.00000000
     atom   66 type  2   force =     0.00000000    0.00000000    0.00000000
     atom   67 type  2   force =     0.00000000    0.00000000    0.00000000
     atom   68 type  2   force =     0.00000000    0.00000000    0.00000000
     atom   69 type  2   force =     0.00000000    0.00000000    0.00000000
     atom   70 type  2   force =     0.00000000    0.00000000    0.00000000
     atom   71 type  2   force =     0.00000000    0.00000000    0.00000000
     atom   72 type  3   force =     0.00000000    0.00000000    0.00000000
     atom   73 type  3   force =     0.00000000    0.00000000    0.00000000
     atom   74 type  4   force =     0.00000000    0.00000000    0.00000000
     atom   75 type  4   force =     0.00000000    0.00000000    0.00000000
     atom   76 type  4   force =     0.00000000    0.00000000    0.00000000
     atom   77 type  4   force =     0.00000000    0.00000000    0.00000000
     atom   78 type  4   force =     0.00000000    0.00000000    0.00000000
     atom   79 type  4   force =     0.00000000    0.00000000    0.00000000
     The SCF correction term to forces
     atom    1 type  1   force =    -0.00000000   -0.00000000    0.00000000
     atom    2 type  1   force =    -0.00000000   -0.00000000    0.00000000
     atom    3 type  1   force =     0.00000000    0.00000000    0.00000000
     atom    4 type  1   force =     0.00000000    0.00000000   -0.00000000
     atom    5 type  1   force =     0.00000000   -0.00000000    0.00000000
     atom    6 type  1   force =    -0.00000000    0.00000000    0.00000000
     atom    7 type  1   force =    -0.00003482    0.00000867   -0.00007151
     atom    8 type  1   force =     0.00000040   -0.00002198   -0.00015205
     atom    9 type  1   force =    -0.00000000   -0.00000000    0.00000000
     atom   10 type  1   force =    -0.00000000   -0.00000000    0.00000000
     atom   11 type  1   force =     0.00000000    0.00000000    0.00000000
     atom   12 type  1   force =     0.00000000    0.00000000   -0.00000000
     atom   13 type  1   force =    -0.00000000    0.00000000   -0.00000000
     atom   14 type  1   force =    -0.00000000   -0.00000000    0.00000000
     atom   15 type  1   force =    -0.00013157    0.00018870   -0.00012894
     atom   16 type  1   force =     0.00011672   -0.00021016   -0.00013831
     atom   17 type  1   force =     0.00000000    0.00000000    0.00000000
     atom   18 type  1   force =     0.00000000    0.00000000    0.00000000
     atom   19 type  1   force =    -0.00000000   -0.00000000   -0.00000000
     atom   20 type  1   force =    -0.00000000   -0.00000000    0.00000000
     atom   21 type  1   force =     0.00000000    0.00000000   -0.00000000
     atom   22 type  1   force =     0.00000000   -0.00000000   -0.00000000
     atom   23 type  1   force =    -0.00000145   -0.00003837   -0.00003328
     atom   24 type  1   force =    -0.00005650    0.00002629   -0.00000550
     atom   25 type  1   force =     0.00000000    0.00000000    0.00000000
     atom   26 type  1   force =     0.00000000    0.00000000    0.00000000
     atom   27 type  1   force =    -0.00000000   -0.00000000    0.00000000
     atom   28 type  1   force =    -0.00000000   -0.00000000    0.00000000
     atom   29 type  1   force =     0.00000000    0.00000000   -0.00000000
     atom   30 type  1   force =     0.00000000   -0.00000000   -0.00000000
     atom   31 type  1   force =     0.00010621   -0.00006365    0.00000006
     atom   32 type  1   force =    -0.00015965    0.00003988   -0.00002031
     atom   33 type  1   force =    -0.00000000    0.00000000    0.00000000
     atom   34 type  1   force =    -0.00000000   -0.00000000    0.00000000
     atom   35 type  1   force =    -0.00000000   -0.00000000   -0.00000000
     atom   36 type  1   force =    -0.00000000   -0.00000000    0.00000000
     atom   37 type  1   force =     0.00000000    0.00000000    0.00000000
     atom   38 type  1   force =     0.00000000   -0.00000000   -0.00000000
     atom   39 type  1   force =     0.00006108   -0.00018560   -0.00009147
     atom   40 type  1   force =    -0.00021397    0.00013767   -0.00009925
     atom   41 type  1   force =    -0.00000000   -0.00000000    0.00000000
     atom   42 type  1   force =    -0.00000000    0.00000000    0.00000000
     atom   43 type  1   force =    -0.00000000   -0.00000000    0.00000000
     atom   44 type  1   force =    -0.00000000   -0.00000000   -0.00000000
     atom   45 type  1   force =     0.00000000    0.00000000    0.00000000
     atom   46 type  1   force =    -0.00000000    0.00000000   -0.00000000
     atom   47 type  1   force =    -0.00006469    0.00004413   -0.00006633
     atom   48 type  1   force =    -0.00008387   -0.00008927   -0.00011975
     atom   49 type  1   force =     0.00000000   -0.00000000    0.00000000
     atom   50 type  1   force =    -0.00000000    0.00000000    0.00000000
     atom   51 type  1   force =     0.00000000    0.00000000    0.00000000
     atom   52 type  1   force =     0.00000000    0.00000000    0.00000000
     atom   53 type  1   force =    -0.00000000   -0.00000000   -0.00000000
     atom   54 type  1   force =    -0.00000000   -0.00000000   -0.00000000
     atom   55 type  1   force =    -0.00011232    0.00007091   -0.00003792
     atom   56 type  1   force =     0.00019754   -0.00006356   -0.00004555
     atom   57 type  1   force =     0.00000000    0.00000000    0.00000000
     atom   58 type  1   force =     0.00000000   -0.00000000    0.00000000
     atom   59 type  1   force =     0.00000000    0.00000000    0.00000000
     atom   60 type  1   force =     0.00000000   -0.00000000    0.00000000
     atom   61 type  1   force =    -0.00000000    0.00000000   -0.00000000
     atom   62 type  1   force =    -0.00000000   -0.00000000   -0.00000000
     atom   63 type  1   force =     0.00002009    0.00009099   -0.00004607
     atom   64 type  1   force =     0.00004151   -0.00007379   -0.00004368
     atom   65 type  2   force =     0.00000298    0.00000187   -0.00003336
     atom   66 type  2   force =    -0.00000195    0.00003906    0.00000626
     atom   67 type  2   force =     0.00001181    0.00000256   -0.00000191
     atom   68 type  2   force =    -0.00000077    0.00003031    0.00003873
     atom   69 type  2   force =     0.00000166    0.00001328   -0.00000073
     atom   70 type  2   force =     0.00000967    0.00001983    0.00004146
     atom   71 type  2   force =    -0.00000356    0.00003701   -0.00000103
     atom   72 type  3   force =     0.00000730   -0.00001327   -0.00003757
     atom   73 type  3   force =     0.00000311    0.00000920   -0.00001773
     atom   74 type  4   force =     0.00000212    0.00000187   -0.00000306
     atom   75 type  4   force =     0.00000320   -0.00000050   -0.00000008
     atom   76 type  4   force =     0.00000346   -0.00000904   -0.00000513
     atom   77 type  4   force =     0.00000128   -0.00000083    0.00000585
     atom   78 type  4   force =     0.00000248   -0.00000646   -0.00000494
     atom   79 type  4   force =     0.00000245   -0.00000283    0.00000624

     Total force =     0.008245     Total SCF correction =     0.000694


     Computing stress (Cartesian axis) and pressure


     negative rho (up, down):  3.836E-02 0.000E+00
          total   stress  (Ry/bohr**3)                   (kbar)     P=     -283.15
  -0.00199890  -0.00002283   0.00002600         -294.05       -3.36        3.83
  -0.00002283  -0.00193227   0.00000415           -3.36     -284.25        0.61
   0.00002600   0.00000415  -0.00184326            3.83        0.61     -271.15

     kinetic stress (kbar)  15586.47     23.28    -11.42
                               23.28  15507.97     -3.01
                              -11.42     -3.01  15538.96

     local   stress (kbar)**********   3950.00  -2422.44
                             3950.00**********   -588.44
                            -2422.44   -588.441133350.11

     nonloc. stress (kbar)  -1747.73     -7.87      4.81
                               -7.87  -1718.50      0.98
                                4.81      0.98  -1749.40

     hartree stress (kbar) 594870.01  -1677.99   1010.77
                            -1677.99 601118.74    245.38
                             1010.77    245.38-525524.68

     exc-cor stress (kbar)  -7583.92     -1.72      0.89
                               -1.72  -7578.11      0.23
                                0.89      0.23  -7583.20

     corecor stress (kbar)    -72.16      0.39     -0.10
                                0.39    -73.26     -0.03
                               -0.10     -0.03    -73.60

     ewald   stress (kbar) 520636.55  -2289.46   1421.32
                            -2289.46 529126.86    345.49
                             1421.32    345.49-614229.33

     hubbard stress (kbar)      0.00      0.00      0.00
                                0.00      0.00      0.00
                                0.00      0.00      0.00

     DFT-D   stress (kbar)      0.00      0.00      0.00
                                0.00      0.00      0.00
                                0.00      0.00      0.00

     XDM     stress (kbar)      0.00      0.00      0.00
                                0.00      0.00      0.00
                                0.00      0.00      0.00

     dft-nl  stress (kbar)      0.00      0.00      0.00
                                0.00      0.00      0.00
                                0.00      0.00      0.00

     TS-vdW  stress (kbar)      0.00      0.00      0.00
                                0.00      0.00      0.00
                                0.00      0.00      0.00

     MDB     stress (kbar)      0.00      0.00      0.00
                                0.00      0.00      0.00
                                0.00      0.00      0.00

     3D-RISM stress (kbar)      0.00      0.00      0.00
                                0.00      0.00      0.00
                                0.00      0.00      0.00

     Energy error            =      7.0E-05 Ry
     Gradient error          =      3.9E-03 Ry/Bohr

     number of scf cycles    =  21
     number of bfgs steps    =  19

     energy             old  =  -29711.4051970113 Ry
     energy             new  =  -29711.4052671261 Ry

     CASE: energy            _new < energy            _old

     new trust radius        =       0.0514303236 bohr
     new conv_thr            =       0.0000000515 Ry


ATOMIC_POSITIONS (angstrom)
Zn              -1.0735556040        1.0841422490        1.1977635440    0   0   0
Zn              -2.3094850350        6.1646922450        1.1977635440    0   0   0
Zn              -5.3677775260        0.0395003770        3.2510723350    0   0   0
Zn              -6.6037069570        5.1200503720        3.2510723350    0   0   0
Zn              -9.7089195560       -1.0153197644        5.5574001830    0   0   0
Zn             -10.9444612646        4.0651762061        5.5568475472    0   0   0
Zn             -13.6893239632       -1.9771446329        7.6339127518
Zn             -14.9295904737        3.1015920561        7.6481116694
Zn              -1.6915203190        3.6244172470        1.1977635440    0   0   0
Zn              -2.9274497510        8.7049672430        1.1977635440    0   0   0
Zn              -5.9857422410        2.5797753750        3.2510723350    0   0   0
Zn              -7.2216716720        7.6603253700        3.2510723350    0   0   0
Zn             -10.3264176447        1.5250682890        5.5573868096    0   0   0
Zn             -11.5628996562        6.6053331603        5.5568587833    0   0   0
Zn             -14.3159192177        0.5626376393        7.6412998841
Zn             -15.5482960552        5.6409014453        7.6401112124
Zn               4.4565957630        1.0841422490        1.1977635440    0   0   0
Zn               3.2206663320        6.1646922450        1.1977635440    0   0   0
Zn               0.1623738410        0.0395003770        3.2510723350    0   0   0
Zn              -1.0735555900        5.1200503720        3.2510723350    0   0   0
Zn              -4.1792282939       -1.0153627723        5.5588462762    0   0   0
Zn              -5.4152205082        4.0648737576        5.5585311673    0   0   0
Zn              -8.1610154700       -1.9785746392        7.6341528905
Zn              -9.4001047446        3.1042044881        7.6357263251
Zn               3.8386310480        3.6244172470        1.1977635440    0   0   0
Zn               2.6027016170        8.7049672430        1.1977635440    0   0   0
Zn              -0.4555908740        2.5797753750        3.2510723350    0   0   0
Zn              -1.6915203050        7.6603253700        3.2510723350    0   0   0
Zn              -4.7972853979        1.5244358199        5.5588288137    0   0   0
Zn              -6.0330863402        6.6056334593        5.5585535707    0   0   0
Zn              -8.7827029279        0.5597971481        7.6368658403
Zn             -10.0134112124        5.6439087793        7.6328710946
Zn               1.6915203330        0.4114908770        0.8555452480    0   0   0
Zn               0.4555909020        5.4920408730        0.8555452480    0   0   0
Zn              -2.6027015890       -0.6331509950        2.9088540390    0   0   0
Zn              -3.8386310200        4.4473990010        2.9088540390    0   0   0
Zn              -6.9469216156       -1.6917672198        5.0366214099    0   0   0
Zn              -8.1827395462        3.3890769520        5.0367887488    0   0   0
Zn             -11.0951477898       -2.6937365307        7.2992254555
Zn             -12.3362276839        2.3874578987        7.2967700039
Zn               1.0735556170        2.9517658750        0.8555452480    0   0   0
Zn              -0.1623738140        8.0323158710        0.8555452480    0   0   0
Zn              -3.2206663040        1.9071240030        2.9088540390    0   0   0
Zn              -4.4565957350        6.9876739990        2.9088540390    0   0   0
Zn              -7.5649765968        0.8484405585        5.0367436921    0   0   0
Zn              -8.8005772481        5.9294148523        5.0366560249    0   0   0
Zn             -11.7161115120       -0.1519095762        7.2971707242
Zn             -12.9546709109        4.9267008095        7.2948394126
Zn               7.2216717000        0.4114908770        0.8555452480    0   0   0
Zn               5.9857422690        5.4920408730        0.8555452480    0   0   0
Zn               2.9274497780       -0.6331509950        2.9088540390    0   0   0
Zn               1.6915203470        4.4473990010        2.9088540390    0   0   0
Zn              -1.4162111914       -1.6911008414        5.0365779004    0   0   0
Zn              -2.6518817476        3.3887563827        5.0360840250    0   0   0
Zn              -5.5596188052       -2.6896523498        7.2957612777
Zn              -6.8213594740        2.3808186550        7.2289824952
Zn               6.6037069850        2.9517658750        0.8555452480    0   0   0
Zn               5.3677775540        8.0323158710        0.8555452480    0   0   0
Zn               2.3094850630        1.9071240030        2.9088540390    0   0   0
Zn               1.0735556320        6.9876739990        2.9088540390    0   0   0
Zn              -2.0337195757        0.8489305936        5.0365785276    0   0   0
Zn              -3.2702789950        5.9292477955        5.0360658650    0   0   0
Zn              -6.1753004686       -0.1534723254        7.3033121311
Zn              -7.4139105769        4.9327238936        7.2946418799
C               -6.3011431726        2.6315838529       16.5067030238
C               -6.3969277491        2.6078466471       15.0878307201
C               -6.8153552507        3.7496052221       14.3702611481
C               -6.0844570432        1.4351548867       14.3688139682
C               -6.1702494005        1.4105126640       12.9875130140
C               -6.9046365354        3.7216371270       12.9885329134
C               -6.5719186833        2.5554720840       12.2643334647
N               -6.2114718887        2.6585383338       17.6771245055
N               -6.6200972963        2.5434787658       10.8978005545
H               -6.5022053663        1.6797061339       10.3728727652
H               -7.0156195637        3.3265782271       10.3818006913
H               -7.0747045211        4.6647035789       14.9108819254
H               -5.7707692453        0.5365286232       14.9084790410
H               -5.9316542330        0.4905400926       12.4464326760
H               -7.2336261691        4.6143012797       12.4470604399



     Writing config-only to output data dir ./tmp/Zn101_2x4x4_primitive_atoms32_14Avacumn_ABN_topsite_upright.save/ :
     XML data file
     NEW-OLD atomic charge density approx. for the potential

     Check: negative core charge=   -0.000052

     negative rho (up, down):  3.834E-02 0.000E+00

     total cpu time spent up to now is    75488.2 secs

     Self-consistent Calculation

     iteration #  1     ecut=    30.00 Ry     beta= 0.70
     Davidson diagonalization with overlap

---- Real-time Memory Report at c_bands before calling an iterative solver
           332 MiB given to the printing process from OS
             0 MiB allocation reported by mallinfo(arena+hblkhd)
        175784 MiB available memory on the node where the printing process lives
------------------
