
     Program PWSCF v.7.3.1 starts on 27Mar2025 at  1:15:14 

     This program is part of the open-source Quantum ESPRESSO suite
     for quantum simulation of materials; please cite
         "P. Giannozzi et al., J. Phys.:Condens. Matter 21 395502 (2009);
         "P. Giannozzi et al., J. Phys.:Condens. Matter 29 465901 (2017);
         "P. Giannozzi et al., J. Chem. Phys. 152 154105 (2020);
          URL http://www.quantum-espresso.org", 
     in publications or presentations arising from this work. More details at
     http://www.quantum-espresso.org/quote

     Parallel version (MPI), running on    33 processors

     MPI processes distributed on     1 nodes
     56263 MiB available memory on the printing compute node when the environment starts

     Waiting for input...
     Reading input from standard input

     Current dimensions of program PWSCF are:
     Max number of different atomic species (ntypx) = 10
     Max number of k-points (npk) =  40000
     Max angular momentum in pseudopotentials (lmaxx) =  4
     Found identity + ( -0.5000  0.0000  0.0000) symmetry
     This is a supercell, fractional translations are disabled

     R & G space division:  proc/nbgrp/npool/nimage =      33
     Subspace diagonalization in iterative solution of the eigenvalue problem:
     one sub-group per band group will be used
     custom distributed-memory algorithm (size of sub-group:  5*  5 procs)


     Parallelization info
     --------------------
     sticks:   dense  smooth     PW     G-vecs:    dense   smooth      PW
     Min         228     130     35                36393    15714    2209
     Max         230     131     36                36401    15723    2220
     Sum        7555    4303   1159              1201061   518755   73047

     Using Slab Decomposition



     bravais-lattice index     =            0
     lattice parameter (alat)  =      19.7617  a.u.
     unit-cell volume          =   15176.5939 (a.u.)^3
     number of atoms/cell      =           48
     number of atomic types    =            1
     number of electrons       =       960.00
     number of Kohn-Sham states=          576
     kinetic-energy cutoff     =      40.0000  Ry
     charge density cutoff     =     280.0000  Ry
     scf convergence threshold =      1.0E-05
     mixing beta               =       0.4000
     number of iterations used =            8  plain     mixing
     Exchange-correlation= SLA  PW   PBE  PBE
                           (   1   4   3   4   0   0   0)

     celldm(1)=  19.761696  celldm(2)=   0.000000  celldm(3)=   0.000000
     celldm(4)=   0.000000  celldm(5)=   0.000000  celldm(6)=   0.000000

     crystal axes: (cart. coord. in units of alat)
               a(1) = (   1.000000   0.000000   0.000000 )  
               a(2) = (  -0.500000   0.866025   0.000000 )  
               a(3) = (   0.000000   0.000000   2.270759 )  

     reciprocal axes: (cart. coord. in units 2 pi/alat)
               b(1) = (  1.000000  0.577350 -0.000000 )  
               b(2) = (  0.000000  1.154701  0.000000 )  
               b(3) = (  0.000000 -0.000000  0.440381 )  


     PseudoPot. # 1 for Zn read from file:
     /home/ys/qepseudo/SSSP_1.3.0_PBE_efficiency/Zn_pbe_v1.uspp.F.UPF
     MD5 check sum: df62231357ef9e81f77b2b3087fa5675
     Pseudo is Ultrasoft, Zval = 20.0
     Generated by new atomic code, or converted to UPF format
     Using radial grid of  943 points,  6 beta functions with: 
                l(1) =   0
                l(2) =   0
                l(3) =   1
                l(4) =   1
                l(5) =   2
                l(6) =   2
     Q(r) pseudized with  8 coefficients,  rinner =    1.100   1.100   1.100
                                                       1.100   1.100

     atomic species   valence    mass     pseudopotential
     Zn               20.00    65.38000     Zn( 1.00)

     No symmetry found


                                    s                        frac. trans.

      isym =  1     identity                                     

 cryst.   s( 1) = (     1          0          0      )
                  (     0          1          0      )
                  (     0          0          1      )

 cart.    s( 1) = (  1.0000000  0.0000000  0.0000000 )
                  (  0.0000000  1.0000000  0.0000000 )
                  (  0.0000000  0.0000000  1.0000000 )


   Cartesian axes

     site n.     atom                  positions (alat units)
         1        Zn     tau(   1) = (   0.0000000   0.1443375   0.1164998  )
         2        Zn     tau(   2) = (   0.5000000   0.1443375   0.1164998  )
         3        Zn     tau(   3) = (   0.0000000   0.1443375   0.5824993  )
         4        Zn     tau(   4) = (   0.5000000   0.1443375   0.5824993  )
         5        Zn     tau(   5) = (  -0.1250000   0.3608439   0.1164998  )
         6        Zn     tau(   6) = (   0.3750000   0.3608439   0.1164998  )
         7        Zn     tau(   7) = (  -0.1250000   0.3608439   0.5824993  )
         8        Zn     tau(   8) = (   0.3750000   0.3608439   0.5824993  )
         9        Zn     tau(   9) = (  -0.2500000   0.5773502   0.1164998  )
        10        Zn     tau(  10) = (   0.2500000   0.5773502   0.1164998  )
        11        Zn     tau(  11) = (  -0.2500000   0.5773502   0.5824993  )
        12        Zn     tau(  12) = (   0.2500000   0.5773502   0.5824993  )
        13        Zn     tau(  13) = (  -0.3750000   0.7938567   0.1164998  )
        14        Zn     tau(  14) = (   0.1250000   0.7938567   0.1164998  )
        15        Zn     tau(  15) = (  -0.3750000   0.7938567   0.5824993  )
        16        Zn     tau(  16) = (   0.1250000   0.7938567   0.5824993  )
        17        Zn     tau(  17) = (   0.2500000   0.1443375   0.1164998  )
        18        Zn     tau(  18) = (   0.7500000   0.1443375   0.1164998  )
        19        Zn     tau(  19) = (   0.2500000   0.1443375   0.5824993  )
        20        Zn     tau(  20) = (   0.7500000   0.1443375   0.5824993  )
        21        Zn     tau(  21) = (   0.1250000   0.3608439   0.1164998  )
        22        Zn     tau(  22) = (   0.6250000   0.3608439   0.1164998  )
        23        Zn     tau(  23) = (   0.1250000   0.3608439   0.5824993  )
        24        Zn     tau(  24) = (   0.6250000   0.3608439   0.5824993  )
        25        Zn     tau(  25) = (   0.0000000   0.5773502   0.1164998  )
        26        Zn     tau(  26) = (   0.5000000   0.5773502   0.1164998  )
        27        Zn     tau(  27) = (   0.0000000   0.5773502   0.5824993  )
        28        Zn     tau(  28) = (   0.5000000   0.5773502   0.5824993  )
        29        Zn     tau(  29) = (  -0.1250000   0.7938567   0.1164998  )
        30        Zn     tau(  30) = (   0.3750000   0.7938567   0.1164998  )
        31        Zn     tau(  31) = (  -0.1250000   0.7938567   0.5824993  )
        32        Zn     tau(  32) = (   0.3750000   0.7938567   0.5824993  )
        33        Zn     tau(  33) = (   0.1250000   0.0721688   0.3494996  )
        34        Zn     tau(  34) = (   0.6250000   0.0721688   0.3494996  )
        35        Zn     tau(  35) = (   0.0000000   0.2886752   0.3494996  )
        36        Zn     tau(  36) = (   0.5000000   0.2886752   0.3494996  )
        37        Zn     tau(  37) = (  -0.1250000   0.5051815   0.3494996  )
        38        Zn     tau(  38) = (   0.3750000   0.5051815   0.3494996  )
        39        Zn     tau(  39) = (  -0.2500000   0.7216879   0.3494996  )
        40        Zn     tau(  40) = (   0.2500000   0.7216879   0.3494996  )
        41        Zn     tau(  41) = (   0.3750000   0.0721688   0.3494996  )
        42        Zn     tau(  42) = (   0.8750000   0.0721688   0.3494996  )
        43        Zn     tau(  43) = (   0.2500000   0.2886752   0.3494996  )
        44        Zn     tau(  44) = (   0.7500000   0.2886752   0.3494996  )
        45        Zn     tau(  45) = (   0.1250000   0.5051815   0.3494996  )
        46        Zn     tau(  46) = (   0.6250000   0.5051815   0.3494996  )
        47        Zn     tau(  47) = (   0.0000000   0.7216879   0.3494996  )
        48        Zn     tau(  48) = (   0.5000000   0.7216879   0.3494996  )

   Crystallographic axes

     site n.     atom                  positions (cryst. coord.)
         1        Zn     tau(   1) = (  0.0833333  0.1666666  0.0513044  )
         2        Zn     tau(   2) = (  0.5833333  0.1666666  0.0513044  )
         3        Zn     tau(   3) = (  0.0833333  0.1666666  0.2565219  )
         4        Zn     tau(   4) = (  0.5833333  0.1666666  0.2565219  )
         5        Zn     tau(   5) = (  0.0833333  0.4166666  0.0513044  )
         6        Zn     tau(   6) = (  0.5833333  0.4166666  0.0513044  )
         7        Zn     tau(   7) = (  0.0833333  0.4166666  0.2565219  )
         8        Zn     tau(   8) = (  0.5833333  0.4166666  0.2565219  )
         9        Zn     tau(   9) = (  0.0833333  0.6666666  0.0513044  )
        10        Zn     tau(  10) = (  0.5833333  0.6666666  0.0513044  )
        11        Zn     tau(  11) = (  0.0833333  0.6666666  0.2565219  )
        12        Zn     tau(  12) = (  0.5833333  0.6666666  0.2565219  )
        13        Zn     tau(  13) = (  0.0833333  0.9166667  0.0513044  )
        14        Zn     tau(  14) = (  0.5833334  0.9166667  0.0513044  )
        15        Zn     tau(  15) = (  0.0833333  0.9166667  0.2565219  )
        16        Zn     tau(  16) = (  0.5833334  0.9166667  0.2565219  )
        17        Zn     tau(  17) = (  0.3333333  0.1666666  0.0513044  )
        18        Zn     tau(  18) = (  0.8333334  0.1666666  0.0513044  )
        19        Zn     tau(  19) = (  0.3333333  0.1666666  0.2565219  )
        20        Zn     tau(  20) = (  0.8333334  0.1666666  0.2565219  )
        21        Zn     tau(  21) = (  0.3333333  0.4166666  0.0513044  )
        22        Zn     tau(  22) = (  0.8333333  0.4166666  0.0513044  )
        23        Zn     tau(  23) = (  0.3333333  0.4166666  0.2565219  )
        24        Zn     tau(  24) = (  0.8333333  0.4166666  0.2565219  )
        25        Zn     tau(  25) = (  0.3333333  0.6666666  0.0513044  )
        26        Zn     tau(  26) = (  0.8333333  0.6666666  0.0513044  )
        27        Zn     tau(  27) = (  0.3333333  0.6666666  0.2565219  )
        28        Zn     tau(  28) = (  0.8333333  0.6666666  0.2565219  )
        29        Zn     tau(  29) = (  0.3333334  0.9166667  0.0513044  )
        30        Zn     tau(  30) = (  0.8333334  0.9166667  0.0513044  )
        31        Zn     tau(  31) = (  0.3333334  0.9166667  0.2565219  )
        32        Zn     tau(  32) = (  0.8333334  0.9166667  0.2565219  )
        33        Zn     tau(  33) = (  0.1666667  0.0833334  0.1539131  )
        34        Zn     tau(  34) = (  0.6666667  0.0833334  0.1539131  )
        35        Zn     tau(  35) = (  0.1666667  0.3333334  0.1539131  )
        36        Zn     tau(  36) = (  0.6666667  0.3333334  0.1539131  )
        37        Zn     tau(  37) = (  0.1666667  0.5833334  0.1539131  )
        38        Zn     tau(  38) = (  0.6666667  0.5833334  0.1539131  )
        39        Zn     tau(  39) = (  0.1666667  0.8333334  0.1539131  )
        40        Zn     tau(  40) = (  0.6666667  0.8333334  0.1539131  )
        41        Zn     tau(  41) = (  0.4166667  0.0833334  0.1539131  )
        42        Zn     tau(  42) = (  0.9166667  0.0833334  0.1539131  )
        43        Zn     tau(  43) = (  0.4166667  0.3333334  0.1539131  )
        44        Zn     tau(  44) = (  0.9166667  0.3333334  0.1539131  )
        45        Zn     tau(  45) = (  0.4166667  0.5833334  0.1539131  )
        46        Zn     tau(  46) = (  0.9166667  0.5833334  0.1539131  )
        47        Zn     tau(  47) = (  0.4166667  0.8333334  0.1539131  )
        48        Zn     tau(  48) = (  0.9166667  0.8333334  0.1539131  )

     number of k points=    13  Marzari-Vanderbilt smearing, width (Ry)=  0.0200
                       cart. coord. in units 2pi/alat
        k(    1) = (   0.0000000   0.0000000   0.0000000), wk =   0.0800000
        k(    2) = (   0.0000000   0.2309401   0.0000000), wk =   0.1600000
        k(    3) = (   0.0000000   0.4618802   0.0000000), wk =   0.1600000
        k(    4) = (   0.2000000   0.1154701   0.0000000), wk =   0.1600000
        k(    5) = (   0.2000000   0.3464102   0.0000000), wk =   0.1600000
        k(    6) = (   0.2000000   0.5773503   0.0000000), wk =   0.1600000
        k(    7) = (   0.2000000  -0.3464102   0.0000000), wk =   0.1600000
        k(    8) = (   0.2000000  -0.1154701   0.0000000), wk =   0.1600000
        k(    9) = (   0.4000000   0.2309401   0.0000000), wk =   0.1600000
        k(   10) = (   0.4000000   0.4618802   0.0000000), wk =   0.1600000
        k(   11) = (   0.4000000   0.6928203   0.0000000), wk =   0.1600000
        k(   12) = (   0.4000000  -0.2309401   0.0000000), wk =   0.1600000
        k(   13) = (   0.4000000   0.0000000   0.0000000), wk =   0.1600000

                       cryst. coord.
        k(    1) = (   0.0000000   0.0000000   0.0000000), wk =   0.0800000
        k(    2) = (   0.0000000   0.2000000   0.0000000), wk =   0.1600000
        k(    3) = (   0.0000000   0.4000000   0.0000000), wk =   0.1600000
        k(    4) = (   0.2000000  -0.0000000   0.0000000), wk =   0.1600000
        k(    5) = (   0.2000000   0.2000000   0.0000000), wk =   0.1600000
        k(    6) = (   0.2000000   0.4000000   0.0000000), wk =   0.1600000
        k(    7) = (   0.2000000  -0.4000000   0.0000000), wk =   0.1600000
        k(    8) = (   0.2000000  -0.2000000   0.0000000), wk =   0.1600000
        k(    9) = (   0.4000000  -0.0000000   0.0000000), wk =   0.1600000
        k(   10) = (   0.4000000   0.2000000   0.0000000), wk =   0.1600000
        k(   11) = (   0.4000000   0.4000000   0.0000000), wk =   0.1600000
        k(   12) = (   0.4000000  -0.4000000   0.0000000), wk =   0.1600000
        k(   13) = (   0.4000000  -0.2000000   0.0000000), wk =   0.1600000

     Dense  grid:  1201061 G-vectors     FFT dimensions: ( 108, 108, 240)

     Smooth grid:   518755 G-vectors     FFT dimensions: (  80,  80, 192)

     Dynamical RAM for                 wfc:      17.26 MB

     Dynamical RAM for     wfc (w. buffer):     241.66 MB

     Dynamical RAM for           str. fact:       0.56 MB

     Dynamical RAM for           local pot:       0.00 MB

     Dynamical RAM for          nlocal pot:      25.89 MB

     Dynamical RAM for                qrad:       1.34 MB

     Dynamical RAM for          rho,v,vnew:       3.80 MB

     Dynamical RAM for               rhoin:       1.27 MB

     Dynamical RAM for            rho*nmix:       8.89 MB

     Dynamical RAM for           G-vectors:       2.20 MB

     Dynamical RAM for          h,s,v(r/c):       2.42 MB

     Dynamical RAM for          <psi|beta>:       7.59 MB

     Dynamical RAM for                 psi:      34.52 MB

     Dynamical RAM for                hpsi:      34.52 MB

     Dynamical RAM for                spsi:      34.52 MB

     Dynamical RAM for      wfcinit/wfcrot:      46.32 MB

     Dynamical RAM for           addusdens:     129.95 MB

     Estimated static dynamical RAM per process >     281.40 MB

     Estimated max dynamical RAM per process >     420.24 MB

     Estimated total dynamical RAM >      13.54 GB

     Initial potential from superposition of free atoms

     starting charge     959.9932, renormalised to     960.0000

     negative rho (up, down):  4.194E-03 0.000E+00
     Starting wfcs are  624 randomized atomic wfcs

     total cpu time spent up to now is      150.8 secs

     Self-consistent Calculation

     iteration #  1     ecut=    40.00 Ry     beta= 0.40
     Davidson diagonalization with overlap

---- Real-time Memory Report at c_bands before calling an iterative solver
           349 MiB given to the printing process from OS
             0 MiB allocation reported by mallinfo(arena+hblkhd)
         46569 MiB available memory on the node where the printing process lives
------------------
     ethr =  1.00E-02,  avg # of iterations =  9.0

     Threshold (ethr) on eigenvalues was too large:
     Diagonalizing with lowered threshold

     Davidson diagonalization with overlap

---- Real-time Memory Report at c_bands before calling an iterative solver
           442 MiB given to the printing process from OS
             0 MiB allocation reported by mallinfo(arena+hblkhd)
         45429 MiB available memory on the node where the printing process lives
------------------
     ethr =  1.62E-04,  avg # of iterations = 10.9

     negative rho (up, down):  4.970E-03 0.000E+00

     total cpu time spent up to now is     2186.2 secs

     total energy              =  -22153.87060205 Ry
     estimated scf accuracy    <       1.57884380 Ry

     iteration #  2     ecut=    40.00 Ry     beta= 0.40
     Davidson diagonalization with overlap

---- Real-time Memory Report at c_bands before calling an iterative solver
           451 MiB given to the printing process from OS
             0 MiB allocation reported by mallinfo(arena+hblkhd)
         45322 MiB available memory on the node where the printing process lives
------------------
     ethr =  1.64E-04,  avg # of iterations =  2.0

     negative rho (up, down):  5.513E-03 0.000E+00

     total cpu time spent up to now is     3200.3 secs

     total energy              =  -22154.25236853 Ry
     estimated scf accuracy    <       0.28234977 Ry

     iteration #  3     ecut=    40.00 Ry     beta= 0.40
     Davidson diagonalization with overlap

---- Real-time Memory Report at c_bands before calling an iterative solver
           454 MiB given to the printing process from OS
             0 MiB allocation reported by mallinfo(arena+hblkhd)
         45303 MiB available memory on the node where the printing process lives
------------------
     c_bands:  2 eigenvalues not converged
     c_bands:  1 eigenvalues not converged
     ethr =  2.94E-05,  avg # of iterations = 10.2

     negative rho (up, down):  5.791E-03 0.000E+00

     total cpu time spent up to now is     4113.6 secs

     total energy              =  -22154.26870412 Ry
     estimated scf accuracy    <       0.05094444 Ry

     iteration #  4     ecut=    40.00 Ry     beta= 0.40
     Davidson diagonalization with overlap

---- Real-time Memory Report at c_bands before calling an iterative solver
           454 MiB given to the printing process from OS
             0 MiB allocation reported by mallinfo(arena+hblkhd)
         45286 MiB available memory on the node where the printing process lives
------------------
     c_bands:  1 eigenvalues not converged
     ethr =  5.31E-06,  avg # of iterations =  9.8

     negative rho (up, down):  5.975E-03 0.000E+00

     total cpu time spent up to now is     5066.2 secs

     total energy              =  -22154.26754345 Ry
     estimated scf accuracy    <       0.04826730 Ry

     iteration #  5     ecut=    40.00 Ry     beta= 0.40
     Davidson diagonalization with overlap

---- Real-time Memory Report at c_bands before calling an iterative solver
           455 MiB given to the printing process from OS
             0 MiB allocation reported by mallinfo(arena+hblkhd)
         45270 MiB available memory on the node where the printing process lives
------------------
     ethr =  5.03E-06,  avg # of iterations =  5.0

     negative rho (up, down):  6.016E-03 0.000E+00

     total cpu time spent up to now is     5968.3 secs

     total energy              =  -22154.27280172 Ry
     estimated scf accuracy    <       0.00220650 Ry

     iteration #  6     ecut=    40.00 Ry     beta= 0.40
     Davidson diagonalization with overlap

---- Real-time Memory Report at c_bands before calling an iterative solver
           455 MiB given to the printing process from OS
             0 MiB allocation reported by mallinfo(arena+hblkhd)
         45252 MiB available memory on the node where the printing process lives
------------------
     ethr =  2.30E-07,  avg # of iterations =  2.2

     negative rho (up, down):  6.047E-03 0.000E+00

     total cpu time spent up to now is     6948.2 secs

     total energy              =  -22154.27316389 Ry
     estimated scf accuracy    <       0.00008227 Ry

     iteration #  7     ecut=    40.00 Ry     beta= 0.40
     Davidson diagonalization with overlap

---- Real-time Memory Report at c_bands before calling an iterative solver
           456 MiB given to the printing process from OS
             0 MiB allocation reported by mallinfo(arena+hblkhd)
         45230 MiB available memory on the node where the printing process lives
------------------
     ethr =  8.57E-09,  avg # of iterations =  3.0

     negative rho (up, down):  6.069E-03 0.000E+00

     total cpu time spent up to now is     8001.6 secs

     total energy              =  -22154.27318893 Ry
     estimated scf accuracy    <       0.00023354 Ry

     iteration #  8     ecut=    40.00 Ry     beta= 0.40
     Davidson diagonalization with overlap

---- Real-time Memory Report at c_bands before calling an iterative solver
           456 MiB given to the printing process from OS
             0 MiB allocation reported by mallinfo(arena+hblkhd)
         45213 MiB available memory on the node where the printing process lives
------------------
     ethr =  8.57E-09,  avg # of iterations =  1.2

     negative rho (up, down):  6.085E-03 0.000E+00

     total cpu time spent up to now is     8652.0 secs

     total energy              =  -22154.27316665 Ry
     estimated scf accuracy    <       0.00008166 Ry

     iteration #  9     ecut=    40.00 Ry     beta= 0.40
     Davidson diagonalization with overlap

---- Real-time Memory Report at c_bands before calling an iterative solver
           457 MiB given to the printing process from OS
             0 MiB allocation reported by mallinfo(arena+hblkhd)
         45199 MiB available memory on the node where the printing process lives
------------------
     ethr =  8.51E-09,  avg # of iterations =  2.2

     negative rho (up, down):  6.096E-03 0.000E+00

     total cpu time spent up to now is     9698.8 secs

     total energy              =  -22154.27318662 Ry
     estimated scf accuracy    <       0.00001425 Ry

     iteration # 10     ecut=    40.00 Ry     beta= 0.40
     Davidson diagonalization with overlap

---- Real-time Memory Report at c_bands before calling an iterative solver
           457 MiB given to the printing process from OS
             0 MiB allocation reported by mallinfo(arena+hblkhd)
         45183 MiB available memory on the node where the printing process lives
------------------
     ethr =  1.48E-09,  avg # of iterations =  2.0

     negative rho (up, down):  6.114E-03 0.000E+00

     total cpu time spent up to now is    10740.1 secs

     End of self-consistent calculation

          k = 0.0000 0.0000 0.0000 ( 64855 PWs)   bands (ev):

  -125.1085-125.1068-125.1068-125.1067-125.1067-125.1067-125.1067-125.1051
  -125.1050-125.1050-125.1050-125.1050-125.1050-125.1049-125.1049-125.1049
  -124.9187-124.9186-124.9170-124.9170-124.9170-124.9170-124.9170-124.9170
  -124.9169-124.9169-124.9169-124.9169-124.9169-124.9169-124.9153-124.9153
  -124.9153-124.9153-124.9153-124.9152-124.9152-124.9152-124.9152-124.9152
  -124.9152-124.9152-124.9152-124.9152-124.9152-124.9151-124.9151-124.9151
   -79.2734 -79.2734 -79.2734 -79.2668 -79.2668 -79.2668 -79.2668 -79.2668
   -79.2668 -79.2587 -79.2568 -79.2568 -79.2568 -79.2567 -79.2567 -79.2567
   -79.2555 -79.2555 -79.2555 -79.2554 -79.2554 -79.2554 -79.2548 -79.2548
   -79.2548 -79.2548 -79.2548 -79.2547 -79.2547 -79.2547 -79.2547 -79.2534
   -79.2534 -79.2534 -79.2534 -79.2534 -79.2534 -79.2468 -79.2468 -79.2468
   -79.2421 -79.2421 -79.2421 -79.2421 -79.2421 -79.2421 -79.2374 -79.2374
   -79.0831 -79.0831 -79.0831 -79.0830 -79.0830 -79.0830 -79.0765 -79.0765
   -79.0764 -79.0764 -79.0764 -79.0764 -79.0763 -79.0763 -79.0763 -79.0763
   -79.0763 -79.0763 -79.0725 -79.0723 -79.0706 -79.0706 -79.0706 -79.0705
   -79.0705 -79.0705 -79.0705 -79.0705 -79.0705 -79.0704 -79.0704 -79.0704
   -79.0687 -79.0687 -79.0687 -79.0687 -79.0687 -79.0686 -79.0686 -79.0686
   -79.0686 -79.0686 -79.0686 -79.0686 -79.0686 -79.0686 -79.0686 -79.0685
   -79.0685 -79.0685 -79.0651 -79.0651 -79.0651 -79.0651 -79.0651 -79.0651
   -79.0650 -79.0650 -79.0650 -79.0650 -79.0650 -79.0650 -79.0631 -79.0631
   -79.0631 -79.0631 -79.0631 -79.0631 -79.0630 -79.0630 -79.0630 -79.0630
   -79.0630 -79.0630 -79.0565 -79.0565 -79.0565 -79.0564 -79.0564 -79.0564
   -79.0518 -79.0518 -79.0518 -79.0518 -79.0518 -79.0518 -79.0517 -79.0517
   -79.0517 -79.0517 -79.0517 -79.0517 -79.0471 -79.0471 -79.0470 -79.0470
    -8.6718  -7.4528  -7.1370  -7.1170  -7.1170  -7.1170  -7.1169  -7.1169
    -7.1169  -6.9529  -6.9529  -6.9529  -6.7767  -6.7766  -6.7766  -6.7331
    -6.7331  -6.7331  -6.6361  -6.6361  -6.6361  -6.6361  -6.6361  -6.6361
    -6.5929  -6.5929  -6.5929  -6.5929  -6.5929  -6.5929  -6.5863  -6.5863
    -6.5863  -6.5249  -6.5249  -6.5249  -6.5249  -6.5249  -6.5249  -6.4720
    -6.4720  -6.4720  -6.4720  -6.4719  -6.4719  -6.3873  -6.3873  -6.3873
    -6.3873  -6.3873  -6.3873  -6.3849  -6.3849  -6.3849  -6.3213  -6.3213
    -6.3213  -6.3213  -6.3213  -6.3213  -6.3188  -6.2623  -6.2622  -6.2622
    -6.2622  -6.2622  -6.2622  -6.2210  -6.2210  -6.2210  -6.2210  -6.2210
    -6.2210  -6.1998  -6.1998  -6.1998  -6.1998  -6.1998  -6.1998  -6.1718
    -6.1718  -6.1718  -6.1718  -6.1718  -6.1718  -6.1599  -6.1599  -6.1490
    -6.1490  -6.1490  -6.1392  -6.1392  -6.1392  -6.1392  -6.1392  -6.1392
    -6.0398  -6.0398  -6.0398  -6.0398  -6.0398  -6.0398  -5.9721  -5.9721
    -5.9539  -5.9539  -5.9197  -5.9197  -5.9197  -5.9197  -5.9197  -5.9197
    -5.9130  -5.9130  -5.9130  -5.9130  -5.9130  -5.9130  -5.8767  -5.8767
    -5.8767  -5.8347  -5.8347  -5.8347  -5.8347  -5.8347  -5.8347  -5.8302
    -5.8302  -5.8302  -5.8302  -5.8302  -5.8302  -5.8271  -5.8271  -5.8271
    -5.8271  -5.8271  -5.8271  -5.8056  -5.8056  -5.8056  -5.8056  -5.8056
    -5.8056  -5.7896  -5.7896  -5.7896  -5.7896  -5.7896  -5.7896  -5.7674
    -5.7665  -5.7665  -5.7665  -5.7664  -5.7664  -5.7664  -5.7606  -5.7606
    -5.7605  -5.7605  -5.7605  -5.7605  -5.7455  -5.7455  -5.7455  -5.6543
    -5.6543  -5.6254  -5.6254  -5.6254  -5.6254  -5.6254  -5.6254  -5.6186
    -5.6186  -5.6186  -5.6186  -5.6186  -5.6186  -5.5951  -5.5951  -5.5951
    -5.5951  -5.5951  -5.5951  -5.5827  -5.5827  -5.5827  -5.5590  -5.5590
    -5.5590  -5.5589  -5.5589  -5.5589  -5.5498  -5.5498  -5.5498  -5.5498
    -5.5498  -5.5498  -5.4984  -5.4984  -5.4984  -5.4984  -5.4984  -5.4984
    -5.4837  -5.4837  -5.4837  -5.4818  -5.4818  -5.4818  -5.4479  -5.4479
    -5.4479  -5.4420  -5.4420  -5.4420  -5.4420  -5.4420  -5.4420  -5.4366
    -5.4366  -5.4141  -5.4141  -5.3715  -5.3715  -5.3715  -5.3715  -5.3715
    -5.3715  -5.3387  -5.3387  -5.3386  -5.3386  -5.3386  -5.3386  -5.3189
    -5.3189  -5.3189  -5.1280  -5.1280  -5.1280  -5.1279  -5.1279  -5.1279
    -4.4446  -4.4446  -4.4446  -4.4445  -4.4445  -4.4445  -3.4817  -2.1523
    -2.1523  -2.1523  -2.1523  -2.1523  -2.1523  -2.0538  -2.0537  -2.0537
    -2.0537  -2.0537  -2.0537  -0.8898  -0.8898  -0.8898  -0.7415  -0.6902
    -0.6902  -0.6902  -0.6902  -0.6902  -0.6902  -0.1338  -0.1338  -0.1338
     0.1947   0.1947   0.1947   1.5013   1.5013   1.5013   1.5013   1.5013
     1.5014   1.5490   1.5490   1.5490   1.5490   1.5491   1.5491   2.2587
     2.2587   2.2587   3.0853   3.2631   3.2631   3.2631   4.1108   4.1108
     4.1108   4.8632   4.8633   4.8633   4.8633   4.8633   4.8633   5.0858
     5.2843   5.3851   5.3851   5.3852   5.3852   5.3852   5.3852   5.3934
     5.3934   5.3934   5.3934   5.3934   5.3935   5.5556   5.5556   5.5556
     5.5556   5.5556   5.5556   6.2123   6.4096   6.5332   6.5332   6.5332
     6.8829   6.8829   6.8829   6.8829   6.8829   6.8829   6.9589   6.9589
     6.9589   6.9589   6.9589   6.9589   7.1203   7.1203   7.1203   7.1203
     7.1203   7.1203   7.1422   7.1422   7.1422   7.1422   7.1422   7.1422
     8.0507   8.0507   8.0507   8.0507   8.0507   8.0507   8.1233   8.1233
     8.1233   8.1233   8.1233   8.1233   8.1964   8.1964   8.1964   8.1964
     8.1964   8.1964   8.2186   8.3399   8.3399   8.3399   8.3693   9.2347

     occupation numbers 
     1.0000   1.0000   1.0000   1.0000   1.0000   1.0000   1.0000   1.0000
     1.0000   1.0000   1.0000   1.0000   1.0000   1.0000   1.0000   1.0000
     1.0000   1.0000   1.0000   1.0000   1.0000   1.0000   1.0000   1.0000
     1.0000   1.0000   1.0000   1.0000   1.0000   1.0000   1.0000   1.0000
     1.0000   1.0000   1.0000   1.0000   1.0000   1.0000   1.0000   1.0000
     1.0000   1.0000   1.0000   1.0000   1.0000   1.0000   1.0000   1.0000
     1.0000   1.0000   1.0000   1.0000   1.0000   1.0000   1.0000   1.0000
     1.0000   1.0000   1.0000   1.0000   1.0000   1.0000   1.0000   1.0000
     1.0000   1.0000   1.0000   1.0000   1.0000   1.0000   1.0000   1.0000
     1.0000   1.0000   1.0000   1.0000   1.0000   1.0000   1.0000   1.0000
     1.0000   1.0000   1.0000   1.0000   1.0000   1.0000   1.0000   1.0000
     1.0000   1.0000   1.0000   1.0000   1.0000   1.0000   1.0000   1.0000
     1.0000   1.0000   1.0000   1.0000   1.0000   1.0000   1.0000   1.0000
     1.0000   1.0000   1.0000   1.0000   1.0000   1.0000   1.0000   1.0000
     1.0000   1.0000   1.0000   1.0000   1.0000   1.0000   1.0000   1.0000
     1.0000   1.0000   1.0000   1.0000   1.0000   1.0000   1.0000   1.0000
     1.0000   1.0000   1.0000   1.0000   1.0000   1.0000   1.0000   1.0000
     1.0000   1.0000   1.0000   1.0000   1.0000   1.0000   1.0000   1.0000
     1.0000   1.0000   1.0000   1.0000   1.0000   1.0000   1.0000   1.0000
     1.0000   1.0000   1.0000   1.0000   1.0000   1.0000   1.0000   1.0000
     1.0000   1.0000   1.0000   1.0000   1.0000   1.0000   1.0000   1.0000
     1.0000   1.0000   1.0000   1.0000   1.0000   1.0000   1.0000   1.0000
     1.0000   1.0000   1.0000   1.0000   1.0000   1.0000   1.0000   1.0000
     1.0000   1.0000   1.0000   1.0000   1.0000   1.0000   1.0000   1.0000
     1.0000   1.0000   1.0000   1.0000   1.0000   1.0000   1.0000   1.0000
     1.0000   1.0000   1.0000   1.0000   1.0000   1.0000   1.0000   1.0000
     1.0000   1.0000   1.0000   1.0000   1.0000   1.0000   1.0000   1.0000
     1.0000   1.0000   1.0000   1.0000   1.0000   1.0000   1.0000   1.0000
     1.0000   1.0000   1.0000   1.0000   1.0000   1.0000   1.0000   1.0000
     1.0000   1.0000   1.0000   1.0000   1.0000   1.0000   1.0000   1.0000
     1.0000   1.0000   1.0000   1.0000   1.0000   1.0000   1.0000   1.0000
     1.0000   1.0000   1.0000   1.0000   1.0000   1.0000   1.0000   1.0000
     1.0000   1.0000   1.0000   1.0000   1.0000   1.0000   1.0000   1.0000
     1.0000   1.0000   1.0000   1.0000   1.0000   1.0000   1.0000   1.0000
     1.0000   1.0000   1.0000   1.0000   1.0000   1.0000   1.0000   1.0000
     1.0000   1.0000   1.0000   1.0000   1.0000   1.0000   1.0000   1.0000
     1.0000   1.0000   1.0000   1.0000   1.0000   1.0000   1.0000   1.0000
     1.0000   1.0000   1.0000   1.0000   1.0000   1.0000   1.0000   1.0000
     1.0000   1.0000   1.0000   1.0000   1.0000   1.0000   1.0000   1.0000
     1.0000   1.0000   1.0000   1.0000   1.0000   1.0000   1.0000   1.0000
     1.0000   1.0000   1.0000   1.0000   1.0000   1.0000   1.0000   1.0000
     1.0000   1.0000   1.0000   1.0000   1.0000   1.0000   1.0000   1.0000
     1.0000   1.0000   1.0000   1.0000   1.0000   1.0000   1.0000   1.0000
     1.0000   1.0000   1.0000   1.0000   1.0000   1.0000   1.0000   1.0000
     1.0000   1.0000   1.0000   1.0000   1.0000   1.0000   1.0000   1.0000
     1.0000   1.0000   1.0000   1.0000   1.0000   1.0000   1.0000   1.0000
     1.0000   1.0000   1.0000   1.0000   1.0000   1.0000   1.0000   1.0000
     1.0000   1.0000   1.0000   1.0000   1.0000   1.0000   1.0000   1.0000
     1.0000   1.0000   1.0000   1.0000   1.0000   1.0000   1.0000   1.0000
     1.0000   1.0000   1.0000   1.0000   1.0000   1.0000   1.0000   1.0000
     1.0000   1.0000   1.0000   1.0000   1.0000   1.0000   1.0000   1.0000
     1.0000   1.0000   1.0000   1.0000   1.0000   1.0000   1.0000   1.0000
     1.0000   1.0000   1.0000   1.0000   1.0000   1.0000   1.0000   1.0000
     1.0000   1.0000   1.0000   1.0000   1.0000   1.0000   1.0000   1.0000
     1.0000   1.0000   1.0000   1.0000   1.0000   1.0000   1.0000   1.0000
     1.0000   1.0000   1.0000   1.0000   1.0000   1.0000   1.0000   1.0000
     1.0000   1.0000   1.0000   1.0000   1.0000   1.0000   1.0000   1.0000
     1.0000   1.0000   1.0000   1.0000   1.0000   1.0000   1.0000   1.0000
     1.0000   1.0000   1.0000   1.0000   1.0000   1.0000   1.0000   1.0000
     1.0000   1.0000   1.0000   0.5637   0.5637   0.5637   0.5637   0.5637
     0.5637   0.4352   0.4351   0.4351   0.4351   0.4351   0.4350   0.0000
     0.0000   0.0000   0.0000   0.0000   0.0000   0.0000   0.0000   0.0000
     0.0000   0.0000   0.0000   0.0000   0.0000   0.0000   0.0000   0.0000
     0.0000   0.0000   0.0000   0.0000   0.0000   0.0000   0.0000   0.0000
     0.0000   0.0000   0.0000   0.0000   0.0000   0.0000   0.0000   0.0000
     0.0000   0.0000   0.0000   0.0000   0.0000   0.0000   0.0000   0.0000
     0.0000   0.0000   0.0000   0.0000   0.0000   0.0000   0.0000   0.0000
     0.0000   0.0000   0.0000   0.0000   0.0000   0.0000   0.0000   0.0000
     0.0000   0.0000   0.0000   0.0000   0.0000   0.0000   0.0000   0.0000
     0.0000   0.0000   0.0000   0.0000   0.0000   0.0000   0.0000   0.0000
     0.0000   0.0000   0.0000   0.0000   0.0000   0.0000   0.0000   0.0000
     0.0000   0.0000   0.0000   0.0000   0.0000   0.0000   0.0000   0.0000

          k = 0.0000 0.2309 0.0000 ( 64811 PWs)   bands (ev):

  -125.1084-125.1073-125.1070-125.1070-125.1064-125.1064-125.1062-125.1053
  -125.1053-125.1051-125.1050-125.1050-125.1050-125.1050-125.1048-125.1047
  -124.9187-124.9186-124.9175-124.9174-124.9172-124.9172-124.9171-124.9171
  -124.9167-124.9167-124.9166-124.9166-124.9165-124.9164-124.9156-124.9156
  -124.9155-124.9155-124.9153-124.9153-124.9153-124.9153-124.9153-124.9152
  -124.9152-124.9152-124.9152-124.9152-124.9150-124.9150-124.9149-124.9149
   -79.2730 -79.2730 -79.2726 -79.2677 -79.2677 -79.2672 -79.2672 -79.2657
   -79.2657 -79.2610 -79.2586 -79.2584 -79.2584 -79.2574 -79.2570 -79.2570
   -79.2564 -79.2564 -79.2561 -79.2560 -79.2560 -79.2551 -79.2551 -79.2549
   -79.2548 -79.2548 -79.2548 -79.2547 -79.2545 -79.2545 -79.2529 -79.2529
   -79.2525 -79.2525 -79.2505 -79.2505 -79.2499 -79.2473 -79.2473 -79.2466
   -79.2435 -79.2432 -79.2432 -79.2417 -79.2417 -79.2406 -79.2383 -79.2376
   -79.0826 -79.0826 -79.0825 -79.0825 -79.0822 -79.0821 -79.0773 -79.0773
   -79.0772 -79.0772 -79.0768 -79.0768 -79.0767 -79.0767 -79.0753 -79.0753
   -79.0752 -79.0752 -79.0724 -79.0722 -79.0712 -79.0710 -79.0708 -79.0708
   -79.0707 -79.0707 -79.0707 -79.0706 -79.0702 -79.0702 -79.0701 -79.0701
   -79.0699 -79.0699 -79.0690 -79.0690 -79.0689 -79.0689 -79.0687 -79.0687
   -79.0687 -79.0686 -79.0686 -79.0686 -79.0686 -79.0686 -79.0686 -79.0686
   -79.0684 -79.0684 -79.0683 -79.0683 -79.0681 -79.0681 -79.0680 -79.0680
   -79.0656 -79.0656 -79.0655 -79.0655 -79.0626 -79.0626 -79.0625 -79.0625
   -79.0622 -79.0622 -79.0621 -79.0621 -79.0602 -79.0602 -79.0601 -79.0601
   -79.0595 -79.0594 -79.0570 -79.0570 -79.0569 -79.0569 -79.0563 -79.0562
   -79.0532 -79.0531 -79.0529 -79.0529 -79.0528 -79.0528 -79.0514 -79.0514
   -79.0513 -79.0513 -79.0503 -79.0502 -79.0480 -79.0479 -79.0473 -79.0472
    -8.5957  -7.5507  -7.3885  -7.2691  -7.2691  -7.0966  -6.9424  -6.9365
    -6.9365  -6.9257  -6.9257  -6.9077  -6.7646  -6.7543  -6.7543  -6.7231
    -6.7075  -6.7075  -6.6923  -6.6915  -6.6379  -6.6287  -6.6287  -6.6187
    -6.6098  -6.6098  -6.5867  -6.5867  -6.5738  -6.5716  -6.5716  -6.5694
    -6.5694  -6.5688  -6.5688  -6.5513  -6.5513  -6.5322  -6.5322  -6.5215
    -6.5215  -6.5105  -6.5105  -6.4626  -6.4626  -6.4277  -6.4277  -6.4210
    -6.4210  -6.4055  -6.3776  -6.3746  -6.3746  -6.3707  -6.3707  -6.3592
    -6.3592  -6.3117  -6.2949  -6.2895  -6.2895  -6.2783  -6.2783  -6.2732
    -6.2732  -6.2567  -6.2503  -6.2503  -6.2497  -6.2497  -6.2467  -6.2467
    -6.2326  -6.2326  -6.2310  -6.2310  -6.2274  -6.2271  -6.2232  -6.2232
    -6.1819  -6.1819  -6.1705  -6.1705  -6.1703  -6.1549  -6.1549  -6.1442
    -6.1442  -6.1412  -6.1366  -6.1261  -6.1261  -6.0938  -6.0938  -6.0848
    -6.0848  -6.0095  -6.0095  -5.9985  -5.9985  -5.9892  -5.9871  -5.9867
    -5.9867  -5.9730  -5.9705  -5.9687  -5.9638  -5.9552  -5.9552  -5.9545
    -5.9492  -5.9492  -5.9386  -5.9386  -5.9353  -5.9201  -5.9201  -5.8935
    -5.8935  -5.8900  -5.8861  -5.8861  -5.8721  -5.8494  -5.8494  -5.8421
    -5.8421  -5.8386  -5.8386  -5.8359  -5.8201  -5.8201  -5.8186  -5.8186
    -5.8138  -5.7963  -5.7963  -5.7930  -5.7930  -5.7823  -5.7779  -5.7779
    -5.7739  -5.7739  -5.7603  -5.7603  -5.7569  -5.7569  -5.7565  -5.7554
    -5.7554  -5.7541  -5.7532  -5.7532  -5.7287  -5.7287  -5.7252  -5.7252
    -5.7109  -5.7082  -5.7082  -5.6939  -5.6909  -5.6909  -5.6839  -5.6622
    -5.6622  -5.6587  -5.6528  -5.6528  -5.6487  -5.6464  -5.6240  -5.6157
    -5.6157  -5.6115  -5.6115  -5.6073  -5.6073  -5.6021  -5.6018  -5.6018
    -5.5927  -5.5927  -5.5833  -5.5833  -5.5803  -5.5799  -5.5799  -5.5733
    -5.5733  -5.5501  -5.5501  -5.5111  -5.5085  -5.5085  -5.5002  -5.4958
    -5.4958  -5.4958  -5.4958  -5.4927  -5.4927  -5.4841  -5.4841  -5.4819
    -5.4810  -5.4665  -5.4621  -5.4566  -5.4505  -5.4505  -5.4472  -5.4472
    -5.4472  -5.4471  -5.4399  -5.4338  -5.4287  -5.4154  -5.4144  -5.4138
    -5.4085  -5.4085  -5.3794  -5.3794  -5.3669  -5.3669  -5.3544  -5.3544
    -5.3458  -5.3458  -5.3400  -5.3354  -5.3354  -5.3344  -5.3344  -5.2991
    -5.2991  -5.1679  -5.1658  -5.1658  -5.1620  -5.1620  -5.1500  -5.1495
    -4.9094  -4.6542  -4.6542  -4.0570  -4.0570  -3.7404  -3.4275  -3.2046
    -3.2046  -2.5948  -2.2951  -2.2951  -2.0999  -2.0999  -1.9474  -1.7734
    -1.7734  -1.6693  -1.6693  -1.3519  -1.2273  -1.2273  -0.9459  -0.9459
    -0.6395  -0.6395  -0.6388  -0.5556   0.0422   0.0422   0.3322   0.3322
     0.4699   0.4699   0.5271   0.5271   0.7392   0.7749   1.2108   1.2108
     1.5172   1.5172   2.0464   2.0464   2.4470   2.5493   2.5493   2.5730
     2.5730   2.6055   2.9952   2.9952   3.1389   3.1570   3.8528   3.8528
     4.1513   4.1513   4.2289   4.3914   4.3914   4.5735   4.5735   4.5838
     4.5838   5.1580   5.1590   5.1590   5.1898   5.1898   5.2316   5.2808
     5.2808   5.2816   5.2816   5.3579   5.6073   5.8074   5.8729   5.8729
     5.9139   5.9139   6.2392   6.2866   6.3600   6.3600   6.4605   6.4727
     6.4727   6.4816   6.5983   6.5983   6.8274   6.8274   6.9062   6.9062
     6.9542   6.9542   7.1351   7.2208   7.2208   7.3060   7.3060   7.3656
     7.3656   7.3956   7.4788   7.4788   7.5341   7.5341   7.5572   7.5572
     7.5588   7.5931   7.5931   7.6251   7.7625   7.7625   7.9157   7.9157
     7.9308   8.1856   8.1856   8.2925   8.4408   8.5300   8.5300   8.5338
     8.5338   8.5957   8.6031   8.6032   8.6486   8.6486   8.7991   8.7991

     occupation numbers 
     1.0000   1.0000   1.0000   1.0000   1.0000   1.0000   1.0000   1.0000
     1.0000   1.0000   1.0000   1.0000   1.0000   1.0000   1.0000   1.0000
     1.0000   1.0000   1.0000   1.0000   1.0000   1.0000   1.0000   1.0000
     1.0000   1.0000   1.0000   1.0000   1.0000   1.0000   1.0000   1.0000
     1.0000   1.0000   1.0000   1.0000   1.0000   1.0000   1.0000   1.0000
     1.0000   1.0000   1.0000   1.0000   1.0000   1.0000   1.0000   1.0000
     1.0000   1.0000   1.0000   1.0000   1.0000   1.0000   1.0000   1.0000
     1.0000   1.0000   1.0000   1.0000   1.0000   1.0000   1.0000   1.0000
     1.0000   1.0000   1.0000   1.0000   1.0000   1.0000   1.0000   1.0000
     1.0000   1.0000   1.0000   1.0000   1.0000   1.0000   1.0000   1.0000
     1.0000   1.0000   1.0000   1.0000   1.0000   1.0000   1.0000   1.0000
     1.0000   1.0000   1.0000   1.0000   1.0000   1.0000   1.0000   1.0000
     1.0000   1.0000   1.0000   1.0000   1.0000   1.0000   1.0000   1.0000
     1.0000   1.0000   1.0000   1.0000   1.0000   1.0000   1.0000   1.0000
     1.0000   1.0000   1.0000   1.0000   1.0000   1.0000   1.0000   1.0000
     1.0000   1.0000   1.0000   1.0000   1.0000   1.0000   1.0000   1.0000
     1.0000   1.0000   1.0000   1.0000   1.0000   1.0000   1.0000   1.0000
     1.0000   1.0000   1.0000   1.0000   1.0000   1.0000   1.0000   1.0000
     1.0000   1.0000   1.0000   1.0000   1.0000   1.0000   1.0000   1.0000
     1.0000   1.0000   1.0000   1.0000   1.0000   1.0000   1.0000   1.0000
     1.0000   1.0000   1.0000   1.0000   1.0000   1.0000   1.0000   1.0000
     1.0000   1.0000   1.0000   1.0000   1.0000   1.0000   1.0000   1.0000
     1.0000   1.0000   1.0000   1.0000   1.0000   1.0000   1.0000   1.0000
     1.0000   1.0000   1.0000   1.0000   1.0000   1.0000   1.0000   1.0000
     1.0000   1.0000   1.0000   1.0000   1.0000   1.0000   1.0000   1.0000
     1.0000   1.0000   1.0000   1.0000   1.0000   1.0000   1.0000   1.0000
     1.0000   1.0000   1.0000   1.0000   1.0000   1.0000   1.0000   1.0000
     1.0000   1.0000   1.0000   1.0000   1.0000   1.0000   1.0000   1.0000
     1.0000   1.0000   1.0000   1.0000   1.0000   1.0000   1.0000   1.0000
     1.0000   1.0000   1.0000   1.0000   1.0000   1.0000   1.0000   1.0000
     1.0000   1.0000   1.0000   1.0000   1.0000   1.0000   1.0000   1.0000
     1.0000   1.0000   1.0000   1.0000   1.0000   1.0000   1.0000   1.0000
     1.0000   1.0000   1.0000   1.0000   1.0000   1.0000   1.0000   1.0000
     1.0000   1.0000   1.0000   1.0000   1.0000   1.0000   1.0000   1.0000
     1.0000   1.0000   1.0000   1.0000   1.0000   1.0000   1.0000   1.0000
     1.0000   1.0000   1.0000   1.0000   1.0000   1.0000   1.0000   1.0000
     1.0000   1.0000   1.0000   1.0000   1.0000   1.0000   1.0000   1.0000
     1.0000   1.0000   1.0000   1.0000   1.0000   1.0000   1.0000   1.0000
     1.0000   1.0000   1.0000   1.0000   1.0000   1.0000   1.0000   1.0000
     1.0000   1.0000   1.0000   1.0000   1.0000   1.0000   1.0000   1.0000
     1.0000   1.0000   1.0000   1.0000   1.0000   1.0000   1.0000   1.0000
     1.0000   1.0000   1.0000   1.0000   1.0000   1.0000   1.0000   1.0000
     1.0000   1.0000   1.0000   1.0000   1.0000   1.0000   1.0000   1.0000
     1.0000   1.0000   1.0000   1.0000   1.0000   1.0000   1.0000   1.0000
     1.0000   1.0000   1.0000   1.0000   1.0000   1.0000   1.0000   1.0000
     1.0000   1.0000   1.0000   1.0000   1.0000   1.0000   1.0000   1.0000
     1.0000   1.0000   1.0000   1.0000   1.0000   1.0000   1.0000   1.0000
     1.0000   1.0000   1.0000   1.0000   1.0000   1.0000   1.0000   1.0000
     1.0000   1.0000   1.0000   1.0000   1.0000   1.0000   1.0000   1.0000
     1.0000   1.0000   1.0000   1.0000   1.0000   1.0000   1.0000   1.0000
     1.0000   1.0000   1.0000   1.0000   1.0000   1.0000   1.0000   1.0000
     1.0000   1.0000   1.0000   1.0000   1.0000   1.0000   1.0000   1.0000
     1.0000   1.0000   1.0000   1.0000   1.0000   1.0000   1.0000   1.0000
     1.0000   1.0000   1.0000   1.0000   1.0000   1.0000   1.0000   1.0000
     1.0000   1.0000   1.0000   1.0000   1.0000   1.0000   1.0000   1.0000
     1.0000   1.0000   1.0000   1.0000   1.0000   1.0000   1.0000   1.0000
     1.0000   1.0000   1.0000   1.0000   1.0000   1.0000   1.0000   1.0000
     1.0000   1.0000   1.0000   1.0000   1.0000   1.0000   1.0000   1.0000
     1.0000   1.0000   1.0000   1.0000   1.0000   1.0000   1.0000   1.0000
     1.0000   1.0000   1.0000   1.0000   1.0013   1.0023   1.0793   1.0793
     0.5203   0.5203   0.0010   0.0010   0.0000   0.0000   0.0000   0.0000
     0.0000   0.0000   0.0000   0.0000   0.0000   0.0000   0.0000   0.0000
     0.0000   0.0000   0.0000   0.0000   0.0000   0.0000   0.0000   0.0000
     0.0000   0.0000   0.0000   0.0000   0.0000   0.0000   0.0000   0.0000
     0.0000   0.0000   0.0000   0.0000   0.0000   0.0000   0.0000   0.0000
     0.0000   0.0000   0.0000   0.0000   0.0000   0.0000   0.0000   0.0000
     0.0000   0.0000   0.0000   0.0000   0.0000   0.0000   0.0000   0.0000
     0.0000   0.0000   0.0000   0.0000   0.0000   0.0000   0.0000   0.0000
     0.0000   0.0000   0.0000   0.0000   0.0000   0.0000   0.0000   0.0000
     0.0000   0.0000   0.0000   0.0000   0.0000   0.0000   0.0000   0.0000
     0.0000   0.0000   0.0000   0.0000   0.0000   0.0000   0.0000   0.0000
     0.0000   0.0000   0.0000   0.0000   0.0000   0.0000   0.0000   0.0000

          k = 0.0000 0.4619 0.0000 ( 64836 PWs)   bands (ev):

  -125.1081-125.1078-125.1071-125.1071-125.1061-125.1061-125.1057-125.1057
  -125.1057-125.1053-125.1050-125.1050-125.1050-125.1050-125.1046-125.1046
  -124.9184-124.9183-124.9180-124.9179-124.9173-124.9173-124.9173-124.9173
  -124.9163-124.9163-124.9162-124.9162-124.9160-124.9159-124.9159-124.9159
  -124.9159-124.9158-124.9156-124.9155-124.9153-124.9153-124.9153-124.9152
  -124.9152-124.9152-124.9152-124.9152-124.9149-124.9149-124.9148-124.9148
   -79.2716 -79.2716 -79.2700 -79.2696 -79.2696 -79.2672 -79.2672 -79.2660
   -79.2638 -79.2638 -79.2613 -79.2613 -79.2584 -79.2579 -79.2575 -79.2575
   -79.2571 -79.2571 -79.2560 -79.2560 -79.2556 -79.2555 -79.2555 -79.2551
   -79.2548 -79.2548 -79.2548 -79.2547 -79.2544 -79.2544 -79.2513 -79.2513
   -79.2506 -79.2506 -79.2487 -79.2487 -79.2476 -79.2476 -79.2459 -79.2451
   -79.2451 -79.2449 -79.2448 -79.2417 -79.2416 -79.2408 -79.2393 -79.2383
   -79.0812 -79.0812 -79.0811 -79.0811 -79.0797 -79.0795 -79.0793 -79.0793
   -79.0792 -79.0792 -79.0768 -79.0768 -79.0767 -79.0767 -79.0757 -79.0756
   -79.0735 -79.0735 -79.0734 -79.0734 -79.0721 -79.0719 -79.0717 -79.0715
   -79.0710 -79.0710 -79.0709 -79.0709 -79.0709 -79.0709 -79.0708 -79.0708
   -79.0698 -79.0698 -79.0697 -79.0697 -79.0694 -79.0694 -79.0694 -79.0694
   -79.0693 -79.0693 -79.0690 -79.0689 -79.0687 -79.0686 -79.0686 -79.0686
   -79.0686 -79.0686 -79.0686 -79.0686 -79.0683 -79.0683 -79.0682 -79.0682
   -79.0672 -79.0672 -79.0671 -79.0671 -79.0610 -79.0610 -79.0609 -79.0609
   -79.0603 -79.0603 -79.0602 -79.0602 -79.0583 -79.0583 -79.0582 -79.0582
   -79.0573 -79.0573 -79.0572 -79.0572 -79.0556 -79.0555 -79.0548 -79.0548
   -79.0547 -79.0547 -79.0546 -79.0545 -79.0545 -79.0544 -79.0514 -79.0514
   -79.0513 -79.0513 -79.0505 -79.0504 -79.0490 -79.0489 -79.0480 -79.0479
    -8.3705  -8.0091  -7.3558  -7.3558  -7.2051  -6.9842  -6.9402  -6.9150
    -6.8862  -6.8462  -6.8462  -6.8296  -6.7645  -6.7645  -6.7297  -6.7208
    -6.7208  -6.6962  -6.6938  -6.6938  -6.6769  -6.6624  -6.6342  -6.6342
    -6.6225  -6.6225  -6.6164  -6.6164  -6.6042  -6.6042  -6.5635  -6.5635
    -6.5516  -6.5516  -6.5428  -6.5428  -6.5371  -6.5332  -6.5332  -6.5280
    -6.5280  -6.5166  -6.5166  -6.4978  -6.4978  -6.4793  -6.4791  -6.4791
    -6.4653  -6.4653  -6.4212  -6.4212  -6.3643  -6.3643  -6.3638  -6.3638
    -6.3570  -6.3444  -6.3444  -6.3276  -6.3274  -6.3274  -6.3168  -6.3168
    -6.2958  -6.2958  -6.2935  -6.2770  -6.2754  -6.2754  -6.2672  -6.2672
    -6.2523  -6.2523  -6.2491  -6.2491  -6.2187  -6.2023  -6.2023  -6.1962
    -6.1665  -6.1665  -6.1571  -6.1571  -6.1357  -6.1357  -6.1349  -6.1349
    -6.1245  -6.1072  -6.1072  -6.1003  -6.0980  -6.0980  -6.0864  -6.0820
    -6.0820  -6.0705  -6.0705  -6.0663  -6.0663  -6.0429  -6.0360  -6.0094
    -6.0094  -6.0088  -6.0002  -5.9945  -5.9945  -5.9929  -5.9886  -5.9547
    -5.9547  -5.9314  -5.9237  -5.9237  -5.9079  -5.9079  -5.9041  -5.8807
    -5.8732  -5.8732  -5.8716  -5.8716  -5.8590  -5.8554  -5.8554  -5.8523
    -5.8446  -5.8446  -5.8386  -5.8339  -5.8339  -5.8321  -5.8311  -5.8311
    -5.8168  -5.8168  -5.8068  -5.8068  -5.7953  -5.7953  -5.7945  -5.7906
    -5.7906  -5.7904  -5.7904  -5.7899  -5.7324  -5.7324  -5.7305  -5.7305
    -5.7208  -5.7208  -5.7014  -5.7014  -5.6918  -5.6918  -5.6872  -5.6872
    -5.6797  -5.6753  -5.6753  -5.6700  -5.6633  -5.6508  -5.6508  -5.6326
    -5.6246  -5.6246  -5.5985  -5.5985  -5.5946  -5.5946  -5.5937  -5.5816
    -5.5793  -5.5793  -5.5779  -5.5779  -5.5774  -5.5746  -5.5734  -5.5656
    -5.5656  -5.5537  -5.5535  -5.5535  -5.5531  -5.5531  -5.5464  -5.5464
    -5.5370  -5.5370  -5.5348  -5.5348  -5.5311  -5.5311  -5.5279  -5.5279
    -5.5086  -5.5056  -5.4952  -5.4952  -5.4921  -5.4921  -5.4788  -5.4768
    -5.4712  -5.4712  -5.4695  -5.4635  -5.4609  -5.4609  -5.4532  -5.4532
    -5.4492  -5.4480  -5.4479  -5.4420  -5.4420  -5.4255  -5.4192  -5.4111
    -5.4111  -5.3995  -5.3995  -5.3994  -5.3752  -5.3752  -5.3627  -5.3627
    -5.3514  -5.3418  -5.3418  -5.3134  -5.3134  -5.3098  -5.3055  -5.2609
    -5.2609  -5.2468  -5.2468  -5.2132  -5.2114  -5.1872  -4.7955  -4.7955
    -4.7392  -4.7392  -4.3045  -4.0905  -4.0905  -3.4726  -3.4726  -3.2653
    -3.2014  -2.9919  -2.8174  -2.7054  -2.7054  -2.4106  -2.4106  -1.9355
    -1.9355  -1.7259  -1.6438  -1.6438  -1.1249  -1.1249  -0.4932  -0.4877
    -0.4877  -0.4113  -0.4113  -0.3387  -0.2433  -0.2433   0.1396   0.3938
     0.3938   0.4427   1.0395   1.0395   1.0517   1.0517   1.4754   1.4754
     1.8002   1.8002   1.8788   1.8788   2.6933   2.6933   2.7759   2.7759
     3.1384   3.1384   3.3355   3.3355   3.3722   3.3908   3.4483   3.4793
     3.4793   3.6771   3.6771   3.7300   4.2087   4.2087   4.3385   4.3393
     4.3393   4.4440   4.4440   4.9727   4.9727   5.0594   5.0997   5.3746
     5.4454   5.4454   5.5786   5.7353   5.7859   5.7859   5.8277   5.8277
     5.8627   5.8627   5.9463   6.0428   6.0428   6.3492   6.3492   6.4556
     6.4556   6.4894   6.4894   6.5093   6.5232   6.5232   6.5282   6.6414
     6.6736   6.6809   6.6809   6.6975   6.7509   6.7509   6.8795   7.0569
     7.3317   7.3317   7.6168   7.6168   7.7743   7.7743   7.7757   7.7757
     7.8451   7.8451   8.0029   8.0029   8.0492   8.1503   8.1504   8.5141
     8.5478   8.5478   8.6551   8.6658   8.7154   8.7154   8.7166   8.7166
     8.8078   8.8078   8.8306   8.8759   8.8762   8.9142   8.9142   9.0623

     occupation numbers 
     1.0000   1.0000   1.0000   1.0000   1.0000   1.0000   1.0000   1.0000
     1.0000   1.0000   1.0000   1.0000   1.0000   1.0000   1.0000   1.0000
     1.0000   1.0000   1.0000   1.0000   1.0000   1.0000   1.0000   1.0000
     1.0000   1.0000   1.0000   1.0000   1.0000   1.0000   1.0000   1.0000
     1.0000   1.0000   1.0000   1.0000   1.0000   1.0000   1.0000   1.0000
     1.0000   1.0000   1.0000   1.0000   1.0000   1.0000   1.0000   1.0000
     1.0000   1.0000   1.0000   1.0000   1.0000   1.0000   1.0000   1.0000
     1.0000   1.0000   1.0000   1.0000   1.0000   1.0000   1.0000   1.0000
     1.0000   1.0000   1.0000   1.0000   1.0000   1.0000   1.0000   1.0000
     1.0000   1.0000   1.0000   1.0000   1.0000   1.0000   1.0000   1.0000
     1.0000   1.0000   1.0000   1.0000   1.0000   1.0000   1.0000   1.0000
     1.0000   1.0000   1.0000   1.0000   1.0000   1.0000   1.0000   1.0000
     1.0000   1.0000   1.0000   1.0000   1.0000   1.0000   1.0000   1.0000
     1.0000   1.0000   1.0000   1.0000   1.0000   1.0000   1.0000   1.0000
     1.0000   1.0000   1.0000   1.0000   1.0000   1.0000   1.0000   1.0000
     1.0000   1.0000   1.0000   1.0000   1.0000   1.0000   1.0000   1.0000
     1.0000   1.0000   1.0000   1.0000   1.0000   1.0000   1.0000   1.0000
     1.0000   1.0000   1.0000   1.0000   1.0000   1.0000   1.0000   1.0000
     1.0000   1.0000   1.0000   1.0000   1.0000   1.0000   1.0000   1.0000
     1.0000   1.0000   1.0000   1.0000   1.0000   1.0000   1.0000   1.0000
     1.0000   1.0000   1.0000   1.0000   1.0000   1.0000   1.0000   1.0000
     1.0000   1.0000   1.0000   1.0000   1.0000   1.0000   1.0000   1.0000
     1.0000   1.0000   1.0000   1.0000   1.0000   1.0000   1.0000   1.0000
     1.0000   1.0000   1.0000   1.0000   1.0000   1.0000   1.0000   1.0000
     1.0000   1.0000   1.0000   1.0000   1.0000   1.0000   1.0000   1.0000
     1.0000   1.0000   1.0000   1.0000   1.0000   1.0000   1.0000   1.0000
     1.0000   1.0000   1.0000   1.0000   1.0000   1.0000   1.0000   1.0000
     1.0000   1.0000   1.0000   1.0000   1.0000   1.0000   1.0000   1.0000
     1.0000   1.0000   1.0000   1.0000   1.0000   1.0000   1.0000   1.0000
     1.0000   1.0000   1.0000   1.0000   1.0000   1.0000   1.0000   1.0000
     1.0000   1.0000   1.0000   1.0000   1.0000   1.0000   1.0000   1.0000
     1.0000   1.0000   1.0000   1.0000   1.0000   1.0000   1.0000   1.0000
     1.0000   1.0000   1.0000   1.0000   1.0000   1.0000   1.0000   1.0000
     1.0000   1.0000   1.0000   1.0000   1.0000   1.0000   1.0000   1.0000
     1.0000   1.0000   1.0000   1.0000   1.0000   1.0000   1.0000   1.0000
     1.0000   1.0000   1.0000   1.0000   1.0000   1.0000   1.0000   1.0000
     1.0000   1.0000   1.0000   1.0000   1.0000   1.0000   1.0000   1.0000
     1.0000   1.0000   1.0000   1.0000   1.0000   1.0000   1.0000   1.0000
     1.0000   1.0000   1.0000   1.0000   1.0000   1.0000   1.0000   1.0000
     1.0000   1.0000   1.0000   1.0000   1.0000   1.0000   1.0000   1.0000
     1.0000   1.0000   1.0000   1.0000   1.0000   1.0000   1.0000   1.0000
     1.0000   1.0000   1.0000   1.0000   1.0000   1.0000   1.0000   1.0000
     1.0000   1.0000   1.0000   1.0000   1.0000   1.0000   1.0000   1.0000
     1.0000   1.0000   1.0000   1.0000   1.0000   1.0000   1.0000   1.0000
     1.0000   1.0000   1.0000   1.0000   1.0000   1.0000   1.0000   1.0000
     1.0000   1.0000   1.0000   1.0000   1.0000   1.0000   1.0000   1.0000
     1.0000   1.0000   1.0000   1.0000   1.0000   1.0000   1.0000   1.0000
     1.0000   1.0000   1.0000   1.0000   1.0000   1.0000   1.0000   1.0000
     1.0000   1.0000   1.0000   1.0000   1.0000   1.0000   1.0000   1.0000
     1.0000   1.0000   1.0000   1.0000   1.0000   1.0000   1.0000   1.0000
     1.0000   1.0000   1.0000   1.0000   1.0000   1.0000   1.0000   1.0000
     1.0000   1.0000   1.0000   1.0000   1.0000   1.0000   1.0000   1.0000
     1.0000   1.0000   1.0000   1.0000   1.0000   1.0000   1.0000   1.0000
     1.0000   1.0000   1.0000   1.0000   1.0000   1.0000   1.0000   1.0000
     1.0000   1.0000   1.0000   1.0000   1.0000   1.0000   1.0000   1.0000
     1.0000   1.0000   1.0000   1.0000   1.0000   1.0000   1.0000   1.0000
     1.0000   1.0000   1.0000   1.0000   1.0000   1.0000   1.0000   1.0000
     1.0000   1.0000   1.0000   1.0000   1.0000   1.0000   1.0000   1.0000
     1.0000   1.0000   1.0000   1.0000   1.0000   1.0000   1.0000   1.0000
     1.0000   1.0000   1.0483   1.0483   1.0525   1.0525   0.6355   0.6355
     0.0455   0.0455   0.0162   0.0162   0.0000   0.0000   0.0000   0.0000
     0.0000   0.0000   0.0000   0.0000   0.0000   0.0000   0.0000   0.0000
     0.0000   0.0000   0.0000   0.0000   0.0000   0.0000   0.0000   0.0000
     0.0000   0.0000   0.0000   0.0000   0.0000   0.0000   0.0000   0.0000
     0.0000   0.0000   0.0000   0.0000   0.0000   0.0000   0.0000   0.0000
     0.0000   0.0000   0.0000   0.0000   0.0000   0.0000   0.0000   0.0000
     0.0000   0.0000   0.0000   0.0000   0.0000   0.0000   0.0000   0.0000
     0.0000   0.0000   0.0000   0.0000   0.0000   0.0000   0.0000   0.0000
     0.0000   0.0000   0.0000   0.0000   0.0000   0.0000   0.0000   0.0000
     0.0000   0.0000   0.0000   0.0000   0.0000   0.0000   0.0000   0.0000
     0.0000   0.0000   0.0000   0.0000   0.0000   0.0000   0.0000   0.0000
     0.0000   0.0000   0.0000   0.0000   0.0000   0.0000   0.0000   0.0000

          k = 0.2000 0.1155 0.0000 ( 64811 PWs)   bands (ev):

  -125.1084-125.1073-125.1070-125.1070-125.1064-125.1064-125.1062-125.1053
  -125.1053-125.1051-125.1050-125.1050-125.1050-125.1049-125.1048-125.1047
  -124.9187-124.9186-124.9175-124.9174-124.9172-124.9172-124.9171-124.9171
  -124.9167-124.9167-124.9166-124.9166-124.9165-124.9164-124.9156-124.9156
  -124.9155-124.9155-124.9153-124.9153-124.9153-124.9153-124.9153-124.9152
  -124.9152-124.9152-124.9151-124.9151-124.9150-124.9150-124.9149-124.9149
   -79.2730 -79.2730 -79.2726 -79.2677 -79.2677 -79.2672 -79.2672 -79.2657
   -79.2657 -79.2610 -79.2586 -79.2584 -79.2584 -79.2574 -79.2570 -79.2570
   -79.2564 -79.2564 -79.2561 -79.2560 -79.2560 -79.2551 -79.2551 -79.2549
   -79.2548 -79.2548 -79.2547 -79.2547 -79.2545 -79.2545 -79.2529 -79.2529
   -79.2525 -79.2525 -79.2505 -79.2505 -79.2499 -79.2473 -79.2473 -79.2466
   -79.2435 -79.2432 -79.2432 -79.2417 -79.2417 -79.2406 -79.2383 -79.2376
   -79.0826 -79.0826 -79.0825 -79.0825 -79.0822 -79.0821 -79.0773 -79.0773
   -79.0772 -79.0772 -79.0768 -79.0768 -79.0767 -79.0767 -79.0753 -79.0753
   -79.0752 -79.0752 -79.0724 -79.0722 -79.0712 -79.0710 -79.0708 -79.0708
   -79.0707 -79.0707 -79.0707 -79.0706 -79.0702 -79.0702 -79.0701 -79.0701
   -79.0699 -79.0699 -79.0690 -79.0690 -79.0689 -79.0689 -79.0687 -79.0687
   -79.0687 -79.0686 -79.0686 -79.0686 -79.0686 -79.0686 -79.0686 -79.0685
   -79.0684 -79.0684 -79.0683 -79.0683 -79.0681 -79.0681 -79.0680 -79.0680
   -79.0656 -79.0656 -79.0655 -79.0655 -79.0626 -79.0626 -79.0625 -79.0625
   -79.0622 -79.0622 -79.0621 -79.0621 -79.0602 -79.0602 -79.0601 -79.0601
   -79.0595 -79.0594 -79.0570 -79.0570 -79.0569 -79.0569 -79.0563 -79.0562
   -79.0532 -79.0531 -79.0529 -79.0529 -79.0528 -79.0528 -79.0514 -79.0514
   -79.0513 -79.0513 -79.0503 -79.0502 -79.0480 -79.0479 -79.0473 -79.0472
    -8.5957  -7.5507  -7.3885  -7.2691  -7.2691  -7.0966  -6.9424  -6.9365
    -6.9365  -6.9257  -6.9257  -6.9077  -6.7646  -6.7543  -6.7543  -6.7231
    -6.7075  -6.7075  -6.6923  -6.6915  -6.6379  -6.6287  -6.6287  -6.6187
    -6.6098  -6.6098  -6.5867  -6.5867  -6.5738  -6.5716  -6.5716  -6.5694
    -6.5694  -6.5688  -6.5688  -6.5513  -6.5513  -6.5322  -6.5322  -6.5215
    -6.5215  -6.5105  -6.5105  -6.4626  -6.4626  -6.4277  -6.4277  -6.4210
    -6.4210  -6.4055  -6.3776  -6.3746  -6.3746  -6.3707  -6.3707  -6.3592
    -6.3592  -6.3117  -6.2949  -6.2895  -6.2895  -6.2783  -6.2783  -6.2732
    -6.2732  -6.2567  -6.2503  -6.2503  -6.2497  -6.2497  -6.2467  -6.2467
    -6.2326  -6.2326  -6.2310  -6.2310  -6.2274  -6.2271  -6.2232  -6.2232
    -6.1819  -6.1819  -6.1705  -6.1705  -6.1703  -6.1549  -6.1549  -6.1442
    -6.1442  -6.1412  -6.1366  -6.1261  -6.1261  -6.0938  -6.0938  -6.0848
    -6.0848  -6.0095  -6.0095  -5.9985  -5.9985  -5.9892  -5.9871  -5.9867
    -5.9867  -5.9730  -5.9705  -5.9687  -5.9638  -5.9552  -5.9552  -5.9545
    -5.9492  -5.9492  -5.9386  -5.9386  -5.9353  -5.9201  -5.9201  -5.8935
    -5.8935  -5.8900  -5.8861  -5.8861  -5.8721  -5.8494  -5.8494  -5.8421
    -5.8421  -5.8386  -5.8386  -5.8359  -5.8201  -5.8201  -5.8186  -5.8186
    -5.8138  -5.7963  -5.7963  -5.7930  -5.7930  -5.7823  -5.7779  -5.7779
    -5.7739  -5.7739  -5.7603  -5.7603  -5.7569  -5.7569  -5.7565  -5.7554
    -5.7554  -5.7541  -5.7532  -5.7532  -5.7287  -5.7287  -5.7252  -5.7252
    -5.7109  -5.7082  -5.7082  -5.6939  -5.6909  -5.6909  -5.6839  -5.6622
    -5.6622  -5.6587  -5.6528  -5.6528  -5.6487  -5.6464  -5.6240  -5.6157
    -5.6157  -5.6115  -5.6115  -5.6073  -5.6073  -5.6021  -5.6018  -5.6018
    -5.5927  -5.5927  -5.5833  -5.5833  -5.5803  -5.5799  -5.5799  -5.5733
    -5.5733  -5.5501  -5.5501  -5.5111  -5.5085  -5.5085  -5.5002  -5.4958
    -5.4958  -5.4958  -5.4958  -5.4927  -5.4927  -5.4841  -5.4841  -5.4819
    -5.4810  -5.4665  -5.4621  -5.4566  -5.4505  -5.4505  -5.4472  -5.4472
    -5.4471  -5.4471  -5.4399  -5.4338  -5.4287  -5.4154  -5.4144  -5.4138
    -5.4085  -5.4085  -5.3794  -5.3794  -5.3669  -5.3669  -5.3544  -5.3544
    -5.3458  -5.3458  -5.3400  -5.3354  -5.3354  -5.3344  -5.3344  -5.2991
    -5.2991  -5.1679  -5.1658  -5.1658  -5.1620  -5.1620  -5.1500  -5.1495
    -4.9094  -4.6542  -4.6542  -4.0570  -4.0570  -3.7404  -3.4275  -3.2046
    -3.2046  -2.5948  -2.2951  -2.2951  -2.0999  -2.0999  -1.9474  -1.7734
    -1.7734  -1.6693  -1.6693  -1.3519  -1.2273  -1.2273  -0.9459  -0.9459
    -0.6395  -0.6395  -0.6388  -0.5556   0.0422   0.0422   0.3322   0.3322
     0.4699   0.4699   0.5271   0.5271   0.7392   0.7749   1.2108   1.2108
     1.5172   1.5172   2.0464   2.0464   2.4470   2.5493   2.5493   2.5730
     2.5730   2.6055   2.9952   2.9952   3.1389   3.1570   3.8528   3.8528
     4.1513   4.1513   4.2289   4.3914   4.3914   4.5735   4.5735   4.5838
     4.5838   5.1580   5.1590   5.1590   5.1898   5.1898   5.2316   5.2808
     5.2808   5.2816   5.2816   5.3579   5.6073   5.8074   5.8729   5.8729
     5.9139   5.9139   6.2392   6.2866   6.3600   6.3600   6.4605   6.4727
     6.4727   6.4816   6.5983   6.5983   6.8274   6.8274   6.9062   6.9062
     6.9542   6.9542   7.1351   7.2208   7.2208   7.3060   7.3060   7.3656
     7.3656   7.3956   7.4788   7.4788   7.5341   7.5341   7.5572   7.5572
     7.5588   7.5931   7.5931   7.6251   7.7625   7.7625   7.9157   7.9157
     7.9307   8.1856   8.1856   8.2926   8.4408   8.5300   8.5300   8.5338
     8.5339   8.5957   8.6031   8.6031   8.6486   8.6486   8.7991   8.7991

     occupation numbers 
     1.0000   1.0000   1.0000   1.0000   1.0000   1.0000   1.0000   1.0000
     1.0000   1.0000   1.0000   1.0000   1.0000   1.0000   1.0000   1.0000
     1.0000   1.0000   1.0000   1.0000   1.0000   1.0000   1.0000   1.0000
     1.0000   1.0000   1.0000   1.0000   1.0000   1.0000   1.0000   1.0000
     1.0000   1.0000   1.0000   1.0000   1.0000   1.0000   1.0000   1.0000
     1.0000   1.0000   1.0000   1.0000   1.0000   1.0000   1.0000   1.0000
     1.0000   1.0000   1.0000   1.0000   1.0000   1.0000   1.0000   1.0000
     1.0000   1.0000   1.0000   1.0000   1.0000   1.0000   1.0000   1.0000
     1.0000   1.0000   1.0000   1.0000   1.0000   1.0000   1.0000   1.0000
     1.0000   1.0000   1.0000   1.0000   1.0000   1.0000   1.0000   1.0000
     1.0000   1.0000   1.0000   1.0000   1.0000   1.0000   1.0000   1.0000
     1.0000   1.0000   1.0000   1.0000   1.0000   1.0000   1.0000   1.0000
     1.0000   1.0000   1.0000   1.0000   1.0000   1.0000   1.0000   1.0000
     1.0000   1.0000   1.0000   1.0000   1.0000   1.0000   1.0000   1.0000
     1.0000   1.0000   1.0000   1.0000   1.0000   1.0000   1.0000   1.0000
     1.0000   1.0000   1.0000   1.0000   1.0000   1.0000   1.0000   1.0000
     1.0000   1.0000   1.0000   1.0000   1.0000   1.0000   1.0000   1.0000
     1.0000   1.0000   1.0000   1.0000   1.0000   1.0000   1.0000   1.0000
     1.0000   1.0000   1.0000   1.0000   1.0000   1.0000   1.0000   1.0000
     1.0000   1.0000   1.0000   1.0000   1.0000   1.0000   1.0000   1.0000
     1.0000   1.0000   1.0000   1.0000   1.0000   1.0000   1.0000   1.0000
     1.0000   1.0000   1.0000   1.0000   1.0000   1.0000   1.0000   1.0000
     1.0000   1.0000   1.0000   1.0000   1.0000   1.0000   1.0000   1.0000
     1.0000   1.0000   1.0000   1.0000   1.0000   1.0000   1.0000   1.0000
     1.0000   1.0000   1.0000   1.0000   1.0000   1.0000   1.0000   1.0000
     1.0000   1.0000   1.0000   1.0000   1.0000   1.0000   1.0000   1.0000
     1.0000   1.0000   1.0000   1.0000   1.0000   1.0000   1.0000   1.0000
     1.0000   1.0000   1.0000   1.0000   1.0000   1.0000   1.0000   1.0000
     1.0000   1.0000   1.0000   1.0000   1.0000   1.0000   1.0000   1.0000
     1.0000   1.0000   1.0000   1.0000   1.0000   1.0000   1.0000   1.0000
     1.0000   1.0000   1.0000   1.0000   1.0000   1.0000   1.0000   1.0000
     1.0000   1.0000   1.0000   1.0000   1.0000   1.0000   1.0000   1.0000
     1.0000   1.0000   1.0000   1.0000   1.0000   1.0000   1.0000   1.0000
     1.0000   1.0000   1.0000   1.0000   1.0000   1.0000   1.0000   1.0000
     1.0000   1.0000   1.0000   1.0000   1.0000   1.0000   1.0000   1.0000
     1.0000   1.0000   1.0000   1.0000   1.0000   1.0000   1.0000   1.0000
     1.0000   1.0000   1.0000   1.0000   1.0000   1.0000   1.0000   1.0000
     1.0000   1.0000   1.0000   1.0000   1.0000   1.0000   1.0000   1.0000
     1.0000   1.0000   1.0000   1.0000   1.0000   1.0000   1.0000   1.0000
     1.0000   1.0000   1.0000   1.0000   1.0000   1.0000   1.0000   1.0000
     1.0000   1.0000   1.0000   1.0000   1.0000   1.0000   1.0000   1.0000
     1.0000   1.0000   1.0000   1.0000   1.0000   1.0000   1.0000   1.0000
     1.0000   1.0000   1.0000   1.0000   1.0000   1.0000   1.0000   1.0000
     1.0000   1.0000   1.0000   1.0000   1.0000   1.0000   1.0000   1.0000
     1.0000   1.0000   1.0000   1.0000   1.0000   1.0000   1.0000   1.0000
     1.0000   1.0000   1.0000   1.0000   1.0000   1.0000   1.0000   1.0000
     1.0000   1.0000   1.0000   1.0000   1.0000   1.0000   1.0000   1.0000
     1.0000   1.0000   1.0000   1.0000   1.0000   1.0000   1.0000   1.0000
     1.0000   1.0000   1.0000   1.0000   1.0000   1.0000   1.0000   1.0000
     1.0000   1.0000   1.0000   1.0000   1.0000   1.0000   1.0000   1.0000
     1.0000   1.0000   1.0000   1.0000   1.0000   1.0000   1.0000   1.0000
     1.0000   1.0000   1.0000   1.0000   1.0000   1.0000   1.0000   1.0000
     1.0000   1.0000   1.0000   1.0000   1.0000   1.0000   1.0000   1.0000
     1.0000   1.0000   1.0000   1.0000   1.0000   1.0000   1.0000   1.0000
     1.0000   1.0000   1.0000   1.0000   1.0000   1.0000   1.0000   1.0000
     1.0000   1.0000   1.0000   1.0000   1.0000   1.0000   1.0000   1.0000
     1.0000   1.0000   1.0000   1.0000   1.0000   1.0000   1.0000   1.0000
     1.0000   1.0000   1.0000   1.0000   1.0000   1.0000   1.0000   1.0000
     1.0000   1.0000   1.0000   1.0000   1.0000   1.0000   1.0000   1.0000
     1.0000   1.0000   1.0000   1.0000   1.0013   1.0023   1.0793   1.0793
     0.5203   0.5203   0.0010   0.0010   0.0000   0.0000   0.0000   0.0000
     0.0000   0.0000   0.0000   0.0000   0.0000   0.0000   0.0000   0.0000
     0.0000   0.0000   0.0000   0.0000   0.0000   0.0000   0.0000   0.0000
     0.0000   0.0000   0.0000   0.0000   0.0000   0.0000   0.0000   0.0000
     0.0000   0.0000   0.0000   0.0000   0.0000   0.0000   0.0000   0.0000
     0.0000   0.0000   0.0000   0.0000   0.0000   0.0000   0.0000   0.0000
     0.0000   0.0000   0.0000   0.0000   0.0000   0.0000   0.0000   0.0000
     0.0000   0.0000   0.0000   0.0000   0.0000   0.0000   0.0000   0.0000
     0.0000   0.0000   0.0000   0.0000   0.0000   0.0000   0.0000   0.0000
     0.0000   0.0000   0.0000   0.0000   0.0000   0.0000   0.0000   0.0000
     0.0000   0.0000   0.0000   0.0000   0.0000   0.0000   0.0000   0.0000
     0.0000   0.0000   0.0000   0.0000   0.0000   0.0000   0.0000   0.0000

          k = 0.2000 0.3464 0.0000 ( 64830 PWs)   bands (ev):

  -125.1082-125.1075-125.1074-125.1066-125.1066-125.1059-125.1059-125.1057
  -125.1053-125.1053-125.1052-125.1051-125.1049-125.1048-125.1048-125.1046
  -124.9185-124.9184-124.9178-124.9177-124.9177-124.9176-124.9168-124.9168
  -124.9167-124.9167-124.9162-124.9162-124.9161-124.9161-124.9160-124.9159
  -124.9156-124.9155-124.9155-124.9154-124.9154-124.9154-124.9153-124.9153
  -124.9152-124.9151-124.9151-124.9150-124.9150-124.9149-124.9149-124.9148
   -79.2724 -79.2713 -79.2713 -79.2689 -79.2689 -79.2672 -79.2672 -79.2658
   -79.2636 -79.2636 -79.2630 -79.2592 -79.2585 -79.2576 -79.2576 -79.2566
   -79.2566 -79.2563 -79.2563 -79.2558 -79.2558 -79.2556 -79.2551 -79.2551
   -79.2550 -79.2549 -79.2547 -79.2545 -79.2545 -79.2543 -79.2539 -79.2539
   -79.2493 -79.2493 -79.2489 -79.2480 -79.2477 -79.2477 -79.2468 -79.2468
   -79.2447 -79.2446 -79.2434 -79.2434 -79.2402 -79.2402 -79.2400 -79.2381
   -79.0820 -79.0819 -79.0809 -79.0809 -79.0808 -79.0808 -79.0785 -79.0785
   -79.0784 -79.0784 -79.0769 -79.0768 -79.0767 -79.0767 -79.0755 -79.0754
   -79.0733 -79.0732 -79.0732 -79.0732 -79.0727 -79.0726 -79.0722 -79.0720
   -79.0714 -79.0714 -79.0713 -79.0712 -79.0704 -79.0704 -79.0703 -79.0703
   -79.0697 -79.0696 -79.0696 -79.0696 -79.0694 -79.0693 -79.0690 -79.0689
   -79.0689 -79.0689 -79.0688 -79.0688 -79.0688 -79.0688 -79.0688 -79.0687
   -79.0686 -79.0685 -79.0685 -79.0684 -79.0684 -79.0683 -79.0682 -79.0682
   -79.0660 -79.0660 -79.0659 -79.0659 -79.0636 -79.0636 -79.0635 -79.0635
   -79.0590 -79.0590 -79.0589 -79.0589 -79.0586 -79.0585 -79.0577 -79.0576
   -79.0573 -79.0573 -79.0572 -79.0572 -79.0565 -79.0565 -79.0564 -79.0564
   -79.0544 -79.0543 -79.0543 -79.0543 -79.0531 -79.0531 -79.0530 -79.0530
   -79.0499 -79.0499 -79.0498 -79.0498 -79.0497 -79.0496 -79.0478 -79.0477
    -8.4449  -7.7353  -7.7353  -7.2643  -7.0200  -6.9413  -6.9413  -6.9050
    -6.9050  -6.8579  -6.8515  -6.8515  -6.7674  -6.7674  -6.7305  -6.7305
    -6.7300  -6.7299  -6.7053  -6.6881  -6.6881  -6.6755  -6.6754  -6.6443
    -6.6261  -6.6261  -6.6243  -6.6243  -6.6013  -6.6012  -6.5821  -6.5820
    -6.5618  -6.5618  -6.5475  -6.5475  -6.5451  -6.5451  -6.5283  -6.5043
    -6.5002  -6.5002  -6.4915  -6.4915  -6.4856  -6.4625  -6.4456  -6.4388
    -6.4388  -6.4343  -6.4342  -6.3776  -6.3776  -6.3725  -6.3610  -6.3610
    -6.3502  -6.3315  -6.3248  -6.3186  -6.3186  -6.3061  -6.3060  -6.3037
    -6.3037  -6.2989  -6.2850  -6.2850  -6.2826  -6.2825  -6.2808  -6.2807
    -6.2733  -6.2338  -6.2338  -6.2238  -6.2238  -6.2146  -6.2146  -6.2104
    -6.1900  -6.1865  -6.1865  -6.1752  -6.1718  -6.1718  -6.1442  -6.1283
    -6.1212  -6.1212  -6.1094  -6.1094  -6.1030  -6.0940  -6.0844  -6.0258
    -6.0258  -6.0253  -6.0253  -6.0218  -6.0218  -6.0196  -6.0153  -6.0153
    -5.9831  -5.9811  -5.9772  -5.9753  -5.9753  -5.9682  -5.9682  -5.9660
    -5.9509  -5.9509  -5.9416  -5.9317  -5.9317  -5.9292  -5.9292  -5.9243
    -5.9220  -5.9220  -5.9155  -5.9155  -5.9154  -5.9034  -5.8971  -5.8879
    -5.8878  -5.8757  -5.8757  -5.8665  -5.8290  -5.8290  -5.8231  -5.8212
    -5.8049  -5.8044  -5.8044  -5.7787  -5.7787  -5.7771  -5.7609  -5.7609
    -5.7600  -5.7600  -5.7203  -5.7203  -5.7137  -5.7137  -5.7097  -5.7038
    -5.7038  -5.6992  -5.6992  -5.6930  -5.6930  -5.6921  -5.6921  -5.6853
    -5.6729  -5.6728  -5.6688  -5.6624  -5.6623  -5.6506  -5.6506  -5.6501
    -5.6501  -5.6455  -5.6454  -5.6317  -5.6317  -5.6216  -5.6101  -5.6101
    -5.6062  -5.6023  -5.6023  -5.5919  -5.5919  -5.5903  -5.5903  -5.5898
    -5.5898  -5.5818  -5.5746  -5.5567  -5.5567  -5.5558  -5.5557  -5.5502
    -5.5354  -5.5354  -5.5301  -5.5269  -5.5142  -5.5142  -5.5090  -5.5090
    -5.4939  -5.4939  -5.4931  -5.4931  -5.4922  -5.4818  -5.4818  -5.4758
    -5.4758  -5.4755  -5.4755  -5.4691  -5.4691  -5.4476  -5.4464  -5.4457
    -5.4450  -5.4377  -5.4377  -5.4219  -5.4059  -5.4058  -5.4023  -5.4022
    -5.3895  -5.3829  -5.3829  -5.3782  -5.3765  -5.3709  -5.3709  -5.3696
    -5.3629  -5.3629  -5.3387  -5.3387  -5.3255  -5.3255  -5.2901  -5.2901
    -5.2519  -5.2339  -5.2041  -5.2041  -5.2036  -5.2036  -5.0307  -5.0307
    -4.6677  -4.6677  -4.2150  -4.2150  -4.1234  -3.3193  -3.2313  -3.2313
    -3.1087  -3.1087  -2.7661  -2.7660  -2.7592  -2.5088  -2.5088  -1.8496
    -1.8496  -1.6637  -1.6637  -1.0627  -1.0627  -0.8801  -0.8801  -0.8385
    -0.8385  -0.5517  -0.4667  -0.4375   0.1115   0.3470   0.5071   0.5071
     0.5478   0.5622   0.5622   0.5999   0.5999   0.8713   0.8713   1.8031
     1.8031   1.8157   1.9216   1.9216   2.4134   2.8015   2.8015   2.9982
     2.9982   3.0563   3.3005   3.3050   3.3050   3.4081   3.4926   3.4973
     3.9140   3.9140   3.9399   3.9399   4.0158   4.0159   4.2915   4.3562
     4.5035   4.5035   4.6547   4.6547   4.7974   5.0796   5.0796   5.1976
     5.3024   5.3350   5.3350   5.5051   5.9062   5.9062   6.0236   6.0236
     6.0474   6.0474   6.0729   6.0730   6.2178   6.2178   6.2402   6.2402
     6.3635   6.3635   6.4351   6.4571   6.6256   6.7172   6.7172   6.7417
     6.7417   6.7836   7.0263   7.0996   7.0996   7.1749   7.1749   7.3406
     7.3406   7.3442   7.3442   7.3505   7.3505   7.3774   7.5704   7.5704
     7.8028   7.8161   8.0379   8.2718   8.2718   8.2903   8.2903   8.3075
     8.3075   8.4124   8.4124   8.4385   8.4385   8.4403   8.4686   8.4741
     8.4741   8.5238   8.5837   8.6698   8.6698   8.8120   8.9337   8.9338

     occupation numbers 
     1.0000   1.0000   1.0000   1.0000   1.0000   1.0000   1.0000   1.0000
     1.0000   1.0000   1.0000   1.0000   1.0000   1.0000   1.0000   1.0000
     1.0000   1.0000   1.0000   1.0000   1.0000   1.0000   1.0000   1.0000
     1.0000   1.0000   1.0000   1.0000   1.0000   1.0000   1.0000   1.0000
     1.0000   1.0000   1.0000   1.0000   1.0000   1.0000   1.0000   1.0000
     1.0000   1.0000   1.0000   1.0000   1.0000   1.0000   1.0000   1.0000
     1.0000   1.0000   1.0000   1.0000   1.0000   1.0000   1.0000   1.0000
     1.0000   1.0000   1.0000   1.0000   1.0000   1.0000   1.0000   1.0000
     1.0000   1.0000   1.0000   1.0000   1.0000   1.0000   1.0000   1.0000
     1.0000   1.0000   1.0000   1.0000   1.0000   1.0000   1.0000   1.0000
     1.0000   1.0000   1.0000   1.0000   1.0000   1.0000   1.0000   1.0000
     1.0000   1.0000   1.0000   1.0000   1.0000   1.0000   1.0000   1.0000
     1.0000   1.0000   1.0000   1.0000   1.0000   1.0000   1.0000   1.0000
     1.0000   1.0000   1.0000   1.0000   1.0000   1.0000   1.0000   1.0000
     1.0000   1.0000   1.0000   1.0000   1.0000   1.0000   1.0000   1.0000
     1.0000   1.0000   1.0000   1.0000   1.0000   1.0000   1.0000   1.0000
     1.0000   1.0000   1.0000   1.0000   1.0000   1.0000   1.0000   1.0000
     1.0000   1.0000   1.0000   1.0000   1.0000   1.0000   1.0000   1.0000
     1.0000   1.0000   1.0000   1.0000   1.0000   1.0000   1.0000   1.0000
     1.0000   1.0000   1.0000   1.0000   1.0000   1.0000   1.0000   1.0000
     1.0000   1.0000   1.0000   1.0000   1.0000   1.0000   1.0000   1.0000
     1.0000   1.0000   1.0000   1.0000   1.0000   1.0000   1.0000   1.0000
     1.0000   1.0000   1.0000   1.0000   1.0000   1.0000   1.0000   1.0000
     1.0000   1.0000   1.0000   1.0000   1.0000   1.0000   1.0000   1.0000
     1.0000   1.0000   1.0000   1.0000   1.0000   1.0000   1.0000   1.0000
     1.0000   1.0000   1.0000   1.0000   1.0000   1.0000   1.0000   1.0000
     1.0000   1.0000   1.0000   1.0000   1.0000   1.0000   1.0000   1.0000
     1.0000   1.0000   1.0000   1.0000   1.0000   1.0000   1.0000   1.0000
     1.0000   1.0000   1.0000   1.0000   1.0000   1.0000   1.0000   1.0000
     1.0000   1.0000   1.0000   1.0000   1.0000   1.0000   1.0000   1.0000
     1.0000   1.0000   1.0000   1.0000   1.0000   1.0000   1.0000   1.0000
     1.0000   1.0000   1.0000   1.0000   1.0000   1.0000   1.0000   1.0000
     1.0000   1.0000   1.0000   1.0000   1.0000   1.0000   1.0000   1.0000
     1.0000   1.0000   1.0000   1.0000   1.0000   1.0000   1.0000   1.0000
     1.0000   1.0000   1.0000   1.0000   1.0000   1.0000   1.0000   1.0000
     1.0000   1.0000   1.0000   1.0000   1.0000   1.0000   1.0000   1.0000
     1.0000   1.0000   1.0000   1.0000   1.0000   1.0000   1.0000   1.0000
     1.0000   1.0000   1.0000   1.0000   1.0000   1.0000   1.0000   1.0000
     1.0000   1.0000   1.0000   1.0000   1.0000   1.0000   1.0000   1.0000
     1.0000   1.0000   1.0000   1.0000   1.0000   1.0000   1.0000   1.0000
     1.0000   1.0000   1.0000   1.0000   1.0000   1.0000   1.0000   1.0000
     1.0000   1.0000   1.0000   1.0000   1.0000   1.0000   1.0000   1.0000
     1.0000   1.0000   1.0000   1.0000   1.0000   1.0000   1.0000   1.0000
     1.0000   1.0000   1.0000   1.0000   1.0000   1.0000   1.0000   1.0000
     1.0000   1.0000   1.0000   1.0000   1.0000   1.0000   1.0000   1.0000
     1.0000   1.0000   1.0000   1.0000   1.0000   1.0000   1.0000   1.0000
     1.0000   1.0000   1.0000   1.0000   1.0000   1.0000   1.0000   1.0000
     1.0000   1.0000   1.0000   1.0000   1.0000   1.0000   1.0000   1.0000
     1.0000   1.0000   1.0000   1.0000   1.0000   1.0000   1.0000   1.0000
     1.0000   1.0000   1.0000   1.0000   1.0000   1.0000   1.0000   1.0000
     1.0000   1.0000   1.0000   1.0000   1.0000   1.0000   1.0000   1.0000
     1.0000   1.0000   1.0000   1.0000   1.0000   1.0000   1.0000   1.0000
     1.0000   1.0000   1.0000   1.0000   1.0000   1.0000   1.0000   1.0000
     1.0000   1.0000   1.0000   1.0000   1.0000   1.0000   1.0000   1.0000
     1.0000   1.0000   1.0000   1.0000   1.0000   1.0000   1.0000   1.0000
     1.0000   1.0000   1.0000   1.0000   1.0000   1.0000   1.0000   1.0000
     1.0000   1.0000   1.0000   1.0000   1.0000   1.0000   1.0000   1.0000
     1.0000   1.0000   1.0000   1.0000   1.0000   1.0000   1.0000   1.0000
     1.0000   1.0000   1.0000   1.0000   1.0000   1.0000   1.0000   1.0000
     1.0000   1.0000   1.0000   1.0001   1.0001   1.0091   1.0091   0.0439
     0.0439   0.0376   0.0086   0.0086   0.0000   0.0000   0.0000   0.0000
     0.0000   0.0000   0.0000   0.0000   0.0000   0.0000   0.0000   0.0000
     0.0000   0.0000   0.0000   0.0000   0.0000   0.0000   0.0000   0.0000
     0.0000   0.0000   0.0000   0.0000   0.0000   0.0000   0.0000   0.0000
     0.0000   0.0000   0.0000   0.0000   0.0000   0.0000   0.0000   0.0000
     0.0000   0.0000   0.0000   0.0000   0.0000   0.0000   0.0000   0.0000
     0.0000   0.0000   0.0000   0.0000   0.0000   0.0000   0.0000   0.0000
     0.0000   0.0000   0.0000   0.0000   0.0000   0.0000   0.0000   0.0000
     0.0000   0.0000   0.0000   0.0000   0.0000   0.0000   0.0000   0.0000
     0.0000   0.0000   0.0000   0.0000   0.0000   0.0000   0.0000   0.0000
     0.0000   0.0000   0.0000   0.0000   0.0000   0.0000   0.0000   0.0000
     0.0000   0.0000   0.0000   0.0000   0.0000   0.0000   0.0000   0.0000

          k = 0.2000 0.5774 0.0000 ( 64844 PWs)   bands (ev):

  -125.1079-125.1079-125.1075-125.1066-125.1061-125.1061-125.1056-125.1056
  -125.1055-125.1055-125.1052-125.1052-125.1049-125.1048-125.1047-125.1046
  -124.9182-124.9182-124.9181-124.9181-124.9178-124.9177-124.9169-124.9168
  -124.9164-124.9164-124.9163-124.9163-124.9159-124.9159-124.9158-124.9158
  -124.9158-124.9157-124.9157-124.9156-124.9155-124.9155-124.9154-124.9154
  -124.9151-124.9151-124.9150-124.9150-124.9150-124.9149-124.9148-124.9147
   -79.2709 -79.2709 -79.2693 -79.2693 -79.2693 -79.2681 -79.2680 -79.2658
   -79.2658 -79.2647 -79.2610 -79.2598 -79.2598 -79.2581 -79.2581 -79.2577
   -79.2566 -79.2561 -79.2561 -79.2555 -79.2555 -79.2555 -79.2553 -79.2553
   -79.2550 -79.2550 -79.2546 -79.2546 -79.2544 -79.2544 -79.2543 -79.2513
   -79.2513 -79.2479 -79.2479 -79.2468 -79.2466 -79.2466 -79.2459 -79.2459
   -79.2456 -79.2456 -79.2435 -79.2432 -79.2432 -79.2401 -79.2390 -79.2390
   -79.0805 -79.0805 -79.0804 -79.0804 -79.0790 -79.0789 -79.0789 -79.0789
   -79.0788 -79.0788 -79.0777 -79.0777 -79.0776 -79.0776 -79.0754 -79.0754
   -79.0753 -79.0753 -79.0743 -79.0742 -79.0719 -79.0719 -79.0717 -79.0717
   -79.0714 -79.0713 -79.0706 -79.0705 -79.0704 -79.0703 -79.0699 -79.0699
   -79.0698 -79.0698 -79.0695 -79.0695 -79.0694 -79.0694 -79.0693 -79.0693
   -79.0692 -79.0692 -79.0692 -79.0691 -79.0691 -79.0691 -79.0689 -79.0689
   -79.0688 -79.0688 -79.0685 -79.0685 -79.0684 -79.0684 -79.0683 -79.0683
   -79.0682 -79.0681 -79.0652 -79.0651 -79.0641 -79.0640 -79.0610 -79.0609
   -79.0609 -79.0609 -79.0576 -79.0575 -79.0575 -79.0574 -79.0565 -79.0564
   -79.0563 -79.0563 -79.0562 -79.0562 -79.0556 -79.0556 -79.0555 -79.0555
   -79.0553 -79.0553 -79.0552 -79.0552 -79.0532 -79.0531 -79.0529 -79.0529
   -79.0528 -79.0528 -79.0498 -79.0497 -79.0487 -79.0487 -79.0486 -79.0486
    -8.1506  -8.1506  -7.7991  -7.0370  -7.0370  -6.9385  -6.8841  -6.8841
    -6.8714  -6.8714  -6.8137  -6.8137  -6.7951  -6.7721  -6.7721  -6.7455
    -6.7455  -6.7420  -6.6855  -6.6855  -6.6604  -6.6604  -6.6557  -6.6557
    -6.6454  -6.6454  -6.6341  -6.6341  -6.6127  -6.6078  -6.6077  -6.6071
    -6.6071  -6.5734  -6.5734  -6.5651  -6.5453  -6.5453  -6.4986  -6.4986
    -6.4892  -6.4824  -6.4824  -6.4758  -6.4758  -6.4756  -6.4756  -6.4437
    -6.4437  -6.4436  -6.4409  -6.4331  -6.4291  -6.4291  -6.3819  -6.3366
    -6.3366  -6.3331  -6.3331  -6.3288  -6.3281  -6.3280  -6.3280  -6.3195
    -6.3060  -6.3037  -6.3037  -6.3037  -6.3037  -6.2977  -6.2825  -6.2824
    -6.2478  -6.2478  -6.2441  -6.2348  -6.2192  -6.2174  -6.2174  -6.1872
[...]
     1.0000   1.0000   1.0000   1.0000   1.0000   1.0000   1.0000   1.0000
     1.0000   1.0000   1.0000   1.0000   1.0000   1.0000   1.0000   1.0000
     1.0000   1.0000   1.0000   1.0000   1.0000   1.0000   1.0000   1.0000
     1.0000   1.0000   1.0000   1.0000   1.0000   1.0000   1.0000   1.0000
     1.0000   1.0000   1.0000   1.0000   1.0000   1.0000   1.0000   1.0000
     1.0000   1.0000   1.0000   1.0000   1.0000   1.0000   1.0000   1.0000
     1.0000   1.0000   1.0000   1.0000   1.0000   1.0000   1.0000   1.0000
     1.0000   1.0000   1.0000   1.0000   1.0000   1.0000   1.0000   1.0000
     1.0000   1.0000   1.0000   1.0000   1.0000   1.0000   1.0000   1.0000
     1.0000   1.0000   1.0000   1.0000   1.0000   1.0000   1.0000   1.0000
     1.0000   1.0000   1.0000   1.0000   1.0000   1.0000   1.0000   1.0000
     1.0000   1.0000   1.0000   1.0000   1.0000   1.0000   1.0000   1.0000
     1.0000   1.0000   1.0000   1.0000   1.0000   1.0000   1.0000   1.0000
     1.0000   1.0000   1.0000   1.0000   1.0000   1.0000   1.0000   1.0000
     1.0000   1.0000   1.0000   1.0000   1.0000   1.0000   1.0000   1.0000
     1.0000   1.0000   1.0000   1.0000   1.0000   1.0000   1.0000   1.0000
     1.0000   1.0000   1.0000   1.0000   1.0000   1.0000   1.0000   1.0000
     1.0000   1.0000   1.0000   1.0000   1.0000   1.0000   1.0000   1.0000
     1.0000   1.0000   1.0000   1.0000   1.0000   1.0000   1.0000   1.0000
     1.0000   1.0000   1.0000   1.0000   1.0000   1.0000   1.0000   1.0000
     1.0000   1.0000   1.0000   1.0000   1.0000   1.0000   1.0000   1.0000
     1.0000   1.0000   1.0000   1.0000   1.0000   1.0000   1.0000   1.0000
     1.0000   1.0000   1.0000   1.0000   1.0000   1.0000   1.0000   1.0000
     1.0000   1.0000   1.0000   1.0000   1.0000   1.0000   1.0000   1.0000
     1.0000   1.0000   1.0000   1.0000   1.0000   1.0000   1.0000   1.0000
     1.0000   1.0000   1.0000   1.0000   1.0000   1.0000   1.0000   1.0000
     1.0000   1.0000   1.0000   1.0000   1.0000   1.0000   1.0000   1.0000
     1.0000   1.0000   1.0000   1.0000   1.0000   1.0000   1.0000   1.0000
     1.0000   1.0000   1.0000   1.0000   1.0000   1.0000   1.0000   1.0000
     1.0000   1.0000   1.0000   1.0000   1.0000   1.0000   1.0000   1.0000
     1.0000   1.0000   1.0000   1.0000   1.0000   1.0000   1.0000   1.0000
     1.0000   1.0000   1.0000   1.0000   1.0000   1.0000   1.0000   1.0000
     1.0000   1.0000   1.0000   1.0000   1.0000   1.0000   1.0000   1.0000
     1.0000   1.0000   1.0000   1.0000   1.0000   1.0000   1.0000   1.0000
     1.0000   1.0000   1.0000   1.0000   1.0000   1.0000   1.0000   1.0000
     1.0000   1.0000   1.0000   1.0000   1.0000   1.0000   1.0000   1.0000
     1.0000   1.0000   1.0000   1.0000   1.0000   1.0000   1.0000   1.0000
     1.0000   1.0000   1.0000   1.0000   1.0000   1.0000   1.0000   1.0000
     1.0000   1.0000   1.0000   1.0000   1.0000   1.0000   1.0000   1.0000
     1.0000   1.0000   1.0000   1.0000   1.0000   1.0000   1.0000   1.0000
     1.0000   1.0000   1.0000   1.0000   1.0000   1.0000   1.0000   1.0000
     1.0000   1.0000   1.0000   1.0000   1.0000   1.0000   1.0000   1.0000
     1.0000   1.0000   1.0000   1.0000   1.0000   1.0000   1.0000   1.0000
     1.0000   1.0000   1.0000   1.0000   1.0000   1.0000   1.0000   1.0000
     1.0000   1.0000   1.0000   1.0000   1.0000   1.0000   1.0000   1.0000
     1.0000   1.0000   1.0000   1.0000   1.0000   1.0000   1.0000   1.0000
     1.0000   1.0000   1.0000   1.0000   1.0000   1.0000   1.0000   1.0000
     1.0000   1.0000   1.0000   1.0000   1.0000   1.0000   1.0000   1.0000
     1.0000   1.0000   1.0000   1.0000   1.0000   1.0000   1.0000   1.0000
     1.0000   1.0000   1.0000   1.0000   1.0000   1.0000   1.0000   1.0000
     1.0000   1.0000   1.0000   1.0000   1.0000   1.0000   1.0000   1.0000
     1.0000   1.0000   1.0000   1.0000   1.0000   1.0000   1.0000   1.0000
     1.0000   1.0000   1.0483   1.0483   1.0525   1.0525   0.6355   0.6355
     0.0455   0.0455   0.0162   0.0162   0.0000   0.0000   0.0000   0.0000
     0.0000   0.0000   0.0000   0.0000   0.0000   0.0000   0.0000   0.0000
     0.0000   0.0000   0.0000   0.0000   0.0000   0.0000   0.0000   0.0000
     0.0000   0.0000   0.0000   0.0000   0.0000   0.0000   0.0000   0.0000
     0.0000   0.0000   0.0000   0.0000   0.0000   0.0000   0.0000   0.0000
     0.0000   0.0000   0.0000   0.0000   0.0000   0.0000   0.0000   0.0000
     0.0000   0.0000   0.0000   0.0000   0.0000   0.0000   0.0000   0.0000
     0.0000   0.0000   0.0000   0.0000   0.0000   0.0000   0.0000   0.0000
     0.0000   0.0000   0.0000   0.0000   0.0000   0.0000   0.0000   0.0000
     0.0000   0.0000   0.0000   0.0000   0.0000   0.0000   0.0000   0.0000
     0.0000   0.0000   0.0000   0.0000   0.0000   0.0000   0.0000   0.0000
     0.0000   0.0000   0.0000   0.0000   0.0000   0.0000   0.0000   0.0000

          k = 0.4000 0.0000 0.0000 ( 64830 PWs)   bands (ev):

  -125.1082-125.1075-125.1075-125.1066-125.1066-125.1059-125.1059-125.1057
  -125.1053-125.1053-125.1052-125.1051-125.1049-125.1048-125.1048-125.1046
  -124.9185-124.9184-124.9178-124.9177-124.9176-124.9176-124.9168-124.9168
  -124.9167-124.9167-124.9162-124.9162-124.9161-124.9161-124.9160-124.9159
  -124.9156-124.9155-124.9155-124.9155-124.9154-124.9154-124.9153-124.9153
  -124.9152-124.9151-124.9151-124.9150-124.9150-124.9150-124.9149-124.9148
   -79.2724 -79.2713 -79.2713 -79.2689 -79.2689 -79.2672 -79.2672 -79.2658
   -79.2636 -79.2636 -79.2630 -79.2592 -79.2585 -79.2576 -79.2576 -79.2566
   -79.2566 -79.2563 -79.2563 -79.2558 -79.2558 -79.2556 -79.2551 -79.2551
   -79.2549 -79.2549 -79.2547 -79.2545 -79.2545 -79.2543 -79.2539 -79.2539
   -79.2493 -79.2493 -79.2489 -79.2480 -79.2477 -79.2477 -79.2468 -79.2468
   -79.2447 -79.2447 -79.2434 -79.2434 -79.2402 -79.2402 -79.2400 -79.2381
   -79.0820 -79.0819 -79.0809 -79.0809 -79.0808 -79.0808 -79.0785 -79.0785
   -79.0784 -79.0784 -79.0769 -79.0768 -79.0767 -79.0767 -79.0755 -79.0754
   -79.0733 -79.0733 -79.0732 -79.0732 -79.0727 -79.0726 -79.0722 -79.0720
   -79.0714 -79.0714 -79.0712 -79.0712 -79.0704 -79.0704 -79.0703 -79.0703
   -79.0697 -79.0696 -79.0696 -79.0696 -79.0694 -79.0693 -79.0690 -79.0689
   -79.0689 -79.0689 -79.0688 -79.0688 -79.0688 -79.0688 -79.0688 -79.0687
   -79.0686 -79.0685 -79.0684 -79.0684 -79.0684 -79.0683 -79.0682 -79.0682
   -79.0660 -79.0660 -79.0659 -79.0659 -79.0636 -79.0636 -79.0635 -79.0635
   -79.0590 -79.0590 -79.0589 -79.0589 -79.0586 -79.0585 -79.0577 -79.0576
   -79.0573 -79.0573 -79.0572 -79.0572 -79.0565 -79.0565 -79.0564 -79.0564
   -79.0544 -79.0544 -79.0543 -79.0543 -79.0531 -79.0531 -79.0530 -79.0530
   -79.0499 -79.0499 -79.0498 -79.0498 -79.0497 -79.0496 -79.0478 -79.0477
    -8.4449  -7.7353  -7.7353  -7.2643  -7.0200  -6.9413  -6.9413  -6.9050
    -6.9050  -6.8579  -6.8515  -6.8515  -6.7674  -6.7674  -6.7305  -6.7305
    -6.7300  -6.7299  -6.7053  -6.6881  -6.6881  -6.6754  -6.6754  -6.6443
    -6.6261  -6.6261  -6.6243  -6.6243  -6.6013  -6.6013  -6.5820  -6.5820
    -6.5618  -6.5618  -6.5475  -6.5475  -6.5451  -6.5451  -6.5283  -6.5043
    -6.5002  -6.5002  -6.4915  -6.4915  -6.4856  -6.4625  -6.4456  -6.4388
    -6.4388  -6.4343  -6.4342  -6.3776  -6.3776  -6.3725  -6.3610  -6.3610
    -6.3502  -6.3315  -6.3248  -6.3186  -6.3186  -6.3061  -6.3060  -6.3037
    -6.3037  -6.2989  -6.2850  -6.2850  -6.2825  -6.2825  -6.2808  -6.2807
    -6.2733  -6.2338  -6.2338  -6.2238  -6.2238  -6.2146  -6.2146  -6.2104
    -6.1900  -6.1865  -6.1865  -6.1752  -6.1718  -6.1718  -6.1442  -6.1283
    -6.1212  -6.1212  -6.1094  -6.1094  -6.1030  -6.0940  -6.0844  -6.0258
    -6.0258  -6.0253  -6.0253  -6.0218  -6.0218  -6.0196  -6.0153  -6.0153
    -5.9831  -5.9811  -5.9772  -5.9753  -5.9753  -5.9682  -5.9682  -5.9660
    -5.9509  -5.9509  -5.9416  -5.9317  -5.9317  -5.9292  -5.9292  -5.9243
    -5.9220  -5.9220  -5.9155  -5.9155  -5.9154  -5.9034  -5.8971  -5.8878
    -5.8878  -5.8757  -5.8757  -5.8665  -5.8290  -5.8290  -5.8231  -5.8212
    -5.8049  -5.8044  -5.8044  -5.7787  -5.7787  -5.7771  -5.7609  -5.7609
    -5.7600  -5.7600  -5.7203  -5.7203  -5.7137  -5.7137  -5.7097  -5.7038
    -5.7038  -5.6992  -5.6992  -5.6930  -5.6930  -5.6921  -5.6921  -5.6853
    -5.6728  -5.6728  -5.6688  -5.6624  -5.6624  -5.6506  -5.6506  -5.6501
    -5.6501  -5.6454  -5.6454  -5.6317  -5.6317  -5.6216  -5.6101  -5.6101
    -5.6062  -5.6023  -5.6023  -5.5919  -5.5919  -5.5903  -5.5903  -5.5898
    -5.5898  -5.5818  -5.5746  -5.5567  -5.5567  -5.5558  -5.5558  -5.5502
    -5.5354  -5.5354  -5.5301  -5.5269  -5.5142  -5.5142  -5.5090  -5.5090
    -5.4939  -5.4939  -5.4931  -5.4931  -5.4922  -5.4818  -5.4818  -5.4758
    -5.4758  -5.4755  -5.4755  -5.4691  -5.4691  -5.4476  -5.4464  -5.4457
    -5.4450  -5.4377  -5.4377  -5.4219  -5.4059  -5.4058  -5.4022  -5.4022
    -5.3895  -5.3829  -5.3829  -5.3782  -5.3765  -5.3709  -5.3709  -5.3696
    -5.3629  -5.3629  -5.3387  -5.3387  -5.3255  -5.3255  -5.2901  -5.2901
    -5.2519  -5.2339  -5.2041  -5.2041  -5.2036  -5.2036  -5.0307  -5.0307
    -4.6677  -4.6677  -4.2150  -4.2150  -4.1234  -3.3193  -3.2313  -3.2313
    -3.1087  -3.1087  -2.7660  -2.7660  -2.7592  -2.5088  -2.5088  -1.8496
    -1.8496  -1.6637  -1.6637  -1.0627  -1.0627  -0.8801  -0.8801  -0.8385
    -0.8385  -0.5517  -0.4667  -0.4375   0.1115   0.3470   0.5071   0.5071
     0.5478   0.5622   0.5622   0.5999   0.5999   0.8713   0.8713   1.8031
     1.8031   1.8157   1.9216   1.9216   2.4134   2.8015   2.8015   2.9982
     2.9982   3.0563   3.3005   3.3050   3.3050   3.4081   3.4926   3.4973
     3.9140   3.9140   3.9399   3.9399   4.0159   4.0159   4.2915   4.3562
     4.5035   4.5035   4.6547   4.6547   4.7974   5.0796   5.0796   5.1976
     5.3024   5.3350   5.3350   5.5051   5.9062   5.9062   6.0236   6.0236
     6.0474   6.0474   6.0729   6.0729   6.2178   6.2178   6.2402   6.2402
     6.3635   6.3635   6.4351   6.4571   6.6256   6.7172   6.7172   6.7417
     6.7417   6.7836   7.0263   7.0996   7.0996   7.1749   7.1749   7.3406
     7.3406   7.3442   7.3442   7.3505   7.3505   7.3774   7.5704   7.5704
     7.8028   7.8161   8.0379   8.2718   8.2718   8.2903   8.2903   8.3075
     8.3075   8.4124   8.4124   8.4385   8.4385   8.4403   8.4686   8.4741
     8.4741   8.5238   8.5837   8.6698   8.6698   8.8120   8.9337   8.9338

     occupation numbers 
     1.0000   1.0000   1.0000   1.0000   1.0000   1.0000   1.0000   1.0000
     1.0000   1.0000   1.0000   1.0000   1.0000   1.0000   1.0000   1.0000
     1.0000   1.0000   1.0000   1.0000   1.0000   1.0000   1.0000   1.0000
     1.0000   1.0000   1.0000   1.0000   1.0000   1.0000   1.0000   1.0000
     1.0000   1.0000   1.0000   1.0000   1.0000   1.0000   1.0000   1.0000
     1.0000   1.0000   1.0000   1.0000   1.0000   1.0000   1.0000   1.0000
     1.0000   1.0000   1.0000   1.0000   1.0000   1.0000   1.0000   1.0000
     1.0000   1.0000   1.0000   1.0000   1.0000   1.0000   1.0000   1.0000
     1.0000   1.0000   1.0000   1.0000   1.0000   1.0000   1.0000   1.0000
     1.0000   1.0000   1.0000   1.0000   1.0000   1.0000   1.0000   1.0000
     1.0000   1.0000   1.0000   1.0000   1.0000   1.0000   1.0000   1.0000
     1.0000   1.0000   1.0000   1.0000   1.0000   1.0000   1.0000   1.0000
     1.0000   1.0000   1.0000   1.0000   1.0000   1.0000   1.0000   1.0000
     1.0000   1.0000   1.0000   1.0000   1.0000   1.0000   1.0000   1.0000
     1.0000   1.0000   1.0000   1.0000   1.0000   1.0000   1.0000   1.0000
     1.0000   1.0000   1.0000   1.0000   1.0000   1.0000   1.0000   1.0000
     1.0000   1.0000   1.0000   1.0000   1.0000   1.0000   1.0000   1.0000
     1.0000   1.0000   1.0000   1.0000   1.0000   1.0000   1.0000   1.0000
     1.0000   1.0000   1.0000   1.0000   1.0000   1.0000   1.0000   1.0000
     1.0000   1.0000   1.0000   1.0000   1.0000   1.0000   1.0000   1.0000
     1.0000   1.0000   1.0000   1.0000   1.0000   1.0000   1.0000   1.0000
     1.0000   1.0000   1.0000   1.0000   1.0000   1.0000   1.0000   1.0000
     1.0000   1.0000   1.0000   1.0000   1.0000   1.0000   1.0000   1.0000
     1.0000   1.0000   1.0000   1.0000   1.0000   1.0000   1.0000   1.0000
     1.0000   1.0000   1.0000   1.0000   1.0000   1.0000   1.0000   1.0000
     1.0000   1.0000   1.0000   1.0000   1.0000   1.0000   1.0000   1.0000
     1.0000   1.0000   1.0000   1.0000   1.0000   1.0000   1.0000   1.0000
     1.0000   1.0000   1.0000   1.0000   1.0000   1.0000   1.0000   1.0000
     1.0000   1.0000   1.0000   1.0000   1.0000   1.0000   1.0000   1.0000
     1.0000   1.0000   1.0000   1.0000   1.0000   1.0000   1.0000   1.0000
     1.0000   1.0000   1.0000   1.0000   1.0000   1.0000   1.0000   1.0000
     1.0000   1.0000   1.0000   1.0000   1.0000   1.0000   1.0000   1.0000
     1.0000   1.0000   1.0000   1.0000   1.0000   1.0000   1.0000   1.0000
     1.0000   1.0000   1.0000   1.0000   1.0000   1.0000   1.0000   1.0000
     1.0000   1.0000   1.0000   1.0000   1.0000   1.0000   1.0000   1.0000
     1.0000   1.0000   1.0000   1.0000   1.0000   1.0000   1.0000   1.0000
     1.0000   1.0000   1.0000   1.0000   1.0000   1.0000   1.0000   1.0000
     1.0000   1.0000   1.0000   1.0000   1.0000   1.0000   1.0000   1.0000
     1.0000   1.0000   1.0000   1.0000   1.0000   1.0000   1.0000   1.0000
     1.0000   1.0000   1.0000   1.0000   1.0000   1.0000   1.0000   1.0000
     1.0000   1.0000   1.0000   1.0000   1.0000   1.0000   1.0000   1.0000
     1.0000   1.0000   1.0000   1.0000   1.0000   1.0000   1.0000   1.0000
     1.0000   1.0000   1.0000   1.0000   1.0000   1.0000   1.0000   1.0000
     1.0000   1.0000   1.0000   1.0000   1.0000   1.0000   1.0000   1.0000
     1.0000   1.0000   1.0000   1.0000   1.0000   1.0000   1.0000   1.0000
     1.0000   1.0000   1.0000   1.0000   1.0000   1.0000   1.0000   1.0000
     1.0000   1.0000   1.0000   1.0000   1.0000   1.0000   1.0000   1.0000
     1.0000   1.0000   1.0000   1.0000   1.0000   1.0000   1.0000   1.0000
     1.0000   1.0000   1.0000   1.0000   1.0000   1.0000   1.0000   1.0000
     1.0000   1.0000   1.0000   1.0000   1.0000   1.0000   1.0000   1.0000
     1.0000   1.0000   1.0000   1.0000   1.0000   1.0000   1.0000   1.0000
     1.0000   1.0000   1.0000   1.0000   1.0000   1.0000   1.0000   1.0000
     1.0000   1.0000   1.0000   1.0000   1.0000   1.0000   1.0000   1.0000
     1.0000   1.0000   1.0000   1.0000   1.0000   1.0000   1.0000   1.0000
     1.0000   1.0000   1.0000   1.0000   1.0000   1.0000   1.0000   1.0000
     1.0000   1.0000   1.0000   1.0000   1.0000   1.0000   1.0000   1.0000
     1.0000   1.0000   1.0000   1.0000   1.0000   1.0000   1.0000   1.0000
     1.0000   1.0000   1.0000   1.0000   1.0000   1.0000   1.0000   1.0000
     1.0000   1.0000   1.0000   1.0000   1.0000   1.0000   1.0000   1.0000
     1.0000   1.0000   1.0000   1.0001   1.0001   1.0091   1.0091   0.0439
     0.0439   0.0376   0.0086   0.0086   0.0000   0.0000   0.0000   0.0000
     0.0000   0.0000   0.0000   0.0000   0.0000   0.0000   0.0000   0.0000
     0.0000   0.0000   0.0000   0.0000   0.0000   0.0000   0.0000   0.0000
     0.0000   0.0000   0.0000   0.0000   0.0000   0.0000   0.0000   0.0000
     0.0000   0.0000   0.0000   0.0000   0.0000   0.0000   0.0000   0.0000
     0.0000   0.0000   0.0000   0.0000   0.0000   0.0000   0.0000   0.0000
     0.0000   0.0000   0.0000   0.0000   0.0000   0.0000   0.0000   0.0000
     0.0000   0.0000   0.0000   0.0000   0.0000   0.0000   0.0000   0.0000
     0.0000   0.0000   0.0000   0.0000   0.0000   0.0000   0.0000   0.0000
     0.0000   0.0000   0.0000   0.0000   0.0000   0.0000   0.0000   0.0000
     0.0000   0.0000   0.0000   0.0000   0.0000   0.0000   0.0000   0.0000
     0.0000   0.0000   0.0000   0.0000   0.0000   0.0000   0.0000   0.0000

     the Fermi energy is     1.5625 ev

!    total energy              =  -22154.27318996 Ry
     estimated scf accuracy    <       0.00000098 Ry
     smearing contrib. (-TS)   =      -0.00690857 Ry
     internal energy E=F+TS    =  -22154.26628139 Ry

     The total energy is F=E-TS. E is the sum of the following terms:
     one-electron contribution = -144862.08344220 Ry
     hartree contribution      =   72362.69535870 Ry
     xc contribution           =   -2024.12614158 Ry
     ewald contribution        =   52369.24794369 Ry

     convergence has been achieved in  10 iterations

     Writing all to output data dir ./tmp/Zn002.save/ :
     XML data file, charge density, pseudopotentials, collected wavefunctions

     init_run     :    149.66s CPU    150.73s WALL (       1 calls)
     electrons    :  10503.91s CPU  10589.42s WALL (       1 calls)

     Called by init_run:
     wfcinit      :    148.35s CPU    149.37s WALL (       1 calls)
     wfcinit:atom :      0.11s CPU      0.18s WALL (      13 calls)
     wfcinit:wfcr :    146.87s CPU    147.64s WALL (      13 calls)
     potinit      :      0.08s CPU      0.09s WALL (       1 calls)
     hinit0       :      0.03s CPU      0.04s WALL (       1 calls)

     Called by electrons:
     c_bands      :  10061.42s CPU  10141.87s WALL (      11 calls)
     sum_band     :    416.18s CPU    419.97s WALL (      11 calls)
     v_of_rho     :      0.95s CPU      1.00s WALL (      11 calls)
     v_h          :      0.07s CPU      0.08s WALL (      11 calls)
     v_xc         :      0.88s CPU      0.93s WALL (      11 calls)
     newd         :     26.05s CPU     27.22s WALL (      11 calls)
     mix_rho      :      0.13s CPU      0.14s WALL (      11 calls)

     Called by c_bands:
     init_us_2    :      6.07s CPU      6.12s WALL (     299 calls)
     cegterg      :  10049.86s CPU  10129.80s WALL (     143 calls)

     Called by sum_band:
     sum_band:wei :      0.08s CPU      0.08s WALL (      11 calls)
     sum_band:loo :    389.58s CPU    391.51s WALL (      11 calls)
     sum_band:buf :      1.27s CPU      1.32s WALL (     143 calls)
     sum_band:ini :      2.92s CPU      2.93s WALL (     143 calls)
     sum_band:cal :    333.46s CPU    334.95s WALL (     143 calls)
     sum_band:bec :      3.07s CPU      3.08s WALL (     143 calls)
     addusdens    :     26.21s CPU     28.05s WALL (      11 calls)
                                        0.00s GPU  (      11 calls)
     addusd:skk   :      0.10s CPU      0.15s WALL (      11 calls)
                                        0.00s GPU  (      11 calls)

     Called by *egterg:
     cdiaghg      :    382.60s CPU    398.11s WALL (     877 calls)
     cegterg:over :   2389.54s CPU   2399.39s WALL (     747 calls)
     cegterg:upda :    674.04s CPU    679.64s WALL (     747 calls)
     cegterg:last :   3837.64s CPU   3859.94s WALL (     275 calls)
     cdiaghg:chol :     23.68s CPU     23.75s WALL (     877 calls)
     cdiaghg:inve :      3.78s CPU      3.79s WALL (     877 calls)
     cdiaghg:para :    100.46s CPU    102.85s WALL (    1754 calls)
     h_psi        :   1773.45s CPU   1785.66s WALL (     903 calls)
     s_psi        :    738.61s CPU    740.48s WALL (     903 calls)
     g_psi        :      0.95s CPU      0.97s WALL (     747 calls)

     Called by h_psi:
     h_psi:calbec :    800.16s CPU    803.92s WALL (     903 calls)
     vloc_psi     :    223.66s CPU    225.48s WALL (     903 calls)
     add_vuspsi   :    747.28s CPU    749.32s WALL (     903 calls)

     General routines
     calbec       :   1133.62s CPU   1138.87s WALL (    1046 calls)
     fft          :      0.69s CPU      0.76s WALL (     141 calls)
     ffts         :      0.02s CPU      0.03s WALL (      22 calls)
     fftw         :    236.78s CPU    238.60s WALL (  480830 calls)
     interpolate  :      0.05s CPU      0.06s WALL (      11 calls)

     Parallel routines

     PWSCF        :      2h57m CPU      2h59m WALL


   This run was terminated on:   4:14:28  27Mar2025            

=------------------------------------------------------------------------------=
   JOB DONE.
=------------------------------------------------------------------------------=
