--------------------------------------------------------------------------
WARNING: There was an error initializing an OpenFabrics device.

  Local host:   ga00
  Local device: mlx5_0
--------------------------------------------------------------------------

     Program PWSCF v.7.3.1 starts on  5Apr2025 at 12:30: 1 

     This program is part of the open-source Quantum ESPRESSO suite
     for quantum simulation of materials; please cite
         "P. Giannozzi et al., J. Phys.:Condens. Matter 21 395502 (2009);
         "P. Giannozzi et al., J. Phys.:Condens. Matter 29 465901 (2017);
         "P. Giannozzi et al., J. Chem. Phys. 152 154105 (2020);
          URL http://www.quantum-espresso.org", 
     in publications or presentations arising from this work. More details at
     http://www.quantum-espresso.org/quote

     Parallel version (MPI), running on    31 processors

     MPI processes distributed on     1 nodes
     103971 MiB available memory on the printing compute node when the environment starts

     Waiting for input...
     Reading input from standard input
Warning: card &CELL ignored
Warning: card   CELL_DOFREE = 'ALL' ignored
Warning: card / ignored

     Current dimensions of program PWSCF are:
     Max number of different atomic species (ntypx) = 10
     Max number of k-points (npk) =  40000
     Max angular momentum in pseudopotentials (lmaxx) =  4
     Presently stress not available with electric field and gates

     Message from routine input:
     WARNING: "startingwfc" set to atomic+random may spoil restart
     Message from routine input:
     WARNING: "startingpot" set to atomic may spoil restart
     file C.pbe-n-kjpaw_psl.1.0.0.UPF: wavefunction(s)  2S 2P renormalized

     R & G space division:  proc/nbgrp/npool/nimage =      31
     Subspace diagonalization in iterative solution of the eigenvalue problem:
     one sub-group per band group will be used
     custom distributed-memory algorithm (size of sub-group:  5*  5 procs)


     Parallelization info
     --------------------
     sticks:   dense  smooth     PW     G-vecs:    dense   smooth      PW
     Min         243     138     37                38743    16729    2309
     Max         246     140     38                38746    16740    2312
     Sum        7555    4303   1159              1201061   518755   71619

     Using Slab Decomposition



     bravais-lattice index     =            0
     lattice parameter (alat)  =      19.7617  a.u.
     unit-cell volume          =   15176.5939 (a.u.)^3
     number of atoms/cell      =           63
     number of atomic types    =            4
     number of electrons       =       996.00
     number of Kohn-Sham states=          598
     kinetic-energy cutoff     =      40.0000  Ry
     charge density cutoff     =     280.0000  Ry
     scf convergence threshold =      1.0E-06
     mixing beta               =       0.4000
     number of iterations used =            8  plain     mixing
     energy convergence thresh.=      4.0E-05
     force convergence thresh. =      8.0E-04
     Exchange-correlation= PBE
                           (   1   4   3   4   0   0   0)
     nstep                     =          100


     celldm(1)=  19.761696  celldm(2)=   0.000000  celldm(3)=   0.000000
     celldm(4)=   0.000000  celldm(5)=   0.000000  celldm(6)=   0.000000

     crystal axes: (cart. coord. in units of alat)
               a(1) = (   1.000000   0.000000   0.000000 )  
               a(2) = (  -0.500000   0.866025   0.000000 )  
               a(3) = (   0.000000   0.000000   2.270759 )  

     reciprocal axes: (cart. coord. in units 2 pi/alat)
               b(1) = (  1.000000  0.577350 -0.000000 )  
               b(2) = (  0.000000  1.154701  0.000000 )  
               b(3) = (  0.000000 -0.000000  0.440381 )  


     PseudoPot. # 1 for Zn read from file:
     /home/yongsang/Research/PSID_server_room/qe/[00]QE/qepseudo/SSSP_1.3.0_PBE_efficiency/Zn_pbe_v1.uspp.F.UPF
     MD5 check sum: df62231357ef9e81f77b2b3087fa5675
     Pseudo is Ultrasoft, Zval = 20.0
     Generated by new atomic code, or converted to UPF format
     Using radial grid of  943 points,  6 beta functions with: 
                l(1) =   0
                l(2) =   0
                l(3) =   1
                l(4) =   1
                l(5) =   2
                l(6) =   2
     Q(r) pseudized with  8 coefficients,  rinner =    1.100   1.100   1.100
                                                       1.100   1.100

     PseudoPot. # 2 for N  read from file:
     /home/yongsang/Research/PSID_server_room/qe/[00]QE/qepseudo/SSSP_1.3.0_PBE_efficiency/N.pbe-n-radius_5.UPF
     MD5 check sum: 16739722b17309cd8fe442a2ace49922
     Pseudo is Ultrasoft + core correction, Zval =  5.0
     Generated using "atomic" code by A. Dal Corso  v.5.1
     Using radial grid of 1085 points,  4 beta functions with: 
                l(1) =   0
                l(2) =   0
                l(3) =   1
                l(4) =   1
     Q(r) pseudized with 0 coefficients 


     PseudoPot. # 3 for C  read from file:
     /home/yongsang/Research/PSID_server_room/qe/[00]QE/qepseudo/SSSP_1.3.0_PBE_efficiency/C.pbe-n-kjpaw_psl.1.0.0.UPF
     MD5 check sum: 5d2aebdfa2cae82b50a7e79e9516da0f
     Pseudo is Projector augmented-wave + core cor, Zval =  4.0
     Generated using "atomic" code by A. Dal Corso  v.5.1
     Shape of augmentation charge: PSQ
     Using radial grid of 1073 points,  4 beta functions with: 
                l(1) =   0
                l(2) =   0
                l(3) =   1
                l(4) =   1
     Q(r) pseudized with 0 coefficients 


     PseudoPot. # 4 for H  read from file:
     /home/yongsang/Research/PSID_server_room/qe/[00]QE/qepseudo/SSSP_1.3.0_PBE_efficiency/H.pbe-rrkjus_psl.1.0.0.UPF
     MD5 check sum: f52b6d4d1c606e5624b1dc7b2218f220
     Pseudo is Ultrasoft, Zval =  1.0
     Generated using "atomic" code by A. Dal Corso  v.5.1
     Using radial grid of  929 points,  2 beta functions with: 
                l(1) =   0
                l(2) =   0
     Q(r) pseudized with 0 coefficients 


     atomic species   valence    mass     pseudopotential
     Zn               20.00    65.38000     Zn( 1.00)
     N                 5.00    14.00674     N ( 1.00)
     C                 4.00    12.01070     C ( 1.00)
     H                 1.00     1.00794     H ( 1.00)

     No symmetry found


                                    s                        frac. trans.

      isym =  1     identity                                     

 cryst.   s( 1) = (     1          0          0      )
                  (     0          1          0      )
                  (     0          0          1      )

 cart.    s( 1) = (  1.0000000  0.0000000  0.0000000 )
                  (  0.0000000  1.0000000  0.0000000 )
                  (  0.0000000  0.0000000  1.0000000 )


   Cartesian axes

     site n.     atom                  positions (alat units)
         1        Zn     tau(   1) = (   0.0000000   0.1443375   0.1164998  )
         2        Zn     tau(   2) = (   0.5000000   0.1443375   0.1164998  )
         3        Zn     tau(   3) = (  -0.0000499   0.1441562   0.5930126  )
         4        Zn     tau(   4) = (   0.4999768   0.1440598   0.5929798  )
         5        Zn     tau(   5) = (  -0.1250000   0.3608439   0.1164998  )
         6        Zn     tau(   6) = (   0.3750000   0.3608439   0.1164998  )
         7        Zn     tau(   7) = (  -0.1250128   0.3606880   0.5938622  )
         8        Zn     tau(   8) = (   0.3750816   0.3605818   0.5901549  )
         9        Zn     tau(   9) = (  -0.2500000   0.5773502   0.1164998  )
        10        Zn     tau(  10) = (   0.2500000   0.5773502   0.1164998  )
        11        Zn     tau(  11) = (  -0.2500557   0.5773010   0.5930873  )
        12        Zn     tau(  12) = (   0.2498461   0.5777611   0.5690006  )
        13        Zn     tau(  13) = (  -0.3750000   0.7938567   0.1164998  )
        14        Zn     tau(  14) = (   0.1250000   0.7938567   0.1164998  )
        15        Zn     tau(  15) = (  -0.3750956   0.7937092   0.5938035  )
        16        Zn     tau(  16) = (   0.1250071   0.7937671   0.5927657  )
        17        Zn     tau(  17) = (   0.2500000   0.1443375   0.1164998  )
        18        Zn     tau(  18) = (   0.7500000   0.1443375   0.1164998  )
        19        Zn     tau(  19) = (   0.2499675   0.1442893   0.5938620  )
        20        Zn     tau(  20) = (   0.7498989   0.1441620   0.5935777  )
        21        Zn     tau(  21) = (   0.1250000   0.3608439   0.1164998  )
        22        Zn     tau(  22) = (   0.6250000   0.3608439   0.1164998  )
        23        Zn     tau(  23) = (   0.1247759   0.3605782   0.5900454  )
        24        Zn     tau(  24) = (   0.6249342   0.3606883   0.5938306  )
        25        Zn     tau(  25) = (   0.0000000   0.5773502   0.1164998  )
        26        Zn     tau(  26) = (   0.5000000   0.5773502   0.1164998  )
        27        Zn     tau(  27) = (  -0.0001966   0.5771600   0.5914390  )
        28        Zn     tau(  28) = (   0.5000085   0.5771320   0.5913888  )
        29        Zn     tau(  29) = (  -0.1250000   0.7938567   0.1164998  )
        30        Zn     tau(  30) = (   0.3750000   0.7938567   0.1164998  )
        31        Zn     tau(  31) = (  -0.1249754   0.7937326   0.5936214  )
        32        Zn     tau(  32) = (   0.3749417   0.7939463   0.5919976  )
        33        Zn     tau(  33) = (   0.1250863   0.0719987   0.3549329  )
        34        Zn     tau(  34) = (   0.6247109   0.0724305   0.3553400  )
        35        Zn     tau(  35) = (  -0.0003023   0.2881651   0.3553511  )
        36        Zn     tau(  36) = (   0.5002824   0.2881015   0.3550122  )
        37        Zn     tau(  37) = (  -0.1255661   0.5051525   0.3550786  )
        38        Zn     tau(  38) = (   0.3762916   0.5044008   0.3518535  )
        39        Zn     tau(  39) = (  -0.2499926   0.7218306   0.3549053  )
        40        Zn     tau(  40) = (   0.2499333   0.7233675   0.3519747  )
        41        Zn     tau(  41) = (   0.3748060   0.0719867   0.3548153  )
        42        Zn     tau(  42) = (   0.8752270   0.0725633   0.3550895  )
        43        Zn     tau(  43) = (   0.2498815   0.2877851   0.3545638  )
        44        Zn     tau(  44) = (   0.7499983   0.2885973   0.3543649  )
        45        Zn     tau(  45) = (   0.1235184   0.5044439   0.3519742  )
        46        Zn     tau(  46) = (   0.6254711   0.5051794   0.3554334  )
        47        Zn     tau(  47) = (  -0.0006204   0.7220845   0.3549759  )
        48        Zn     tau(  48) = (   0.5006051   0.7220501   0.3549344  )
        49        C      tau(  49) = (   0.3533534   0.6053919   1.2094210  )
        50        C      tau(  50) = (   0.2536770   0.5440368   1.2739583  )
        51        C      tau(  51) = (   0.3537061   0.6106061   1.0759586  )
        52        C      tau(  52) = (   0.1535193   0.4875022   1.2059398  )
        53        C      tau(  53) = (   0.2528989   0.5532374   1.0106343  )
        54        C      tau(  54) = (   0.1523317   0.4917175   1.0724313  )
        55        N      tau(  55) = (   0.2519762   0.5592294   0.8696514  )
        56        H      tau(  56) = (   0.4312722   0.6489776   1.2631997  )
        57        H      tau(  57) = (   0.2543173   0.5398253   1.3781548  )
        58        H      tau(  58) = (   0.3425633   0.5572280   0.8288693  )
        59        H      tau(  59) = (   0.4309347   0.6581191   1.0240146  )
        60        H      tau(  60) = (   0.0763124   0.4396297   1.2570234  )
        61        H      tau(  61) = (   0.2038114   0.4837605   0.8265985  )
        62        H      tau(  62) = (   0.0748468   0.4477119   1.0177891  )
        63        H      tau(  63) = (   0.2092607   0.6408513   0.8320093  )

     --------------------------------------------
     DFT-D3 Dispersion Correction (3-body terms):
     --------------------------------------------
       Reference C6 values for interpolation: 

         atom   Coordination number   C6
         H          0.912             6.05
         H          0.000            15.18
         C          0.000            98.23
         C          0.987            86.49
         C          1.998            58.72
         C          2.999            51.56
         C          3.984            36.41
         N          0.000            50.54
         N          0.994            44.25
         N          2.014            39.35
         N          2.990            31.16
         Zn         0.000           681.04
         Zn         1.942           306.91

       Values used:

         atom   Coordination number  R0_AB[au]  C6      C8
         Zn         6.705            3.053    306.91  23930.67
         Zn         6.707            3.053    306.91  23930.67
         Zn         6.735            3.053    306.91  23930.67
         Zn         6.733            3.053    306.91  23930.67
         Zn         6.707            3.053    306.91  23930.67
         Zn         6.745            3.053    306.91  23930.67
         Zn         6.688            3.053    306.91  23930.67
         Zn         6.773            3.053    306.91  23930.67
         Zn         6.704            3.053    306.91  23930.67
         Zn         6.779            3.053    306.91  23930.67
         Zn         6.730            3.053    306.91  23930.67
         Zn         7.441            3.053    306.91  23930.67
         Zn         6.713            3.053    306.91  23930.67
         Zn         6.739            3.053    306.91  23930.67
         Zn         6.695            3.053    306.91  23930.67
         Zn         6.698            3.053    306.91  23930.67
         Zn         6.719            3.053    306.91  23930.67
         Zn         6.707            3.053    306.91  23930.67
         Zn         6.688            3.053    306.91  23930.67
         Zn         6.700            3.053    306.91  23930.67
         Zn         6.741            3.053    306.91  23930.67
         Zn         6.706            3.053    306.91  23930.67
         Zn         6.787            3.053    306.91  23930.67
         Zn         6.688            3.053    306.91  23930.67
         Zn         6.740            3.053    306.91  23930.67
         Zn         6.737            3.053    306.91  23930.67
         Zn         6.738            3.053    306.91  23930.67
         Zn         6.741            3.053    306.91  23930.67
         Zn         6.714            3.053    306.91  23930.67
         Zn         6.741            3.053    306.91  23930.67
         Zn         6.703            3.053    306.91  23930.67
         Zn         6.720            3.053    306.91  23930.67
         Zn         8.245            3.053    306.91  23930.67
         Zn         8.258            3.053    306.91  23930.67
         Zn         8.285            3.053    306.91  23930.67
         Zn         8.280            3.053    306.91  23930.67
         Zn         8.266            3.053    306.91  23930.67
         Zn         8.532            3.053    306.91  23930.67
         Zn         8.246            3.053    306.91  23930.67
         Zn         8.506            3.053    306.91  23930.67
         Zn         8.247            3.053    306.91  23930.67
         Zn         8.266            3.053    306.91  23930.67
         Zn         8.306            3.053    306.91  23930.67
         Zn         8.230            3.053    306.91  23930.67
         Zn         8.535            3.053    306.91  23930.67
         Zn         8.265            3.053    306.91  23930.67
         Zn         8.267            3.053    306.91  23930.67
         Zn         8.271            3.053    306.91  23930.67
         C          3.136            2.750     50.64   1464.61
         C          3.130            2.750     50.69   1465.92
         C          3.152            2.750     50.52   1461.04
         C          3.136            2.750     50.64   1464.62
         C          3.169            2.750     50.37   1456.86
         C          3.152            2.750     50.52   1461.05
         N          4.083            2.478     31.16    687.49
         H          1.003            2.062      6.18     74.69
         H          1.003            2.062      6.18     74.69
         H          1.012            2.062      6.17     74.60
         H          1.003            2.062      6.18     74.69
         H          1.003            2.062      6.18     74.69
         H          1.012            2.062      6.17     74.59
         H          1.003            2.062      6.18     74.69
         H          1.010            2.062      6.17     74.61

         Molecular C6 ( Ry / a.u.^6 ) =    824367.86


   Crystallographic axes

     site n.     atom                  positions (cryst. coord.)
         1        Zn     tau(   1) = (  0.0833333  0.1666666  0.0513044  )
         2        Zn     tau(   2) = (  0.5833333  0.1666666  0.0513044  )
         3        Zn     tau(   3) = (  0.0831787  0.1664572  0.2611517  )
         4        Zn     tau(   4) = (  0.5831498  0.1663459  0.2611373  )
         5        Zn     tau(   5) = (  0.0833333  0.4166666  0.0513044  )
         6        Zn     tau(   6) = (  0.5833333  0.4166666  0.0513044  )
         7        Zn     tau(   7) = (  0.0832305  0.4164866  0.2615259  )
         8        Zn     tau(   8) = (  0.5832636  0.4163640  0.2598932  )
         9        Zn     tau(   9) = (  0.0833333  0.6666666  0.0513044  )
        10        Zn     tau(  10) = (  0.5833333  0.6666666  0.0513044  )
        11        Zn     tau(  11) = (  0.0832492  0.6666098  0.2611846  )
        12        Zn     tau(  12) = (  0.5834166  0.6671410  0.2505773  )
        13        Zn     tau(  13) = (  0.0833333  0.9166667  0.0513044  )
        14        Zn     tau(  14) = (  0.5833334  0.9166667  0.0513044  )
        15        Zn     tau(  15) = (  0.0831527  0.9164965  0.2615000  )
        16        Zn     tau(  16) = (  0.5832888  0.9165633  0.2610430  )
        17        Zn     tau(  17) = (  0.3333333  0.1666666  0.0513044  )
        18        Zn     tau(  18) = (  0.8333334  0.1666666  0.0513044  )
        19        Zn     tau(  19) = (  0.3332729  0.1666109  0.2615258  )
        20        Zn     tau(  20) = (  0.8331309  0.1664639  0.2614006  )
        21        Zn     tau(  21) = (  0.3333333  0.4166666  0.0513044  )
        22        Zn     tau(  22) = (  0.8333333  0.4166666  0.0513044  )
        23        Zn     tau(  23) = (  0.3329558  0.4163599  0.2598450  )
        24        Zn     tau(  24) = (  0.8331777  0.4164869  0.2615120  )
        25        Zn     tau(  25) = (  0.3333333  0.6666666  0.0513044  )
        26        Zn     tau(  26) = (  0.8333333  0.6666666  0.0513044  )
        27        Zn     tau(  27) = (  0.3330269  0.6664470  0.2604587  )
        28        Zn     tau(  28) = (  0.8332158  0.6664146  0.2604367  )
        29        Zn     tau(  29) = (  0.3333334  0.9166667  0.0513044  )
        30        Zn     tau(  30) = (  0.8333334  0.9166667  0.0513044  )
        31        Zn     tau(  31) = (  0.3332864  0.9165235  0.2614199  )
        32        Zn     tau(  32) = (  0.8333268  0.9167702  0.2607047  )
        33        Zn     tau(  33) = (  0.1666548  0.0831370  0.1563059  )
        34        Zn     tau(  34) = (  0.6665286  0.0836355  0.1564852  )
        35        Zn     tau(  35) = (  0.1660699  0.3327444  0.1564900  )
        36        Zn     tau(  36) = (  0.6666179  0.3326710  0.1563408  )
        37        Zn     tau(  37) = (  0.1660838  0.5832998  0.1563700  )
        38        Zn     tau(  38) = (  0.6675075  0.5824319  0.1549497  )
        39        Zn     tau(  39) = (  0.1667565  0.8334981  0.1562937  )
        40        Zn     tau(  40) = (  0.6675698  0.8352729  0.1550031  )
        41        Zn     tau(  41) = (  0.4163676  0.0831231  0.1562541  )
        42        Zn     tau(  42) = (  0.9171214  0.0837888  0.1563748  )
        43        Zn     tau(  43) = (  0.4160343  0.3323056  0.1561433  )
        44        Zn     tau(  44) = (  0.9166201  0.3332435  0.1560557  )
        45        Zn     tau(  45) = (  0.4147592  0.5824816  0.1550029  )
        46        Zn     tau(  46) = (  0.9171365  0.5833310  0.1565262  )
        47        Zn     tau(  47) = (  0.4162753  0.8337914  0.1563248  )
        48        Zn     tau(  48) = (  0.9174809  0.8337516  0.1563065  )
        49        C      tau(  49) = (  0.7028766  0.6990464  0.5326065  )
        50        C      tau(  50) = (  0.5677767  0.6281995  0.5610276  )
        51        C      tau(  51) = (  0.7062397  0.7050672  0.4738322  )
        52        C      tau(  52) = (  0.4349788  0.5629191  0.5310735  )
        53        C      tau(  53) = (  0.5723107  0.6388236  0.4450646  )
        54        C      tau(  54) = (  0.4362249  0.5677865  0.4722788  )
        55        N      tau(  55) = (  0.5748474  0.6457425  0.3829783  )
        56        H      tau(  56) = (  0.8059596  0.7493748  0.5562897  )
        57        H      tau(  57) = (  0.5659856  0.6233366  0.6069138  )
        58        H      tau(  58) = (  0.6642790  0.6434314  0.3650187  )
        59        H      tau(  59) = (  0.8109000  0.7599305  0.4509570  )
        60        H      tau(  60) = (  0.3301327  0.5076407  0.5535698  )
        61        H      tau(  61) = (  0.4831107  0.5585985  0.3640186  )
        62        H      tau(  62) = (  0.3333334  0.5169732  0.4482154  )
        63        H      tau(  63) = (  0.5792564  0.7399913  0.3664015  )

     number of k points=     5  Marzari-Vanderbilt smearing, width (Ry)=  0.0200
                       cart. coord. in units 2pi/alat
        k(    1) = (   0.0000000   0.0000000   0.0000000), wk =   0.2222222
        k(    2) = (   0.0000000   0.3849002   0.0000000), wk =   0.4444444
        k(    3) = (   0.3333333   0.1924501   0.0000000), wk =   0.4444444
        k(    4) = (   0.3333333   0.5773503   0.0000000), wk =   0.4444444
        k(    5) = (   0.3333333  -0.1924501   0.0000000), wk =   0.4444444

                       cryst. coord.
        k(    1) = (   0.0000000   0.0000000   0.0000000), wk =   0.2222222
        k(    2) = (   0.0000000   0.3333333   0.0000000), wk =   0.4444444
        k(    3) = (   0.3333333   0.0000000   0.0000000), wk =   0.4444444
        k(    4) = (   0.3333333   0.3333333   0.0000000), wk =   0.4444444
        k(    5) = (   0.3333333  -0.3333333   0.0000000), wk =   0.4444444

     Dense  grid:  1201061 G-vectors     FFT dimensions: ( 108, 108, 240)

     Smooth grid:   518755 G-vectors     FFT dimensions: (  80,  80, 192)

     Dynamical RAM for                 wfc:      19.08 MB

     Dynamical RAM for     wfc (w. buffer):     114.48 MB

     Dynamical RAM for           str. fact:       2.36 MB

     Dynamical RAM for           local pot:       0.00 MB

     Dynamical RAM for          nlocal pot:      29.86 MB

     Dynamical RAM for                qrad:       5.37 MB

     Dynamical RAM for          rho,v,vnew:       3.91 MB

     Dynamical RAM for               rhoin:       1.30 MB

     Dynamical RAM for            rho*nmix:       9.46 MB

     Dynamical RAM for           G-vectors:       2.34 MB

     Dynamical RAM for          h,s,v(r/c):       2.61 MB

     Dynamical RAM for          <psi|beta>:       8.54 MB

     Dynamical RAM for                 psi:      38.16 MB

     Dynamical RAM for                hpsi:      38.16 MB

     Dynamical RAM for                spsi:      38.16 MB

     Dynamical RAM for      wfcinit/wfcrot:      52.09 MB

     Dynamical RAM for           addusdens:     138.34 MB

     Dynamical RAM for          addusforce:     194.40 MB

     Estimated static dynamical RAM per process >     166.15 MB

     Estimated max dynamical RAM per process >     370.02 MB

     Estimated total dynamical RAM >      11.20 GB

     Atomic positions and unit cell read from directory:
     ./tmp/01_Zn002_topsite_upright.save/


     The initial density is read from file :
     ./tmp/01_Zn002_topsite_upright.save/charge-density


     negative rho (up, down):  2.603E-03 0.000E+00

     Adding external electric field

     Computed dipole along edir(1) : 
        Elec. dipole         -0.4725 Ry au,         -1.2010 Debye
        Ion. dipole          -0.5272 Ry au,         -1.3401 Debye
        Dipole              -66.0894 Ry au,       -167.9825 Debye
        Dipole field         -0.0547 Ry au, 

        Potential amp.        1.9465 Ry
        Total length         17.7855 bohr

     Starting wfcs are  660 randomized atomic wfcs
[ga00:277153] 30 more processes have sent help message help-mpi-btl-openib.txt / error in device init
[ga00:277153] Set MCA parameter "orte_base_help_aggregate" to 0 to see all help / error messages
     Checking if some PAW data can be deallocated... 
       PAW data deallocated on   27 nodes for type:  3

     total cpu time spent up to now is       28.4 secs

     Self-consistent Calculation

     iteration #  1     ecut=    40.00 Ry     beta= 0.40
     Davidson diagonalization with overlap

---- Real-time Memory Report at c_bands before calling an iterative solver
           409 MiB given to the printing process from OS
             0 MiB allocation reported by mallinfo(arena+hblkhd)
         98007 MiB available memory on the node where the printing process lives
------------------
     c_bands:  3 eigenvalues not converged
     c_bands:  2 eigenvalues not converged
     c_bands:  1 eigenvalues not converged
     ethr =  1.00E-05,  avg # of iterations = 19.8

     Threshold (ethr) on eigenvalues was too large:
     Diagonalizing with lowered threshold

     Davidson diagonalization with overlap

---- Real-time Memory Report at c_bands before calling an iterative solver
           512 MiB given to the printing process from OS
             0 MiB allocation reported by mallinfo(arena+hblkhd)
         96938 MiB available memory on the node where the printing process lives
------------------
     ethr =  5.30E-09,  avg # of iterations =  4.0

     negative rho (up, down):  2.604E-03 0.000E+00

     Adding external electric field

     Computed dipole along edir(1) : 
        Elec. dipole         -0.4725 Ry au,         -1.2009 Debye
        Ion. dipole          -0.5272 Ry au,         -1.3401 Debye
        Dipole              -66.1233 Ry au,       -168.0687 Debye
        Dipole field         -0.0548 Ry au, 

        Potential amp.        1.9475 Ry
        Total length         17.7855 bohr


     total cpu time spent up to now is      490.7 secs

     total energy              =  -22284.02897067 Ry
     estimated scf accuracy    <       0.00003993 Ry

     iteration #  2     ecut=    40.00 Ry     beta= 0.40
     Davidson diagonalization with overlap

---- Real-time Memory Report at c_bands before calling an iterative solver
           527 MiB given to the printing process from OS
             0 MiB allocation reported by mallinfo(arena+hblkhd)
         93491 MiB available memory on the node where the printing process lives
------------------
     ethr =  4.01E-09,  avg # of iterations =  3.0

     negative rho (up, down):  2.603E-03 0.000E+00

     Adding external electric field

     Computed dipole along edir(1) : 
        Elec. dipole         -0.4725 Ry au,         -1.2010 Debye
        Ion. dipole          -0.5272 Ry au,         -1.3401 Debye
        Dipole              -66.0946 Ry au,       -167.9956 Debye
        Dipole field         -0.0547 Ry au, 

        Potential amp.        1.9467 Ry
        Total length         17.7855 bohr


     total cpu time spent up to now is      582.1 secs

     total energy              =  -22284.02890884 Ry
     estimated scf accuracy    <       0.00187926 Ry

     iteration #  3     ecut=    40.00 Ry     beta= 0.40
     Davidson diagonalization with overlap

---- Real-time Memory Report at c_bands before calling an iterative solver
           532 MiB given to the printing process from OS
             0 MiB allocation reported by mallinfo(arena+hblkhd)
         93469 MiB available memory on the node where the printing process lives
------------------
     ethr =  4.01E-09,  avg # of iterations =  2.8

     negative rho (up, down):  2.603E-03 0.000E+00

     Adding external electric field

     Computed dipole along edir(1) : 
        Elec. dipole         -0.4725 Ry au,         -1.2010 Debye
        Ion. dipole          -0.5272 Ry au,         -1.3401 Debye
        Dipole              -66.0918 Ry au,       -167.9885 Debye
        Dipole field         -0.0547 Ry au, 

        Potential amp.        1.9466 Ry
        Total length         17.7855 bohr


     total cpu time spent up to now is      670.0 secs

     total energy              =  -22284.02898888 Ry
     estimated scf accuracy    <       0.00006006 Ry

     iteration #  4     ecut=    40.00 Ry     beta= 0.40
     Davidson diagonalization with overlap

---- Real-time Memory Report at c_bands before calling an iterative solver
           537 MiB given to the printing process from OS
             0 MiB allocation reported by mallinfo(arena+hblkhd)
         93441 MiB available memory on the node where the printing process lives
------------------
     ethr =  4.01E-09,  avg # of iterations =  1.2

     negative rho (up, down):  2.603E-03 0.000E+00

     Adding external electric field

     Computed dipole along edir(1) : 
        Elec. dipole         -0.4725 Ry au,         -1.2010 Debye
        Ion. dipole          -0.5272 Ry au,         -1.3401 Debye
        Dipole              -66.0947 Ry au,       -167.9961 Debye
        Dipole field         -0.0547 Ry au, 

        Potential amp.        1.9467 Ry
        Total length         17.7855 bohr


     total cpu time spent up to now is      740.2 secs

     total energy              =  -22284.02899240 Ry
     estimated scf accuracy    <       0.00001357 Ry

     iteration #  5     ecut=    40.00 Ry     beta= 0.40
     Davidson diagonalization with overlap

---- Real-time Memory Report at c_bands before calling an iterative solver
           537 MiB given to the printing process from OS
             0 MiB allocation reported by mallinfo(arena+hblkhd)
         93425 MiB available memory on the node where the printing process lives
------------------
     ethr =  1.36E-09,  avg # of iterations =  1.4

     negative rho (up, down):  2.603E-03 0.000E+00

     Adding external electric field

     Computed dipole along edir(1) : 
        Elec. dipole         -0.4725 Ry au,         -1.2010 Debye
        Ion. dipole          -0.5272 Ry au,         -1.3401 Debye
        Dipole              -66.0795 Ry au,       -167.9573 Debye
        Dipole field         -0.0547 Ry au, 

        Potential amp.        1.9463 Ry
        Total length         17.7855 bohr


     total cpu time spent up to now is      813.5 secs

     End of self-consistent calculation

          k = 0.0000 0.0000 0.0000 ( 64855 PWs)   bands (ev):

  -128.2796-128.2747-128.2733-128.2719-128.2031-128.0970-128.0763-128.0743
  -128.0729-128.0716-128.0675-128.0554-126.5498-126.5347-126.5266-126.5245
  -126.5235-126.5231-126.5213-126.5213-126.5210-126.5189-126.5185-126.5119
  -126.3888-126.3868-126.3848-126.3839-126.2987-126.2961-126.2924-126.2859
  -126.2765-126.2745-126.2717-126.2714-125.8426-125.8031-125.7330-125.7281
  -125.7255-125.7220-125.7178-125.7162-124.9546-124.8889-124.8758-124.8714
   -82.6778 -82.6563 -82.6070 -82.6026 -82.6011 -82.5990 -82.5616 -82.5513
   -82.5435 -82.5402 -82.5400 -82.5381 -82.5366 -82.5351 -82.5305 -82.5287
   -82.5248 -82.5201 -82.5133 -82.5045 -82.3678 -82.3647 -82.3621 -82.3610
   -82.3576 -82.3555 -82.3524 -82.3404 -81.5408 -81.4405 -81.4181 -81.4181
   -81.4148 -81.4138 -81.4087 -81.4010 -80.7045 -80.7031 -80.6998 -80.6903
   -80.6880 -80.6837 -80.6823 -80.6819 -80.6805 -80.6801 -80.6795 -80.6790
   -80.6778 -80.6773 -80.6770 -80.6769 -80.6762 -80.6750 -80.6744 -80.6742
   -80.6739 -80.6733 -80.6727 -80.6722 -80.6711 -80.6701 -80.6699 -80.6693
   -80.6689 -80.6684 -80.6676 -80.6619 -80.6603 -80.6600 -80.6566 -80.6508
   -80.5499 -80.5391 -80.5380 -80.5373 -80.5371 -80.5357 -80.5352 -80.5347
   -80.5332 -80.5310 -80.5301 -80.5250 -80.4610 -80.4488 -80.4486 -80.4472
   -80.4465 -80.4463 -80.4444 -80.4428 -80.4412 -80.4405 -80.4363 -80.4339
   -80.4335 -80.4305 -80.4274 -80.4270 -80.4257 -80.4243 -80.4231 -80.4227
   -80.4219 -80.4186 -80.4182 -80.4163 -80.0152 -80.0045 -79.9778 -79.9743
   -79.9615 -79.9364 -79.9182 -79.9181 -79.9056 -79.9050 -79.9040 -79.8915
   -79.8865 -79.8807 -79.8771 -79.8735 -79.8692 -79.8678 -79.8677 -79.8633
   -79.8595 -79.8560 -79.8519 -79.8503 -79.1653 -79.1442 -79.1041 -79.0930
   -79.0797 -79.0727 -79.0586 -79.0534 -78.9261 -78.8582 -78.8447 -78.8404
   -22.0582 -18.0710 -15.3196 -12.7127 -11.6583 -11.4767 -10.7038 -10.1748
   -10.1394  -9.9790  -9.9048  -9.8835  -9.8016  -9.7992  -9.7681  -9.7607
    -9.6957  -9.6784  -9.6520  -9.6282  -9.6120  -9.5931  -9.5693  -9.5670
    -9.5217  -9.4928  -9.4530  -9.3897  -9.3687  -9.3629  -9.3369  -9.3128
    -9.2889  -9.2764  -9.2658  -9.2153  -9.1884  -9.1808  -9.1789  -9.1730
    -9.1243  -9.1113  -9.1019  -9.0900  -9.0225  -9.0218  -8.9266  -8.9130
    -8.8994  -8.8144  -8.6997  -8.6869  -8.6855  -8.6512  -8.5869  -8.5283
    -8.5037  -8.4938  -8.4697  -8.4610  -8.4551  -8.4538  -8.4143  -8.3996
    -8.3845  -8.3784  -8.3575  -8.3471  -8.2879  -8.2395  -8.2336  -8.2063
    -8.2042  -8.1822  -8.1320  -8.1174  -8.0810  -8.0774  -8.0124  -8.0084
    -7.9831  -7.9753  -7.9668  -7.9069  -7.8718  -7.8690  -7.8541  -7.8514
    -7.8471  -7.8447  -7.8438  -7.8384  -7.8231  -7.8197  -7.7975  -7.7956
    -7.7894  -7.7824  -7.7513  -7.7484  -7.7065  -7.7049  -7.6985  -7.6806
    -7.6772  -7.6680  -7.6647  -7.6586  -7.6562  -7.6455  -7.6434  -7.6380
    -7.6375  -7.5864  -7.5848  -7.5778  -7.5569  -7.5448  -7.5435  -7.5170
    -7.5166  -7.5142  -7.5098  -7.5084  -7.4850  -7.4652  -7.4640  -7.4414
    -7.4378  -7.4245  -7.4239  -7.4130  -7.4000  -7.3991  -7.3784  -7.3756
    -7.3688  -7.3535  -7.3523  -7.3493  -7.3209  -7.3029  -7.2978  -7.2971
    -7.2915  -7.2897  -7.2869  -7.2731  -7.2654  -7.2588  -7.2535  -7.2497
    -7.2226  -7.2127  -7.2112  -7.2087  -7.2082  -7.1947  -7.1771  -7.1720
    -7.1662  -7.1647  -7.1539  -7.1478  -7.1447  -7.1344  -7.1331  -7.1311
    -7.1297  -7.1280  -7.1190  -7.1039  -7.0948  -7.0938  -7.0936  -7.0916
    -7.0899  -7.0749  -7.0648  -7.0551  -7.0506  -7.0491  -7.0276  -7.0264
    -7.0169  -6.9990  -6.9906  -6.9896  -6.9784  -6.9353  -6.9352  -6.9025
    -6.8904  -6.8860  -6.8828  -6.8741  -6.8628  -6.8614  -6.8415  -6.8147
    -6.8054  -6.7749  -6.7630  -6.7507  -6.7128  -6.7128  -6.6802  -6.6700
    -6.6565  -6.6337  -6.6265  -6.6206  -6.6142  -6.6106  -6.6009  -6.5978
    -6.5902  -6.5741  -6.5733  -6.5708  -6.5676  -6.5666  -6.5409  -6.5342
    -6.5174  -6.5140  -6.5089  -6.4872  -6.4757  -6.4730  -6.4654  -6.4234
    -6.3904  -6.3872  -6.3696  -6.3670  -6.3415  -6.3135  -6.3125  -6.2737
    -6.2606  -6.2097  -6.2066  -5.9953  -5.9600  -5.9341  -5.9084  -5.9009
    -5.8986  -5.8568  -5.8297  -5.7984  -5.7623  -5.7563  -5.6161  -5.5869
    -5.5776  -5.5769  -5.5431  -5.5015  -5.4919  -5.4834  -5.4719  -5.3711
    -5.3149  -5.2827  -5.2756  -5.0659  -4.6889  -4.3829  -4.3604  -4.0446
    -3.9620  -3.8485  -3.8397  -3.8334  -3.1318  -3.1180  -3.0874  -3.0035
    -2.7879  -2.7512  -2.7445  -2.7428  -2.7041  -2.5472  -2.5065  -2.4808
    -2.4774  -2.3031  -2.2186  -2.0867  -1.4732  -1.2538  -1.2345  -1.2035
    -1.1461  -0.9526  -0.9404  -0.8463  -0.5194  -0.4546  -0.3876  -0.3826
    -0.3568  -0.2719  -0.2487  -0.1669  -0.0604   0.4093   0.5023   0.6650
     0.6765   0.7265   0.7581   0.9343   0.9577   1.0305   1.2429   1.3617
     1.4238   1.4646   1.5018   1.7946   1.9334   1.9668   2.0260   2.1081
     2.1315   2.6668   2.8126   2.8737   2.9421   2.9973   3.0123   3.0730
     3.1874   3.2680   3.3293   3.3575   3.3753   3.4519   3.5181   3.5625
     3.7039   3.7256   3.7452   3.8701   3.8773   3.9801   4.0647   4.0938
     4.1125   4.4104   4.4505   4.5155   4.5244   4.6057   4.6150   4.6776
     4.8085   4.8332   4.8556   4.9006   4.9180   4.9288   4.9942   5.0812
     5.0839   5.1584   5.1670   5.2358   5.3409   5.4015   5.4759   5.5229
     5.5937   5.7318   5.7433   5.7777   5.8581   6.0168   6.0661   6.0961
     6.1451   6.2216   6.2959   6.3494   6.3642   6.3709   6.3742   6.5126
     6.5828   6.5979   6.6587   6.7063   6.7751   6.8148   6.8466   6.8704
     6.9620   7.0459   7.1169   7.1701   7.2135   7.2732

     occupation numbers 
     1.0000   1.0000   1.0000   1.0000   1.0000   1.0000   1.0000   1.0000
     1.0000   1.0000   1.0000   1.0000   1.0000   1.0000   1.0000   1.0000
     1.0000   1.0000   1.0000   1.0000   1.0000   1.0000   1.0000   1.0000
     1.0000   1.0000   1.0000   1.0000   1.0000   1.0000   1.0000   1.0000
     1.0000   1.0000   1.0000   1.0000   1.0000   1.0000   1.0000   1.0000
     1.0000   1.0000   1.0000   1.0000   1.0000   1.0000   1.0000   1.0000
     1.0000   1.0000   1.0000   1.0000   1.0000   1.0000   1.0000   1.0000
     1.0000   1.0000   1.0000   1.0000   1.0000   1.0000   1.0000   1.0000
     1.0000   1.0000   1.0000   1.0000   1.0000   1.0000   1.0000   1.0000
     1.0000   1.0000   1.0000   1.0000   1.0000   1.0000   1.0000   1.0000
     1.0000   1.0000   1.0000   1.0000   1.0000   1.0000   1.0000   1.0000
     1.0000   1.0000   1.0000   1.0000   1.0000   1.0000   1.0000   1.0000
     1.0000   1.0000   1.0000   1.0000   1.0000   1.0000   1.0000   1.0000
     1.0000   1.0000   1.0000   1.0000   1.0000   1.0000   1.0000   1.0000
     1.0000   1.0000   1.0000   1.0000   1.0000   1.0000   1.0000   1.0000
     1.0000   1.0000   1.0000   1.0000   1.0000   1.0000   1.0000   1.0000
     1.0000   1.0000   1.0000   1.0000   1.0000   1.0000   1.0000   1.0000
     1.0000   1.0000   1.0000   1.0000   1.0000   1.0000   1.0000   1.0000
     1.0000   1.0000   1.0000   1.0000   1.0000   1.0000   1.0000   1.0000
     1.0000   1.0000   1.0000   1.0000   1.0000   1.0000   1.0000   1.0000
     1.0000   1.0000   1.0000   1.0000   1.0000   1.0000   1.0000   1.0000
     1.0000   1.0000   1.0000   1.0000   1.0000   1.0000   1.0000   1.0000
     1.0000   1.0000   1.0000   1.0000   1.0000   1.0000   1.0000   1.0000
     1.0000   1.0000   1.0000   1.0000   1.0000   1.0000   1.0000   1.0000
     1.0000   1.0000   1.0000   1.0000   1.0000   1.0000   1.0000   1.0000
     1.0000   1.0000   1.0000   1.0000   1.0000   1.0000   1.0000   1.0000
     1.0000   1.0000   1.0000   1.0000   1.0000   1.0000   1.0000   1.0000
     1.0000   1.0000   1.0000   1.0000   1.0000   1.0000   1.0000   1.0000
     1.0000   1.0000   1.0000   1.0000   1.0000   1.0000   1.0000   1.0000
     1.0000   1.0000   1.0000   1.0000   1.0000   1.0000   1.0000   1.0000
     1.0000   1.0000   1.0000   1.0000   1.0000   1.0000   1.0000   1.0000
     1.0000   1.0000   1.0000   1.0000   1.0000   1.0000   1.0000   1.0000
     1.0000   1.0000   1.0000   1.0000   1.0000   1.0000   1.0000   1.0000
     1.0000   1.0000   1.0000   1.0000   1.0000   1.0000   1.0000   1.0000
     1.0000   1.0000   1.0000   1.0000   1.0000   1.0000   1.0000   1.0000
     1.0000   1.0000   1.0000   1.0000   1.0000   1.0000   1.0000   1.0000
     1.0000   1.0000   1.0000   1.0000   1.0000   1.0000   1.0000   1.0000
     1.0000   1.0000   1.0000   1.0000   1.0000   1.0000   1.0000   1.0000
     1.0000   1.0000   1.0000   1.0000   1.0000   1.0000   1.0000   1.0000
     1.0000   1.0000   1.0000   1.0000   1.0000   1.0000   1.0000   1.0000
     1.0000   1.0000   1.0000   1.0000   1.0000   1.0000   1.0000   1.0000
     1.0000   1.0000   1.0000   1.0000   1.0000   1.0000   1.0000   1.0000
     1.0000   1.0000   1.0000   1.0000   1.0000   1.0000   1.0000   1.0000
     1.0000   1.0000   1.0000   1.0000   1.0000   1.0000   1.0000   1.0000
     1.0000   1.0000   1.0000   1.0000   1.0000   1.0000   1.0000   1.0000
     1.0000   1.0000   1.0000   1.0000   1.0000   1.0000   1.0000   1.0000
     1.0000   1.0000   1.0000   1.0000   1.0000   1.0000   1.0000   1.0000
     1.0000   1.0000   1.0000   1.0000   1.0000   1.0000   1.0000   1.0000
     1.0000   1.0000   1.0000   1.0000   1.0000   1.0000   1.0000   1.0000
     1.0000   1.0000   1.0000   1.0000   1.0000   1.0000   1.0000   1.0000
     1.0000   1.0000   1.0000   1.0000   1.0000   1.0000   1.0000   1.0000
     1.0000   1.0000   1.0000   1.0000   1.0000   1.0000   1.0000   1.0000
     1.0000   1.0000   1.0000   1.0000   1.0000   1.0000   1.0000   1.0000
     1.0000   1.0000   1.0000   1.0000   1.0000   1.0000   1.0000   1.0000
     1.0000   1.0000   1.0000   1.0000   1.0000   1.0000   1.0000   1.0000
     1.0000   1.0000   1.0000   1.0000   1.0000   1.0000   1.0000   1.0000
     1.0000   1.0000   1.0000   1.0000   1.0000   1.0000   1.0000   1.0000
     1.0000   1.0000   1.0000   1.0000   1.0000   1.0000   1.0000   1.0000
     1.0000   1.0000   1.0000   1.0000   1.0000   1.0000   1.0000   1.0000
     1.0000   1.0000   1.0000   1.0000   1.0000   1.0000   1.0000   1.0000
     1.0000   1.0000   1.0000   1.0000   1.0000   1.0000   1.0000   1.0000
     1.0000   1.0000   1.0000   1.0003   1.0294   1.0496   1.0719   1.0733
     1.0795   1.0743   1.0625   0.9710   0.7378   0.0107   0.0024   0.0001
     0.0001   0.0000   0.0000   0.0000   0.0000   0.0000   0.0000   0.0000
     0.0000   0.0000   0.0000   0.0000   0.0000   0.0000   0.0000   0.0000
     0.0000   0.0000   0.0000   0.0000   0.0000   0.0000   0.0000   0.0000
     0.0000   0.0000   0.0000   0.0000   0.0000   0.0000   0.0000   0.0000
     0.0000   0.0000   0.0000   0.0000   0.0000   0.0000   0.0000   0.0000
     0.0000   0.0000   0.0000   0.0000   0.0000   0.0000   0.0000   0.0000
     0.0000   0.0000   0.0000   0.0000   0.0000   0.0000   0.0000   0.0000
     0.0000   0.0000   0.0000   0.0000   0.0000   0.0000   0.0000   0.0000
     0.0000   0.0000   0.0000   0.0000   0.0000   0.0000   0.0000   0.0000
     0.0000   0.0000   0.0000   0.0000   0.0000   0.0000   0.0000   0.0000
     0.0000   0.0000   0.0000   0.0000   0.0000   0.0000   0.0000   0.0000
     0.0000   0.0000   0.0000   0.0000   0.0000   0.0000

          k = 0.0000 0.3849 0.0000 ( 64840 PWs)   bands (ev):

  -128.2796-128.2748-128.2733-128.2719-128.2031-128.0970-128.0763-128.0743
  -128.0729-128.0716-128.0675-128.0554-126.5498-126.5347-126.5266-126.5245
  -126.5235-126.5231-126.5213-126.5213-126.5210-126.5189-126.5185-126.5119
  -126.3888-126.3868-126.3848-126.3839-126.2987-126.2961-126.2924-126.2859
  -126.2765-126.2745-126.2716-126.2715-125.8426-125.8031-125.7330-125.7281
  -125.7255-125.7220-125.7178-125.7162-124.9546-124.8889-124.8758-124.8714
   -82.6778 -82.6563 -82.6070 -82.6027 -82.6011 -82.5990 -82.5616 -82.5513
   -82.5435 -82.5402 -82.5386 -82.5381 -82.5366 -82.5351 -82.5331 -82.5305
   -82.5205 -82.5201 -82.5146 -82.5045 -82.3667 -82.3645 -82.3621 -82.3610
   -82.3601 -82.3573 -82.3481 -82.3417 -81.5408 -81.4405 -81.4181 -81.4181
   -81.4148 -81.4138 -81.4087 -81.4010 -80.7045 -80.7031 -80.6996 -80.6903
   -80.6880 -80.6837 -80.6830 -80.6809 -80.6805 -80.6801 -80.6794 -80.6780
   -80.6777 -80.6773 -80.6770 -80.6768 -80.6763 -80.6755 -80.6748 -80.6744
   -80.6742 -80.6738 -80.6731 -80.6725 -80.6722 -80.6714 -80.6705 -80.6698
   -80.6694 -80.6676 -80.6635 -80.6606 -80.6601 -80.6591 -80.6580 -80.6517
   -80.5484 -80.5435 -80.5390 -80.5373 -80.5357 -80.5352 -80.5347 -80.5333
   -80.5315 -80.5310 -80.5301 -80.5264 -80.4599 -80.4529 -80.4487 -80.4472
   -80.4463 -80.4444 -80.4428 -80.4424 -80.4405 -80.4396 -80.4363 -80.4351
   -80.4344 -80.4339 -80.4274 -80.4258 -80.4243 -80.4231 -80.4227 -80.4223
   -80.4219 -80.4185 -80.4182 -80.4179 -80.0152 -80.0045 -79.9778 -79.9743
   -79.9615 -79.9364 -79.9180 -79.9170 -79.9103 -79.9050 -79.8992 -79.8927
   -79.8865 -79.8807 -79.8771 -79.8735 -79.8692 -79.8678 -79.8677 -79.8633
   -79.8595 -79.8560 -79.8519 -79.8503 -79.1653 -79.1442 -79.1043 -79.0926
   -79.0799 -79.0727 -79.0586 -79.0534 -78.9261 -78.8582 -78.8447 -78.8404
   -22.0582 -18.0710 -15.3196 -12.7127 -11.6581 -11.4768 -10.5455 -10.1281
   -10.0920 -10.0569  -9.9737  -9.9102  -9.8704  -9.8414  -9.8257  -9.7890
    -9.7616  -9.7404  -9.7020  -9.6784  -9.6175  -9.5805  -9.5730  -9.5558
    -9.5140  -9.4891  -9.4004  -9.3731  -9.3413  -9.3325  -9.3195  -9.3147
    -9.3004  -9.2798  -9.2533  -9.2231  -9.2193  -9.2027  -9.1898  -9.1659
    -9.1501  -9.1212  -9.0800  -9.0582  -9.0227  -9.0102  -8.8731  -8.8664
    -8.7857  -8.7590  -8.7003  -8.6755  -8.6675  -8.6383  -8.6320  -8.5715
    -8.5125  -8.4963  -8.4575  -8.4441  -8.4275  -8.4116  -8.3923  -8.3884
    -8.3851  -8.3768  -8.3737  -8.3693  -8.3236  -8.2942  -8.2528  -8.2288
    -8.2051  -8.1245  -8.0888  -8.0714  -8.0641  -8.0491  -8.0047  -8.0015
    -7.9727  -7.9650  -7.9625  -7.9609  -7.9454  -7.9228  -7.9208  -7.9044
    -7.8958  -7.8775  -7.8684  -7.8541  -7.8502  -7.8325  -7.8260  -7.8220
    -7.8044  -7.7936  -7.7887  -7.7758  -7.7568  -7.7401  -7.7332  -7.7172
    -7.7108  -7.7014  -7.6931  -7.6805  -7.6566  -7.6516  -7.6294  -7.6254
    -7.6169  -7.6085  -7.5958  -7.5846  -7.5711  -7.5663  -7.5435  -7.5268
    -7.5178  -7.5060  -7.4927  -7.4884  -7.4832  -7.4635  -7.4456  -7.4333
    -7.4273  -7.4159  -7.4047  -7.3994  -7.3980  -7.3868  -7.3773  -7.3744
    -7.3658  -7.3330  -7.3203  -7.3161  -7.3142  -7.3071  -7.3004  -7.2946
    -7.2791  -7.2732  -7.2708  -7.2641  -7.2499  -7.2327  -7.2293  -7.2284
    -7.2247  -7.2183  -7.2052  -7.1941  -7.1929  -7.1876  -7.1788  -7.1729
    -7.1706  -7.1682  -7.1628  -7.1488  -7.1384  -7.1302  -7.1269  -7.1213
    -7.1202  -7.1117  -7.1001  -7.0977  -7.0944  -7.0920  -7.0829  -7.0756
    -7.0730  -7.0641  -7.0530  -7.0231  -7.0194  -7.0113  -7.0086  -6.9987
    -6.9868  -6.9694  -6.9584  -6.9537  -6.9488  -6.9403  -6.9341  -6.9232
    -6.9189  -6.9118  -6.9020  -6.8970  -6.8891  -6.8694  -6.8459  -6.8433
    -6.8379  -6.8155  -6.7852  -6.7681  -6.7371  -6.7323  -6.6923  -6.6624
    -6.6558  -6.6442  -6.6294  -6.6148  -6.6113  -6.5954  -6.5768  -6.5697
    -6.5538  -6.5408  -6.5305  -6.5202  -6.5156  -6.5056  -6.4973  -6.4843
    -6.4790  -6.4763  -6.4690  -6.4469  -6.4447  -6.4322  -6.4271  -6.4134
    -6.4057  -6.3891  -6.3755  -6.3211  -6.3143  -6.3001  -6.2833  -6.2437
    -6.1173  -6.0820  -6.0571  -6.0478  -6.0001  -5.9829  -5.9616  -5.9131
    -5.8493  -5.8011  -5.7928  -5.7780  -5.7127  -5.6746  -5.6439  -5.6207
    -5.6012  -5.5835  -5.5519  -5.5282  -5.4868  -5.4619  -5.4282  -5.3797
    -5.3525  -5.2451  -5.2059  -5.0419  -4.8890  -4.6926  -4.6559  -4.3307
    -4.2662  -4.1609  -3.9018  -3.6698  -3.6448  -3.4703  -3.2770  -3.1076
    -3.0225  -2.9971  -2.7881  -2.7068  -2.6211  -2.5560  -2.3583  -2.2566
    -2.0983  -2.0861  -1.9666  -1.8654  -1.8530  -1.4832  -1.3391  -1.3060
    -1.1351  -0.9122  -0.8821  -0.4451  -0.2584  -0.2381  -0.1209  -0.1008
    -0.0260   0.0077   0.0142   0.1112   0.4173   0.4895   0.5975   0.7257
     0.8218   0.8732   0.9848   1.0754   1.2217   1.3389   1.3800   1.4822
     1.5784   1.6227   1.7393   1.8761   1.9025   1.9085   1.9815   1.9943
     2.1945   2.2497   2.2672   2.3669   2.4184   2.5144   2.7209   2.7481
     2.7792   2.9316   2.9972   3.0855   3.1573   3.3554   3.4069   3.4221
     3.4412   3.5148   3.6666   3.7711   3.8721   3.8852   3.9952   4.0458
     4.0732   4.1978   4.2059   4.3420   4.3649   4.4307   4.4531   4.5623
     4.6307   4.7017   4.7593   4.8068   4.8550   4.9383   5.0275   5.0546
     5.1059   5.1222   5.2036   5.2839   5.3015   5.3376   5.4096   5.4384
     5.5630   5.6322   5.7203   5.8646   5.9039   5.9425   5.9514   6.1261
     6.1401   6.2381   6.3367   6.4408   6.4669   6.4925   6.5599   6.5852
     6.6375   6.6732   6.7377   6.7791   6.8277   6.8929   6.9698   7.0259
     7.0901   7.1798   7.2518   7.2847   7.3201   7.3639

     occupation numbers 
     1.0000   1.0000   1.0000   1.0000   1.0000   1.0000   1.0000   1.0000
     1.0000   1.0000   1.0000   1.0000   1.0000   1.0000   1.0000   1.0000
     1.0000   1.0000   1.0000   1.0000   1.0000   1.0000   1.0000   1.0000
     1.0000   1.0000   1.0000   1.0000   1.0000   1.0000   1.0000   1.0000
     1.0000   1.0000   1.0000   1.0000   1.0000   1.0000   1.0000   1.0000
     1.0000   1.0000   1.0000   1.0000   1.0000   1.0000   1.0000   1.0000
     1.0000   1.0000   1.0000   1.0000   1.0000   1.0000   1.0000   1.0000
     1.0000   1.0000   1.0000   1.0000   1.0000   1.0000   1.0000   1.0000
     1.0000   1.0000   1.0000   1.0000   1.0000   1.0000   1.0000   1.0000
     1.0000   1.0000   1.0000   1.0000   1.0000   1.0000   1.0000   1.0000
     1.0000   1.0000   1.0000   1.0000   1.0000   1.0000   1.0000   1.0000
     1.0000   1.0000   1.0000   1.0000   1.0000   1.0000   1.0000   1.0000
     1.0000   1.0000   1.0000   1.0000   1.0000   1.0000   1.0000   1.0000
     1.0000   1.0000   1.0000   1.0000   1.0000   1.0000   1.0000   1.0000
     1.0000   1.0000   1.0000   1.0000   1.0000   1.0000   1.0000   1.0000
     1.0000   1.0000   1.0000   1.0000   1.0000   1.0000   1.0000   1.0000
     1.0000   1.0000   1.0000   1.0000   1.0000   1.0000   1.0000   1.0000
     1.0000   1.0000   1.0000   1.0000   1.0000   1.0000   1.0000   1.0000
     1.0000   1.0000   1.0000   1.0000   1.0000   1.0000   1.0000   1.0000
     1.0000   1.0000   1.0000   1.0000   1.0000   1.0000   1.0000   1.0000
     1.0000   1.0000   1.0000   1.0000   1.0000   1.0000   1.0000   1.0000
     1.0000   1.0000   1.0000   1.0000   1.0000   1.0000   1.0000   1.0000
     1.0000   1.0000   1.0000   1.0000   1.0000   1.0000   1.0000   1.0000
     1.0000   1.0000   1.0000   1.0000   1.0000   1.0000   1.0000   1.0000
     1.0000   1.0000   1.0000   1.0000   1.0000   1.0000   1.0000   1.0000
     1.0000   1.0000   1.0000   1.0000   1.0000   1.0000   1.0000   1.0000
     1.0000   1.0000   1.0000   1.0000   1.0000   1.0000   1.0000   1.0000
     1.0000   1.0000   1.0000   1.0000   1.0000   1.0000   1.0000   1.0000
     1.0000   1.0000   1.0000   1.0000   1.0000   1.0000   1.0000   1.0000
     1.0000   1.0000   1.0000   1.0000   1.0000   1.0000   1.0000   1.0000
     1.0000   1.0000   1.0000   1.0000   1.0000   1.0000   1.0000   1.0000
     1.0000   1.0000   1.0000   1.0000   1.0000   1.0000   1.0000   1.0000
     1.0000   1.0000   1.0000   1.0000   1.0000   1.0000   1.0000   1.0000
     1.0000   1.0000   1.0000   1.0000   1.0000   1.0000   1.0000   1.0000
     1.0000   1.0000   1.0000   1.0000   1.0000   1.0000   1.0000   1.0000
     1.0000   1.0000   1.0000   1.0000   1.0000   1.0000   1.0000   1.0000
     1.0000   1.0000   1.0000   1.0000   1.0000   1.0000   1.0000   1.0000
     1.0000   1.0000   1.0000   1.0000   1.0000   1.0000   1.0000   1.0000
     1.0000   1.0000   1.0000   1.0000   1.0000   1.0000   1.0000   1.0000
     1.0000   1.0000   1.0000   1.0000   1.0000   1.0000   1.0000   1.0000
     1.0000   1.0000   1.0000   1.0000   1.0000   1.0000   1.0000   1.0000
     1.0000   1.0000   1.0000   1.0000   1.0000   1.0000   1.0000   1.0000
     1.0000   1.0000   1.0000   1.0000   1.0000   1.0000   1.0000   1.0000
     1.0000   1.0000   1.0000   1.0000   1.0000   1.0000   1.0000   1.0000
     1.0000   1.0000   1.0000   1.0000   1.0000   1.0000   1.0000   1.0000
     1.0000   1.0000   1.0000   1.0000   1.0000   1.0000   1.0000   1.0000
     1.0000   1.0000   1.0000   1.0000   1.0000   1.0000   1.0000   1.0000
     1.0000   1.0000   1.0000   1.0000   1.0000   1.0000   1.0000   1.0000
     1.0000   1.0000   1.0000   1.0000   1.0000   1.0000   1.0000   1.0000
     1.0000   1.0000   1.0000   1.0000   1.0000   1.0000   1.0000   1.0000
     1.0000   1.0000   1.0000   1.0000   1.0000   1.0000   1.0000   1.0000
     1.0000   1.0000   1.0000   1.0000   1.0000   1.0000   1.0000   1.0000
     1.0000   1.0000   1.0000   1.0000   1.0000   1.0000   1.0000   1.0000
     1.0000   1.0000   1.0000   1.0000   1.0000   1.0000   1.0000   1.0000
     1.0000   1.0000   1.0000   1.0000   1.0000   1.0000   1.0000   1.0000
     1.0000   1.0000   1.0000   1.0000   1.0000   1.0000   1.0000   1.0000
     1.0000   1.0000   1.0000   1.0000   1.0000   1.0000   1.0000   1.0000
     1.0000   1.0000   1.0000   1.0000   1.0000   1.0000   1.0000   1.0000
     1.0000   1.0000   1.0000   1.0000   1.0000   1.0000   1.0000   1.0000
     1.0000   1.0000   1.0000   1.0000   1.0000   1.0000   1.0000   1.0000
     1.0000   1.0000   1.0000   1.0000   1.0000   1.0000   1.0000   1.0000
     1.0000   1.0001   1.0001   1.0529   1.0681   1.0551   0.8841   0.8389
     0.6447   0.5515   0.5336   0.2911   0.0095   0.0030   0.0004   0.0000
     0.0000   0.0000   0.0000   0.0000   0.0000   0.0000   0.0000   0.0000
     0.0000   0.0000   0.0000   0.0000   0.0000   0.0000   0.0000   0.0000
     0.0000   0.0000   0.0000   0.0000   0.0000   0.0000   0.0000   0.0000
     0.0000   0.0000   0.0000   0.0000   0.0000   0.0000   0.0000   0.0000
     0.0000   0.0000   0.0000   0.0000   0.0000   0.0000   0.0000   0.0000
     0.0000   0.0000   0.0000   0.0000   0.0000   0.0000   0.0000   0.0000
     0.0000   0.0000   0.0000   0.0000   0.0000   0.0000   0.0000   0.0000
     0.0000   0.0000   0.0000   0.0000   0.0000   0.0000   0.0000   0.0000
     0.0000   0.0000   0.0000   0.0000   0.0000   0.0000   0.0000   0.0000
     0.0000   0.0000   0.0000   0.0000   0.0000   0.0000   0.0000   0.0000
     0.0000   0.0000   0.0000   0.0000   0.0000   0.0000   0.0000   0.0000
     0.0000   0.0000   0.0000   0.0000   0.0000   0.0000

          k = 0.3333 0.1925 0.0000 ( 64840 PWs)   bands (ev):

  -128.2796-128.2747-128.2733-128.2719-128.2031-128.0970-128.0763-128.0743
  -128.0729-128.0716-128.0675-128.0554-126.5498-126.5347-126.5266-126.5245
  -126.5235-126.5231-126.5213-126.5213-126.5210-126.5189-126.5185-126.5119
  -126.3888-126.3868-126.3848-126.3839-126.2987-126.2961-126.2924-126.2859
  -126.2765-126.2745-126.2717-126.2714-125.8426-125.8031-125.7330-125.7281
  -125.7255-125.7220-125.7178-125.7162-124.9546-124.8889-124.8758-124.8714
   -82.6778 -82.6563 -82.6070 -82.6026 -82.6011 -82.5990 -82.5616 -82.5513
   -82.5435 -82.5402 -82.5400 -82.5381 -82.5366 -82.5351 -82.5305 -82.5287
   -82.5248 -82.5201 -82.5133 -82.5045 -82.3678 -82.3647 -82.3621 -82.3610
   -82.3576 -82.3555 -82.3524 -82.3404 -81.5408 -81.4405 -81.4181 -81.4181
   -81.4148 -81.4138 -81.4087 -81.4010 -80.7045 -80.7031 -80.6998 -80.6903
   -80.6880 -80.6837 -80.6823 -80.6819 -80.6805 -80.6801 -80.6795 -80.6790
   -80.6778 -80.6773 -80.6770 -80.6769 -80.6762 -80.6750 -80.6744 -80.6742
   -80.6739 -80.6733 -80.6727 -80.6722 -80.6711 -80.6701 -80.6699 -80.6693
   -80.6689 -80.6684 -80.6676 -80.6619 -80.6603 -80.6600 -80.6566 -80.6508
   -80.5499 -80.5391 -80.5380 -80.5373 -80.5371 -80.5357 -80.5352 -80.5347
   -80.5332 -80.5310 -80.5301 -80.5250 -80.4610 -80.4488 -80.4486 -80.4472
   -80.4465 -80.4463 -80.4444 -80.4428 -80.4412 -80.4405 -80.4363 -80.4339
   -80.4335 -80.4305 -80.4274 -80.4270 -80.4257 -80.4243 -80.4231 -80.4227
   -80.4219 -80.4186 -80.4182 -80.4163 -80.0152 -80.0045 -79.9778 -79.9743
   -79.9615 -79.9364 -79.9182 -79.9181 -79.9056 -79.9050 -79.9040 -79.8915
   -79.8865 -79.8807 -79.8771 -79.8735 -79.8692 -79.8678 -79.8677 -79.8633
   -79.8595 -79.8560 -79.8519 -79.8503 -79.1653 -79.1442 -79.1041 -79.0930
   -79.0797 -79.0727 -79.0586 -79.0534 -78.9261 -78.8582 -78.8447 -78.8404
   -22.0582 -18.0710 -15.3196 -12.7127 -11.6582 -11.4766 -10.6700 -10.1712
   -10.1374  -9.9790  -9.9051  -9.8828  -9.8040  -9.8000  -9.7698  -9.7605
    -9.6946  -9.6769  -9.6283  -9.6137  -9.6110  -9.5928  -9.5693  -9.5670
    -9.5151  -9.4918  -9.4512  -9.3886  -9.3682  -9.3631  -9.3371  -9.3121
    -9.2889  -9.2763  -9.2657  -9.2162  -9.1893  -9.1811  -9.1800  -9.1757
    -9.1320  -9.1203  -9.1133  -9.0911  -9.0543  -9.0217  -9.0207  -8.9087
    -8.8765  -8.8143  -8.6809  -8.6807  -8.6606  -8.6484  -8.6231  -8.5685
    -8.5061  -8.4879  -8.4733  -8.4685  -8.4620  -8.4525  -8.4517  -8.3983
    -8.3767  -8.3707  -8.3579  -8.3465  -8.2906  -8.2858  -8.2768  -8.2106
    -8.1936  -8.1809  -8.1494  -8.1353  -8.0357  -8.0216  -8.0171  -8.0157
    -8.0113  -8.0019  -7.9781  -7.9356  -7.8785  -7.8745  -7.8701  -7.8575
    -7.8568  -7.8510  -7.8493  -7.8413  -7.8265  -7.8197  -7.8152  -7.8124
    -7.7849  -7.7808  -7.7770  -7.7663  -7.7604  -7.7317  -7.7277  -7.6947
    -7.6928  -7.6766  -7.6626  -7.6595  -7.6512  -7.6465  -7.6446  -7.6411
    -7.6388  -7.6264  -7.6138  -7.6087  -7.6062  -7.5575  -7.5559  -7.5168
    -7.5162  -7.5134  -7.5129  -7.5099  -7.4844  -7.4649  -7.4625  -7.4428
    -7.4399  -7.4251  -7.4203  -7.4200  -7.3962  -7.3939  -7.3882  -7.3801
    -7.3703  -7.3681  -7.3540  -7.3249  -7.3235  -7.3229  -7.3206  -7.3011
    -7.2967  -7.2883  -7.2695  -7.2658  -7.2582  -7.2549  -7.2472  -7.2264
    -7.2254  -7.2228  -7.2164  -7.2033  -7.2018  -7.1705  -7.1675  -7.1478
    -7.1469  -7.1464  -7.1445  -7.1416  -7.1359  -7.1347  -7.1280  -7.1266
    -7.1206  -7.1124  -7.1084  -7.1061  -7.1053  -7.0940  -7.0773  -7.0767
    -7.0659  -7.0638  -7.0570  -7.0505  -7.0479  -7.0297  -7.0136  -6.9988
    -6.9904  -6.9888  -6.9768  -6.9757  -6.9594  -6.8913  -6.8908  -6.8865
    -6.8818  -6.8781  -6.8720  -6.8652  -6.8489  -6.8431  -6.8192  -6.8042
    -6.7757  -6.7550  -6.7469  -6.7364  -6.7101  -6.7074  -6.6897  -6.6882
    -6.6824  -6.6689  -6.6594  -6.6313  -6.6229  -6.6150  -6.6044  -6.6019
    -6.5785  -6.5740  -6.5706  -6.5500  -6.5413  -6.5273  -6.5237  -6.5163
    -6.4969  -6.4900  -6.4846  -6.4729  -6.4354  -6.4325  -6.3957  -6.3776
    -6.3742  -6.3627  -6.3616  -6.3416  -6.3181  -6.3153  -6.3132  -6.2860
    -6.2791  -6.2268  -5.9953  -5.9561  -5.9208  -5.8974  -5.8582  -5.8287
    -5.8173  -5.8081  -5.8013  -5.7808  -5.7011  -5.6988  -5.6266  -5.6110
    -5.5852  -5.5824  -5.5766  -5.5633  -5.5027  -5.4907  -5.4836  -5.3681
    -5.3160  -5.0045  -4.9989  -4.9070  -4.9037  -4.6885  -4.3773  -4.3598
    -4.3322  -4.1640  -4.0647  -3.7908  -3.7376  -3.4634  -3.4566  -3.1164
    -3.0061  -2.8529  -2.8512  -2.7181  -2.7111  -2.6897  -2.6857  -2.4616
    -2.1340  -2.0812  -1.9776  -1.5575  -1.3448  -1.3360  -1.1887  -1.1820
    -1.1550  -1.0916  -0.9443  -0.8980  -0.8493  -0.7136  -0.2235  -0.1797
    -0.0480   0.0873   0.1789   0.3777   0.3914   0.5020   0.7363   0.9314
     0.9401   1.0913   1.1300   1.1852   1.2559   1.3306   1.3867   1.4736
     1.6757   1.7598   1.8124   1.8817   1.9486   1.9836   2.1034   2.1204
     2.2209   2.4300   2.5547   2.5739   2.6225   2.6782   2.7225   2.7853
     2.8202   2.8645   2.9460   2.9619   3.0622   3.1303   3.2369   3.2676
     3.3387   3.4308   3.4445   3.6613   3.6792   3.7398   3.8153   3.8833
     3.9558   4.0432   4.1081   4.1939   4.2328   4.4111   4.4886   4.6821
     4.6957   4.7349   4.7596   4.8072   4.8177   4.9379   5.0109   5.0935
     5.1326   5.1950   5.3003   5.3475   5.3571   5.4098   5.5748   5.6806
     5.7094   5.7945   5.9204   5.9557   5.9863   6.0138   6.0270   6.0616
     6.1917   6.2189   6.2810   6.3435   6.3930   6.4423   6.4781   6.5305
     6.5374   6.5857   6.6740   6.7120   6.7803   6.8041   6.8409   6.8600
     6.9504   6.9918   7.0123   7.1299   7.1765   7.2489

     occupation numbers 
     1.0000   1.0000   1.0000   1.0000   1.0000   1.0000   1.0000   1.0000
     1.0000   1.0000   1.0000   1.0000   1.0000   1.0000   1.0000   1.0000
     1.0000   1.0000   1.0000   1.0000   1.0000   1.0000   1.0000   1.0000
     1.0000   1.0000   1.0000   1.0000   1.0000   1.0000   1.0000   1.0000
     1.0000   1.0000   1.0000   1.0000   1.0000   1.0000   1.0000   1.0000
     1.0000   1.0000   1.0000   1.0000   1.0000   1.0000   1.0000   1.0000
     1.0000   1.0000   1.0000   1.0000   1.0000   1.0000   1.0000   1.0000
     1.0000   1.0000   1.0000   1.0000   1.0000   1.0000   1.0000   1.0000
     1.0000   1.0000   1.0000   1.0000   1.0000   1.0000   1.0000   1.0000
     1.0000   1.0000   1.0000   1.0000   1.0000   1.0000   1.0000   1.0000
     1.0000   1.0000   1.0000   1.0000   1.0000   1.0000   1.0000   1.0000
     1.0000   1.0000   1.0000   1.0000   1.0000   1.0000   1.0000   1.0000
     1.0000   1.0000   1.0000   1.0000   1.0000   1.0000   1.0000   1.0000
     1.0000   1.0000   1.0000   1.0000   1.0000   1.0000   1.0000   1.0000
     1.0000   1.0000   1.0000   1.0000   1.0000   1.0000   1.0000   1.0000
     1.0000   1.0000   1.0000   1.0000   1.0000   1.0000   1.0000   1.0000
     1.0000   1.0000   1.0000   1.0000   1.0000   1.0000   1.0000   1.0000
     1.0000   1.0000   1.0000   1.0000   1.0000   1.0000   1.0000   1.0000
     1.0000   1.0000   1.0000   1.0000   1.0000   1.0000   1.0000   1.0000
     1.0000   1.0000   1.0000   1.0000   1.0000   1.0000   1.0000   1.0000
     1.0000   1.0000   1.0000   1.0000   1.0000   1.0000   1.0000   1.0000
     1.0000   1.0000   1.0000   1.0000   1.0000   1.0000   1.0000   1.0000
     1.0000   1.0000   1.0000   1.0000   1.0000   1.0000   1.0000   1.0000
     1.0000   1.0000   1.0000   1.0000   1.0000   1.0000   1.0000   1.0000
     1.0000   1.0000   1.0000   1.0000   1.0000   1.0000   1.0000   1.0000
     1.0000   1.0000   1.0000   1.0000   1.0000   1.0000   1.0000   1.0000
     1.0000   1.0000   1.0000   1.0000   1.0000   1.0000   1.0000   1.0000
     1.0000   1.0000   1.0000   1.0000   1.0000   1.0000   1.0000   1.0000
     1.0000   1.0000   1.0000   1.0000   1.0000   1.0000   1.0000   1.0000
     1.0000   1.0000   1.0000   1.0000   1.0000   1.0000   1.0000   1.0000
     1.0000   1.0000   1.0000   1.0000   1.0000   1.0000   1.0000   1.0000
     1.0000   1.0000   1.0000   1.0000   1.0000   1.0000   1.0000   1.0000
     1.0000   1.0000   1.0000   1.0000   1.0000   1.0000   1.0000   1.0000
     1.0000   1.0000   1.0000   1.0000   1.0000   1.0000   1.0000   1.0000
     1.0000   1.0000   1.0000   1.0000   1.0000   1.0000   1.0000   1.0000
     1.0000   1.0000   1.0000   1.0000   1.0000   1.0000   1.0000   1.0000
     1.0000   1.0000   1.0000   1.0000   1.0000   1.0000   1.0000   1.0000
     1.0000   1.0000   1.0000   1.0000   1.0000   1.0000   1.0000   1.0000
     1.0000   1.0000   1.0000   1.0000   1.0000   1.0000   1.0000   1.0000
     1.0000   1.0000   1.0000   1.0000   1.0000   1.0000   1.0000   1.0000
     1.0000   1.0000   1.0000   1.0000   1.0000   1.0000   1.0000   1.0000
     1.0000   1.0000   1.0000   1.0000   1.0000   1.0000   1.0000   1.0000
     1.0000   1.0000   1.0000   1.0000   1.0000   1.0000   1.0000   1.0000
     1.0000   1.0000   1.0000   1.0000   1.0000   1.0000   1.0000   1.0000
     1.0000   1.0000   1.0000   1.0000   1.0000   1.0000   1.0000   1.0000
     1.0000   1.0000   1.0000   1.0000   1.0000   1.0000   1.0000   1.0000
     1.0000   1.0000   1.0000   1.0000   1.0000   1.0000   1.0000   1.0000
     1.0000   1.0000   1.0000   1.0000   1.0000   1.0000   1.0000   1.0000
     1.0000   1.0000   1.0000   1.0000   1.0000   1.0000   1.0000   1.0000
     1.0000   1.0000   1.0000   1.0000   1.0000   1.0000   1.0000   1.0000
     1.0000   1.0000   1.0000   1.0000   1.0000   1.0000   1.0000   1.0000
     1.0000   1.0000   1.0000   1.0000   1.0000   1.0000   1.0000   1.0000
     1.0000   1.0000   1.0000   1.0000   1.0000   1.0000   1.0000   1.0000
     1.0000   1.0000   1.0000   1.0000   1.0000   1.0000   1.0000   1.0000
     1.0000   1.0000   1.0000   1.0000   1.0000   1.0000   1.0000   1.0000
     1.0000   1.0000   1.0000   1.0000   1.0000   1.0000   1.0000   1.0000
     1.0000   1.0000   1.0000   1.0000   1.0000   1.0000   1.0000   1.0000
     1.0000   1.0000   1.0000   1.0000   1.0000   1.0000   1.0000   1.0000
     1.0000   1.0000   1.0000   1.0000   1.0000   1.0000   1.0000   1.0000
     1.0000   1.0000   1.0000   1.0000   1.0000   1.0000   1.0000   1.0000
     1.0000   1.0000   1.0000   1.0000   1.0000   1.0000   1.0000   1.0000
     1.0000   1.0000   1.0000   1.0001   1.0003   1.0027   1.0429   0.9908
     0.7047   0.3450   0.1672   0.0169   0.0139   0.0024   0.0000   0.0000
     0.0000   0.0000   0.0000   0.0000   0.0000   0.0000   0.0000   0.0000
     0.0000   0.0000   0.0000   0.0000   0.0000   0.0000   0.0000   0.0000
     0.0000   0.0000   0.0000   0.0000   0.0000   0.0000   0.0000   0.0000
     0.0000   0.0000   0.0000   0.0000   0.0000   0.0000   0.0000   0.0000
     0.0000   0.0000   0.0000   0.0000   0.0000   0.0000   0.0000   0.0000
     0.0000   0.0000   0.0000   0.0000   0.0000   0.0000   0.0000   0.0000
     0.0000   0.0000   0.0000   0.0000   0.0000   0.0000   0.0000   0.0000
     0.0000   0.0000   0.0000   0.0000   0.0000   0.0000   0.0000   0.0000
     0.0000   0.0000   0.0000   0.0000   0.0000   0.0000   0.0000   0.0000
     0.0000   0.0000   0.0000   0.0000   0.0000   0.0000   0.0000   0.0000
     0.0000   0.0000   0.0000   0.0000   0.0000   0.0000   0.0000   0.0000
     0.0000   0.0000   0.0000   0.0000   0.0000   0.0000

          k = 0.3333 0.5774 0.0000 ( 64848 PWs)   bands (ev):

  -128.2796-128.2748-128.2733-128.2719-128.2031-128.0970-128.0763-128.0743
  -128.0729-128.0716-128.0675-128.0554-126.5498-126.5347-126.5266-126.5245
  -126.5235-126.5231-126.5213-126.5213-126.5210-126.5189-126.5185-126.5119
  -126.3888-126.3868-126.3848-126.3839-126.2987-126.2961-126.2924-126.2859
  -126.2765-126.2745-126.2716-126.2715-125.8426-125.8031-125.7330-125.7281
  -125.7255-125.7220-125.7178-125.7162-124.9546-124.8889-124.8758-124.8714
   -82.6778 -82.6563 -82.6070 -82.6027 -82.6011 -82.5990 -82.5616 -82.5513
   -82.5435 -82.5402 -82.5386 -82.5381 -82.5366 -82.5351 -82.5331 -82.5305
   -82.5205 -82.5201 -82.5146 -82.5045 -82.3667 -82.3645 -82.3621 -82.3610
   -82.3601 -82.3573 -82.3481 -82.3417 -81.5408 -81.4405 -81.4181 -81.4181
   -81.4148 -81.4138 -81.4087 -81.4010 -80.7045 -80.7031 -80.6996 -80.6903
   -80.6880 -80.6837 -80.6830 -80.6809 -80.6805 -80.6801 -80.6794 -80.6780
   -80.6777 -80.6773 -80.6770 -80.6768 -80.6763 -80.6755 -80.6748 -80.6744
   -80.6742 -80.6738 -80.6731 -80.6725 -80.6722 -80.6714 -80.6705 -80.6698
   -80.6694 -80.6676 -80.6635 -80.6606 -80.6601 -80.6591 -80.6580 -80.6517
   -80.5484 -80.5435 -80.5390 -80.5373 -80.5357 -80.5352 -80.5347 -80.5333
   -80.5315 -80.5310 -80.5301 -80.5264 -80.4599 -80.4529 -80.4487 -80.4472
   -80.4463 -80.4444 -80.4428 -80.4424 -80.4405 -80.4396 -80.4363 -80.4351
   -80.4344 -80.4339 -80.4274 -80.4258 -80.4243 -80.4231 -80.4227 -80.4223
   -80.4219 -80.4185 -80.4182 -80.4179 -80.0152 -80.0045 -79.9778 -79.9743
   -79.9615 -79.9364 -79.9180 -79.9170 -79.9103 -79.9050 -79.8992 -79.8927
   -79.8865 -79.8807 -79.8771 -79.8735 -79.8692 -79.8678 -79.8677 -79.8633
   -79.8595 -79.8560 -79.8519 -79.8503 -79.1653 -79.1442 -79.1043 -79.0926
   -79.0799 -79.0727 -79.0586 -79.0534 -78.9261 -78.8582 -78.8447 -78.8404
   -22.0582 -18.0710 -15.3196 -12.7127 -11.6581 -11.4768 -10.5136 -10.1479
   -10.0910 -10.0546  -9.9740  -9.9106  -9.8705  -9.8411  -9.8270  -9.7889
    -9.7614  -9.7399  -9.7019  -9.6784  -9.6174  -9.5732  -9.5608  -9.5453
    -9.4980  -9.4811  -9.4285  -9.3735  -9.3379  -9.3315  -9.3194  -9.3145
    -9.3004  -9.2797  -9.2543  -9.2278  -9.2194  -9.2044  -9.1898  -9.1688
    -9.1657  -9.1214  -9.0799  -9.0579  -9.0217  -9.0057  -8.9600  -8.8700
    -8.7851  -8.7568  -8.7014  -8.6739  -8.6661  -8.6309  -8.5907  -8.5846
    -8.5555  -8.5065  -8.4580  -8.4494  -8.4402  -8.4257  -8.4075  -8.3929
    -8.3797  -8.3723  -8.3668  -8.3606  -8.3233  -8.2934  -8.2452  -8.1944
    -8.1264  -8.1213  -8.0783  -8.0624  -8.0525  -8.0357  -8.0206  -8.0075
    -7.9881  -7.9872  -7.9758  -7.9628  -7.9567  -7.9427  -7.9282  -7.8980
    -7.8884  -7.8818  -7.8771  -7.8628  -7.8587  -7.8552  -7.8473  -7.8369
    -7.8049  -7.8009  -7.7919  -7.7827  -7.7640  -7.7583  -7.7462  -7.7347
    -7.7266  -7.7035  -7.6955  -7.6631  -7.6497  -7.6478  -7.6390  -7.6351
    -7.6264  -7.6055  -7.6020  -7.5779  -7.5738  -7.5714  -7.5641  -7.5492
    -7.5178  -7.5164  -7.5088  -7.5014  -7.4954  -7.4822  -7.4490  -7.4392
    -7.4365  -7.4127  -7.4062  -7.3937  -7.3802  -7.3789  -7.3656  -7.3637
    -7.3610  -7.3376  -7.3362  -7.3249  -7.3233  -7.3107  -7.3066  -7.2944
    -7.2878  -7.2845  -7.2834  -7.2559  -7.2497  -7.2370  -7.2352  -7.2221
    -7.2177  -7.2164  -7.2043  -7.2035  -7.1984  -7.1891  -7.1684  -7.1642
    -7.1601  -7.1556  -7.1538  -7.1451  -7.1402  -7.1238  -7.1160  -7.1145
    -7.1036  -7.1000  -7.0975  -7.0953  -7.0938  -7.0818  -7.0729  -7.0553
    -7.0511  -7.0467  -7.0255  -7.0097  -7.0058  -7.0023  -7.0001  -6.9911
    -6.9752  -6.9638  -6.9606  -6.9586  -6.9558  -6.9342  -6.9198  -6.9168
    -6.9118  -6.9088  -6.9015  -6.9005  -6.8857  -6.8826  -6.8585  -6.8553
    -6.8216  -6.8201  -6.7889  -6.7712  -6.7379  -6.7131  -6.6861  -6.6698
    -6.6608  -6.6476  -6.6421  -6.6273  -6.6130  -6.6045  -6.5707  -6.5647
    -6.5523  -6.5364  -6.5309  -6.5177  -6.5116  -6.5042  -6.4966  -6.4867
    -6.4767  -6.4708  -6.4658  -6.4480  -6.4397  -6.4300  -6.4049  -6.3886
    -6.3788  -6.3622  -6.3588  -6.3306  -6.3236  -6.3126  -6.2910  -6.2302
    -6.1529  -6.0027  -5.9971  -5.9730  -5.9634  -5.9262  -5.9220  -5.9150
    -5.8817  -5.7990  -5.7691  -5.7481  -5.6768  -5.6406  -5.6023  -5.5856
    -5.5566  -5.5295  -5.5191  -5.5065  -5.4698  -5.4632  -5.4384  -5.3211
    -5.3044  -5.2961  -5.1434  -5.0757  -4.9462  -4.6858  -4.4686  -4.4323
    -4.2675  -4.2403  -4.2039  -3.9493  -3.9207  -3.8099  -3.4743  -3.4193
    -3.1148  -3.0714  -2.9956  -2.7409  -2.5667  -2.2737  -2.2187  -2.1899
    -2.0968  -2.0042  -1.8843  -1.8054  -1.6767  -1.5478  -1.4521  -0.9541
    -0.8492  -0.7616  -0.5632  -0.5561  -0.2835  -0.2507  -0.1783  -0.1448
     0.0068   0.1016   0.1925   0.2096   0.4092   0.4337   0.5164   0.5762
     0.7156   0.8631   0.8977   1.2040   1.2962   1.4182   1.5453   1.6991
     1.7239   1.8042   1.8467   1.8536   1.9834   2.0196   2.1175   2.1600
     2.2631   2.3052   2.4607   2.5178   2.5557   2.5754   2.6102   2.7313
     2.7823   2.8782   2.9376   3.1188   3.1497   3.1630   3.3075   3.4099
     3.4445   3.4864   3.5113   3.5904   3.6164   3.6267   3.6732   3.8097
     3.8856   3.9890   4.0299   4.0566   4.1126   4.1232   4.1875   4.2907
     4.3483   4.4411   4.4830   4.6207   4.7581   4.8763   4.9647   5.0489
     5.0833   5.1507   5.2067   5.2172   5.2716   5.3493   5.4274   5.4474
     5.5102   5.6880   5.7911   5.8907   5.9432   5.9665   6.0256   6.0561
     6.1985   6.2273   6.2684   6.4243   6.4845   6.5318   6.5651   6.6042
     6.6652   6.7610   6.8524   6.9106   7.0176   7.0459   7.0751   7.1397
     7.1850   7.2057   7.2602   7.3136   7.4039   7.4360

     occupation numbers 
     1.0000   1.0000   1.0000   1.0000   1.0000   1.0000   1.0000   1.0000
     1.0000   1.0000   1.0000   1.0000   1.0000   1.0000   1.0000   1.0000
     1.0000   1.0000   1.0000   1.0000   1.0000   1.0000   1.0000   1.0000
     1.0000   1.0000   1.0000   1.0000   1.0000   1.0000   1.0000   1.0000
     1.0000   1.0000   1.0000   1.0000   1.0000   1.0000   1.0000   1.0000
     1.0000   1.0000   1.0000   1.0000   1.0000   1.0000   1.0000   1.0000
     1.0000   1.0000   1.0000   1.0000   1.0000   1.0000   1.0000   1.0000
     1.0000   1.0000   1.0000   1.0000   1.0000   1.0000   1.0000   1.0000
     1.0000   1.0000   1.0000   1.0000   1.0000   1.0000   1.0000   1.0000
     1.0000   1.0000   1.0000   1.0000   1.0000   1.0000   1.0000   1.0000
     1.0000   1.0000   1.0000   1.0000   1.0000   1.0000   1.0000   1.0000
     1.0000   1.0000   1.0000   1.0000   1.0000   1.0000   1.0000   1.0000
     1.0000   1.0000   1.0000   1.0000   1.0000   1.0000   1.0000   1.0000
     1.0000   1.0000   1.0000   1.0000   1.0000   1.0000   1.0000   1.0000
     1.0000   1.0000   1.0000   1.0000   1.0000   1.0000   1.0000   1.0000
     1.0000   1.0000   1.0000   1.0000   1.0000   1.0000   1.0000   1.0000
     1.0000   1.0000   1.0000   1.0000   1.0000   1.0000   1.0000   1.0000
     1.0000   1.0000   1.0000   1.0000   1.0000   1.0000   1.0000   1.0000
     1.0000   1.0000   1.0000   1.0000   1.0000   1.0000   1.0000   1.0000
     1.0000   1.0000   1.0000   1.0000   1.0000   1.0000   1.0000   1.0000
     1.0000   1.0000   1.0000   1.0000   1.0000   1.0000   1.0000   1.0000
     1.0000   1.0000   1.0000   1.0000   1.0000   1.0000   1.0000   1.0000
     1.0000   1.0000   1.0000   1.0000   1.0000   1.0000   1.0000   1.0000
     1.0000   1.0000   1.0000   1.0000   1.0000   1.0000   1.0000   1.0000
     1.0000   1.0000   1.0000   1.0000   1.0000   1.0000   1.0000   1.0000
     1.0000   1.0000   1.0000   1.0000   1.0000   1.0000   1.0000   1.0000
     1.0000   1.0000   1.0000   1.0000   1.0000   1.0000   1.0000   1.0000
     1.0000   1.0000   1.0000   1.0000   1.0000   1.0000   1.0000   1.0000
     1.0000   1.0000   1.0000   1.0000   1.0000   1.0000   1.0000   1.0000
     1.0000   1.0000   1.0000   1.0000   1.0000   1.0000   1.0000   1.0000
     1.0000   1.0000   1.0000   1.0000   1.0000   1.0000   1.0000   1.0000
     1.0000   1.0000   1.0000   1.0000   1.0000   1.0000   1.0000   1.0000
     1.0000   1.0000   1.0000   1.0000   1.0000   1.0000   1.0000   1.0000
     1.0000   1.0000   1.0000   1.0000   1.0000   1.0000   1.0000   1.0000
     1.0000   1.0000   1.0000   1.0000   1.0000   1.0000   1.0000   1.0000
     1.0000   1.0000   1.0000   1.0000   1.0000   1.0000   1.0000   1.0000
     1.0000   1.0000   1.0000   1.0000   1.0000   1.0000   1.0000   1.0000
     1.0000   1.0000   1.0000   1.0000   1.0000   1.0000   1.0000   1.0000
     1.0000   1.0000   1.0000   1.0000   1.0000   1.0000   1.0000   1.0000
     1.0000   1.0000   1.0000   1.0000   1.0000   1.0000   1.0000   1.0000
     1.0000   1.0000   1.0000   1.0000   1.0000   1.0000   1.0000   1.0000
     1.0000   1.0000   1.0000   1.0000   1.0000   1.0000   1.0000   1.0000
     1.0000   1.0000   1.0000   1.0000   1.0000   1.0000   1.0000   1.0000
     1.0000   1.0000   1.0000   1.0000   1.0000   1.0000   1.0000   1.0000
     1.0000   1.0000   1.0000   1.0000   1.0000   1.0000   1.0000   1.0000
     1.0000   1.0000   1.0000   1.0000   1.0000   1.0000   1.0000   1.0000
     1.0000   1.0000   1.0000   1.0000   1.0000   1.0000   1.0000   1.0000
     1.0000   1.0000   1.0000   1.0000   1.0000   1.0000   1.0000   1.0000
     1.0000   1.0000   1.0000   1.0000   1.0000   1.0000   1.0000   1.0000
     1.0000   1.0000   1.0000   1.0000   1.0000   1.0000   1.0000   1.0000
     1.0000   1.0000   1.0000   1.0000   1.0000   1.0000   1.0000   1.0000
     1.0000   1.0000   1.0000   1.0000   1.0000   1.0000   1.0000   1.0000
     1.0000   1.0000   1.0000   1.0000   1.0000   1.0000   1.0000   1.0000
     1.0000   1.0000   1.0000   1.0000   1.0000   1.0000   1.0000   1.0000
     1.0000   1.0000   1.0000   1.0000   1.0000   1.0000   1.0000   1.0000
     1.0000   1.0000   1.0000   1.0000   1.0000   1.0000   1.0000   1.0000
     1.0000   1.0000   1.0000   1.0000   1.0000   1.0000   1.0000   1.0000
     1.0000   1.0000   1.0000   1.0000   1.0000   1.0000   1.0000   1.0000
     1.0000   1.0000   1.0000   1.0000   1.0000   1.0000   1.0000   1.0000
     1.0000   1.0000   1.0000   1.0000   1.0000   1.0000   1.0000   1.0000
     1.0000   1.0000   1.0000   1.0000   1.0000   1.0000   1.0000   1.0000
     1.0003   1.0013   1.0191   1.0205   1.0783   1.0637   0.9887   0.9323
     0.5540   0.3121   0.1476   0.1252   0.0107   0.0074   0.0019   0.0006
     0.0000   0.0000   0.0000   0.0000   0.0000   0.0000   0.0000   0.0000
     0.0000   0.0000   0.0000   0.0000   0.0000   0.0000   0.0000   0.0000
     0.0000   0.0000   0.0000   0.0000   0.0000   0.0000   0.0000   0.0000
     0.0000   0.0000   0.0000   0.0000   0.0000   0.0000   0.0000   0.0000
     0.0000   0.0000   0.0000   0.0000   0.0000   0.0000   0.0000   0.0000
     0.0000   0.0000   0.0000   0.0000   0.0000   0.0000   0.0000   0.0000
     0.0000   0.0000   0.0000   0.0000   0.0000   0.0000   0.0000   0.0000
     0.0000   0.0000   0.0000   0.0000   0.0000   0.0000   0.0000   0.0000
     0.0000   0.0000   0.0000   0.0000   0.0000   0.0000   0.0000   0.0000
     0.0000   0.0000   0.0000   0.0000   0.0000   0.0000   0.0000   0.0000
     0.0000   0.0000   0.0000   0.0000   0.0000   0.0000   0.0000   0.0000
     0.0000   0.0000   0.0000   0.0000   0.0000   0.0000

          k = 0.3333-0.1925 0.0000 ( 64840 PWs)   bands (ev):

  -128.2796-128.2748-128.2733-128.2719-128.2031-128.0970-128.0763-128.0743
  -128.0729-128.0716-128.0675-128.0554-126.5498-126.5347-126.5266-126.5245
  -126.5235-126.5231-126.5213-126.5213-126.5210-126.5189-126.5185-126.5119
  -126.3888-126.3868-126.3848-126.3839-126.2987-126.2961-126.2924-126.2859
  -126.2765-126.2745-126.2716-126.2715-125.8426-125.8031-125.7330-125.7281
  -125.7255-125.7220-125.7178-125.7162-124.9546-124.8889-124.8758-124.8714
   -82.6778 -82.6563 -82.6070 -82.6027 -82.6011 -82.5990 -82.5616 -82.5513
   -82.5435 -82.5402 -82.5386 -82.5381 -82.5366 -82.5351 -82.5331 -82.5305
   -82.5205 -82.5201 -82.5146 -82.5045 -82.3667 -82.3645 -82.3621 -82.3610
   -82.3601 -82.3573 -82.3481 -82.3417 -81.5408 -81.4405 -81.4181 -81.4181
   -81.4148 -81.4138 -81.4087 -81.4010 -80.7045 -80.7031 -80.6996 -80.6903
   -80.6880 -80.6837 -80.6830 -80.6809 -80.6805 -80.6801 -80.6794 -80.6780
   -80.6777 -80.6773 -80.6770 -80.6768 -80.6763 -80.6755 -80.6748 -80.6744
   -80.6742 -80.6738 -80.6731 -80.6725 -80.6722 -80.6714 -80.6705 -80.6698
   -80.6694 -80.6676 -80.6635 -80.6606 -80.6601 -80.6591 -80.6580 -80.6517
   -80.5484 -80.5435 -80.5390 -80.5373 -80.5357 -80.5352 -80.5347 -80.5333
   -80.5315 -80.5310 -80.5301 -80.5264 -80.4599 -80.4529 -80.4487 -80.4472
   -80.4463 -80.4444 -80.4428 -80.4424 -80.4405 -80.4396 -80.4363 -80.4351
   -80.4344 -80.4339 -80.4274 -80.4258 -80.4243 -80.4231 -80.4227 -80.4223
   -80.4219 -80.4185 -80.4182 -80.4179 -80.0152 -80.0045 -79.9778 -79.9743
   -79.9615 -79.9364 -79.9180 -79.9170 -79.9103 -79.9050 -79.8992 -79.8927
   -79.8865 -79.8807 -79.8771 -79.8735 -79.8692 -79.8678 -79.8677 -79.8633
   -79.8595 -79.8560 -79.8519 -79.8503 -79.1653 -79.1442 -79.1043 -79.0926
   -79.0799 -79.0727 -79.0586 -79.0534 -78.9261 -78.8582 -78.8447 -78.8404
   -22.0582 -18.0710 -15.3196 -12.7127 -11.6581 -11.4768 -10.5455 -10.1281
   -10.0920 -10.0569  -9.9737  -9.9102  -9.8704  -9.8414  -9.8257  -9.7890
    -9.7616  -9.7404  -9.7020  -9.6784  -9.6175  -9.5805  -9.5731  -9.5558
    -9.5140  -9.4891  -9.4004  -9.3734  -9.3408  -9.3329  -9.3195  -9.3146
    -9.3004  -9.2798  -9.2532  -9.2231  -9.2193  -9.2027  -9.1897  -9.1659
    -9.1500  -9.1213  -9.0800  -9.0582  -9.0227  -9.0102  -8.8732  -8.8664
    -8.7858  -8.7590  -8.7003  -8.6754  -8.6677  -8.6384  -8.6318  -8.5713
    -8.5125  -8.4965  -8.4576  -8.4434  -8.4278  -8.4118  -8.3920  -8.3892
    -8.3855  -8.3768  -8.3740  -8.3684  -8.3234  -8.2943  -8.2524  -8.2293
    -8.2051  -8.1245  -8.0890  -8.0711  -8.0641  -8.0491  -8.0048  -8.0013
    -7.9727  -7.9648  -7.9624  -7.9611  -7.9454  -7.9227  -7.9207  -7.9045
    -7.8957  -7.8775  -7.8681  -7.8543  -7.8509  -7.8323  -7.8261  -7.8220
    -7.8044  -7.7937  -7.7887  -7.7758  -7.7569  -7.7401  -7.7331  -7.7172
    -7.7108  -7.7014  -7.6930  -7.6806  -7.6566  -7.6515  -7.6295  -7.6253
    -7.6169  -7.6086  -7.5958  -7.5846  -7.5711  -7.5663  -7.5435  -7.5268
    -7.5178  -7.5061  -7.4926  -7.4884  -7.4832  -7.4635  -7.4456  -7.4333
    -7.4273  -7.4160  -7.4047  -7.3994  -7.3978  -7.3868  -7.3772  -7.3744
    -7.3658  -7.3330  -7.3204  -7.3161  -7.3142  -7.3072  -7.3004  -7.2945
    -7.2790  -7.2732  -7.2708  -7.2641  -7.2499  -7.2327  -7.2293  -7.2285
    -7.2245  -7.2183  -7.2052  -7.1940  -7.1928  -7.1876  -7.1787  -7.1730
    -7.1706  -7.1681  -7.1629  -7.1488  -7.1383  -7.1304  -7.1268  -7.1209
    -7.1206  -7.1116  -7.1002  -7.0974  -7.0947  -7.0919  -7.0828  -7.0755
    -7.0730  -7.0641  -7.0530  -7.0231  -7.0194  -7.0112  -7.0086  -6.9987
    -6.9868  -6.9695  -6.9583  -6.9536  -6.9490  -6.9401  -6.9342  -6.9231
    -6.9190  -6.9118  -6.9020  -6.8972  -6.8891  -6.8689  -6.8463  -6.8433
    -6.8379  -6.8155  -6.7853  -6.7682  -6.7370  -6.7324  -6.6923  -6.6629
[...]
     atom   28 type  1   force =     0.00000000    0.00000000    0.00000000
     atom   29 type  1   force =     0.00000000    0.00000000    0.00000000
     atom   30 type  1   force =     0.00000000    0.00000000    0.00000000
     atom   31 type  1   force =     0.00000000    0.00000000    0.00000000
     atom   32 type  1   force =     0.00000000    0.00000000    0.00000000
     atom   33 type  1   force =     0.00000000    0.00000000    0.00000000
     atom   34 type  1   force =     0.00000000    0.00000000    0.00000000
     atom   35 type  1   force =     0.00000000    0.00000000    0.00000000
     atom   36 type  1   force =     0.00000000    0.00000000    0.00000000
     atom   37 type  1   force =     0.00000000    0.00000000    0.00000000
     atom   38 type  1   force =     0.00000000    0.00000000    0.00000000
     atom   39 type  1   force =     0.00000000    0.00000000    0.00000000
     atom   40 type  1   force =     0.00000000    0.00000000    0.00000000
     atom   41 type  1   force =     0.00000000    0.00000000    0.00000000
     atom   42 type  1   force =     0.00000000    0.00000000    0.00000000
     atom   43 type  1   force =     0.00000000    0.00000000    0.00000000
     atom   44 type  1   force =     0.00000000    0.00000000    0.00000000
     atom   45 type  1   force =     0.00000000    0.00000000    0.00000000
     atom   46 type  1   force =     0.00000000    0.00000000    0.00000000
     atom   47 type  1   force =     0.00000000    0.00000000    0.00000000
     atom   48 type  1   force =     0.00000000    0.00000000    0.00000000
     atom   49 type  3   force =     0.00000000    0.00000000    0.00000000
     atom   50 type  3   force =     0.00000000    0.00000000    0.00000000
     atom   51 type  3   force =     0.00000000    0.00000000    0.00000000
     atom   52 type  3   force =     0.00000000    0.00000000    0.00000000
     atom   53 type  3   force =     0.00000000    0.00000000    0.00000000
     atom   54 type  3   force =     0.00000000    0.00000000    0.00000000
     atom   55 type  2   force =     0.00000000    0.00000000    0.00000000
     atom   56 type  4   force =     0.00000000    0.00000000    0.00000000
     atom   57 type  4   force =     0.00000000    0.00000000    0.00000000
     atom   58 type  4   force =     0.00000000    0.00000000    0.00000000
     atom   59 type  4   force =     0.00000000    0.00000000    0.00000000
     atom   60 type  4   force =     0.00000000    0.00000000    0.00000000
     atom   61 type  4   force =     0.00000000    0.00000000    0.00000000
     atom   62 type  4   force =     0.00000000    0.00000000    0.00000000
     atom   63 type  4   force =     0.00000000    0.00000000    0.00000000
     The SCF correction term to forces
     atom    1 type  1   force =     0.00000000    0.00000000    0.00000000
     atom    2 type  1   force =    -0.00000000   -0.00000000    0.00000000
     atom    3 type  1   force =    -0.00020989   -0.00000350   -0.00004071
     atom    4 type  1   force =     0.00015115    0.00009291    0.00025665
     atom    5 type  1   force =     0.00000000    0.00000000    0.00000000
     atom    6 type  1   force =    -0.00000000   -0.00000000    0.00000000
     atom    7 type  1   force =    -0.00017652   -0.00005540   -0.00010217
     atom    8 type  1   force =     0.00012814    0.00007969    0.00021007
     atom    9 type  1   force =     0.00000000   -0.00000000    0.00000000
     atom   10 type  1   force =    -0.00000000   -0.00000000    0.00000000
     atom   11 type  1   force =    -0.00011309   -0.00018248   -0.00007173
     atom   12 type  1   force =     0.00007673    0.00002887    0.00009379
     atom   13 type  1   force =     0.00000000    0.00000000    0.00000000
     atom   14 type  1   force =    -0.00000000   -0.00000000    0.00000000
     atom   15 type  1   force =    -0.00015151   -0.00013468   -0.00000352
     atom   16 type  1   force =     0.00009061    0.00005481    0.00023187
     atom   17 type  1   force =    -0.00000000   -0.00000000    0.00000000
     atom   18 type  1   force =     0.00000000    0.00000000    0.00000000
     atom   19 type  1   force =     0.00001940    0.00005576    0.00007920
     atom   20 type  1   force =     0.00004473    0.00008482    0.00005588
     atom   21 type  1   force =    -0.00000000   -0.00000000    0.00000000
     atom   22 type  1   force =     0.00000000    0.00000000    0.00000000
     atom   23 type  1   force =    -0.00004867    0.00007233    0.00002058
     atom   24 type  1   force =     0.00009606    0.00004267    0.00003171
     atom   25 type  1   force =    -0.00000000   -0.00000000    0.00000000
     atom   26 type  1   force =     0.00000000    0.00000000    0.00000000
     atom   27 type  1   force =    -0.00000613   -0.00006343    0.00000871
     atom   28 type  1   force =     0.00007891   -0.00002643    0.00003397
     atom   29 type  1   force =    -0.00000000   -0.00000000    0.00000000
     atom   30 type  1   force =     0.00000000    0.00000000    0.00000000
     atom   31 type  1   force =     0.00005091   -0.00005493    0.00006811
     atom   32 type  1   force =     0.00001534    0.00003281    0.00005571
     atom   33 type  1   force =    -0.00018584   -0.00002742   -0.00011070
     atom   34 type  1   force =     0.00022381    0.00020168    0.00022382
     atom   35 type  1   force =    -0.00025249    0.00000949   -0.00012918
     atom   36 type  1   force =     0.00030489    0.00012983    0.00024167
     atom   37 type  1   force =    -0.00016669   -0.00017778   -0.00012429
     atom   38 type  1   force =     0.00023105    0.00005893    0.00029002
     atom   39 type  1   force =    -0.00010083   -0.00021181   -0.00010597
     atom   40 type  1   force =     0.00014909    0.00013341    0.00027233
     atom   41 type  1   force =    -0.00003055   -0.00003610    0.00000888
     atom   42 type  1   force =     0.00009138    0.00020711    0.00011383
     atom   43 type  1   force =    -0.00012444   -0.00000300    0.00002437
     atom   44 type  1   force =     0.00017655    0.00015382    0.00008645
     atom   45 type  1   force =    -0.00020334   -0.00009727    0.00002560
     atom   46 type  1   force =     0.00024798   -0.00001262    0.00013543
     atom   47 type  1   force =    -0.00010615   -0.00013175    0.00002090
     atom   48 type  1   force =     0.00016701    0.00004744    0.00014560
     atom   49 type  3   force =     0.00002724    0.00001781   -0.00001699
     atom   50 type  3   force =    -0.00002054   -0.00001019    0.00000825
     atom   51 type  3   force =     0.00002166    0.00001378   -0.00009131
     atom   52 type  3   force =    -0.00004217   -0.00002489   -0.00000807
     atom   53 type  3   force =    -0.00001638   -0.00000705   -0.00012456
     atom   54 type  3   force =    -0.00002911   -0.00001459   -0.00009543
     atom   55 type  2   force =    -0.00000055    0.00000825   -0.00011908
     atom   56 type  4   force =     0.00001001    0.00000596   -0.00000146
     atom   57 type  4   force =    -0.00000817   -0.00000458    0.00000714
     atom   58 type  4   force =    -0.00000070    0.00000196   -0.00001922
     atom   59 type  4   force =     0.00000814    0.00000491   -0.00002405
     atom   60 type  4   force =    -0.00001123   -0.00000677    0.00000037
     atom   61 type  4   force =     0.00000361    0.00000367   -0.00001540
     atom   62 type  4   force =    -0.00000675   -0.00000327   -0.00001950
     atom   63 type  4   force =     0.00000055   -0.00000114   -0.00001825

     DFT-D3 dispersion contribution to forces:
     atom    1 type  1   force =     0.00000798    0.00000596    0.00257612
     atom    2 type  1   force =     0.00005705    0.00003789    0.00255244
     atom    3 type  1   force =    -0.00046118   -0.00023059   -0.00244866
     atom    4 type  1   force =     0.00164566    0.00096444   -0.00215403
     atom    5 type  1   force =    -0.00001128   -0.00000485    0.00255389
     atom    6 type  1   force =     0.00004829    0.00009007    0.00264790
     atom    7 type  1   force =    -0.00025257   -0.00017661   -0.00229931
     atom    8 type  1   force =     0.00106322    0.00157396   -0.00104623
     atom    9 type  1   force =     0.00001270    0.00000594    0.00257878
     atom   10 type  1   force =     0.00006661    0.00003384    0.00273789
     atom   11 type  1   force =    -0.00050265   -0.00028970   -0.00245740
     atom   12 type  1   force =     0.00105367    0.00057171   -0.00149356
     atom   13 type  1   force =    -0.00000889   -0.00000497    0.00259980
     atom   14 type  1   force =     0.00010076   -0.00000253    0.00262880
     atom   15 type  1   force =    -0.00064601   -0.00038523   -0.00237155
     atom   16 type  1   force =     0.00194754    0.00020620   -0.00118202
     atom   17 type  1   force =     0.00003167    0.00004595    0.00252470
     atom   18 type  1   force =     0.00002704    0.00003006    0.00262373
     atom   19 type  1   force =    -0.00069703   -0.00014314   -0.00229220
     atom   20 type  1   force =    -0.00041326   -0.00039867   -0.00244677
     atom   21 type  1   force =     0.00004434    0.00006391    0.00257196
     atom   22 type  1   force =     0.00003135    0.00000344    0.00262743
     atom   23 type  1   force =    -0.00024757    0.00031087   -0.00134332
     atom   24 type  1   force =    -0.00061277   -0.00010899   -0.00235766
     atom   25 type  1   force =     0.00007930   -0.00000173    0.00256891
     atom   26 type  1   force =    -0.00003200    0.00000010    0.00272602
     atom   27 type  1   force =     0.00014194   -0.00047400   -0.00141839
     atom   28 type  1   force =    -0.00127684   -0.00026551   -0.00138785
     atom   29 type  1   force =     0.00005019    0.00001056    0.00251578
     atom   30 type  1   force =    -0.00001380   -0.00002523    0.00272574
     atom   31 type  1   force =    -0.00054503   -0.00047592   -0.00240417
     atom   32 type  1   force =    -0.00075162   -0.00098360   -0.00152665
     atom   33 type  1   force =    -0.00028653   -0.00019468   -0.00007889
     atom   34 type  1   force =    -0.00011038   -0.00006244    0.00022421
     atom   35 type  1   force =    -0.00026212   -0.00018674    0.00003278
     atom   36 type  1   force =    -0.00010981   -0.00006697    0.00023363
     atom   37 type  1   force =    -0.00030897   -0.00013774   -0.00001631
     atom   38 type  1   force =    -0.00006221   -0.00004711    0.00050929
     atom   39 type  1   force =    -0.00029773   -0.00014882   -0.00007358
     atom   40 type  1   force =    -0.00007424   -0.00003393    0.00045570
     atom   41 type  1   force =    -0.00007298   -0.00004175   -0.00016387
     atom   42 type  1   force =     0.00026669    0.00011861   -0.00020486
     atom   43 type  1   force =    -0.00007631   -0.00010349   -0.00010728
     atom   44 type  1   force =     0.00024530    0.00014051   -0.00029512
     atom   45 type  1   force =    -0.00007353   -0.00004806    0.00016317
     atom   46 type  1   force =     0.00028689    0.00020839   -0.00023695
     atom   47 type  1   force =    -0.00013306    0.00000596   -0.00014673
     atom   48 type  1   force =     0.00076930    0.00043960   -0.00064308
     atom   49 type  3   force =     0.00015753    0.00009824   -0.00026610
     atom   50 type  3   force =     0.00002955    0.00000853    0.00019393
     atom   51 type  3   force =     0.00017199    0.00014655   -0.00054823
     atom   52 type  3   force =    -0.00015176   -0.00008354   -0.00028559
     atom   53 type  3   force =     0.00007111    0.00003323   -0.00100627
     atom   54 type  3   force =    -0.00021982   -0.00008840   -0.00050761
     atom   55 type  2   force =     0.00002471    0.00000517   -0.00165425
     atom   56 type  4   force =    -0.00002344   -0.00001200   -0.00002554
     atom   57 type  4   force =    -0.00000359    0.00000528   -0.00008927
     atom   58 type  4   force =     0.00013529   -0.00004504   -0.00194353
     atom   59 type  4   force =    -0.00002451    0.00000132   -0.00038613
     atom   60 type  4   force =    -0.00000687   -0.00000288   -0.00002011
     atom   61 type  4   force =     0.00011030   -0.00001022   -0.00208217
     atom   62 type  4   force =     0.00003500    0.00004251   -0.00043362
     atom   63 type  4   force =     0.00005741    0.00007634   -0.00172772

     Total force =    16.259222     Total SCF correction =     0.001320

     DFT-D3 dispersion Force =     0.014502
     Energy error            =      3.9E+00 Ry
     Gradient error          =      5.2E+00 Ry/Bohr

     number of scf cycles    =   2
     number of bfgs steps    =   1

     energy             old  =  -22284.0289927307 Ry
     energy             new  =  -22280.0791251945 Ry

     CASE: energy            _new > energy            _old

     new trust radius        =       0.2223400898 bohr
     new conv_thr            =       0.0000010000 Ry


ATOMIC_POSITIONS (angstrom)
Zn               0.0000000000        1.5094010000        1.2182900000    0   0   0
Zn               5.2287200000        1.5094010000        1.2182900000    0   0   0
Zn              -0.0179525705        1.4974415879        6.2014218763
Zn               5.3303703627        1.5653269524        6.2012851071
Zn              -1.3071800000        3.7735030000        1.2182900000    0   0   0
Zn               3.9215400000        3.7735030000        1.2182900000    0   0   0
Zn              -1.3247496295        3.7618078231        6.2102977746
Zn               4.0241157699        3.8294875619        6.1717302499
Zn              -2.6143600000        6.0376050000        1.2182900000    0   0   0
Zn               2.6143600000        6.0376050000        1.2182900000    0   0   0
Zn              -2.6323705013        6.0270259128        6.2022051018
Zn               2.7142651777        6.1005138174        5.9503159326
Zn              -3.9215400000        8.3017080000        1.2182900000    0   0   0
Zn               1.3071800000        8.3017080000        1.2182900000    0   0   0
Zn              -3.9399662919        8.2901044826        6.2096965570
Zn               1.4089228364        8.3594616088        6.1990791374
Zn               2.6143600000        1.5094010000        1.2182900000    0   0   0
Zn               7.8430800000        1.5094010000        1.2182900000    0   0   0
Zn               2.5971354610        1.4991455016        6.2105641350
Zn               7.8246526165        1.4975426879        6.2073738738
Zn               1.3071800000        3.7735030000        1.2182900000    0   0   0
Zn               6.5359000000        3.7735030000        1.2182900000    0   0   0
Zn               1.2879126907        3.7609463875        6.1704792280
Zn               6.5178464197        3.7618446321        6.2100206131
Zn               0.0000000000        6.0376050000        1.2182900000    0   0   0
Zn               5.2287200000        6.0376050000        1.2182900000    0   0   0
Zn              -0.0189613332        6.0258567910        6.1851295306
Zn               5.2114435515        6.0253045965        6.1844840793
Zn              -1.3071800000        8.3017080000        1.2182900000    0   0   0
Zn               3.9215400000        8.3017080000        1.2182900000    0   0   0
Zn              -1.3238112533        8.2906623503        6.2080539842
Zn               3.9035714775        8.2926154328        6.1908463768
Zn               1.2906806723        0.7428743143        3.7116888535
Zn               6.5225353780        0.7514684188        3.7159440582
Zn              -0.0205708855        3.0034236948        3.7160623648
Zn               5.2213122428        3.0068215230        3.7125211921
Zn              -1.3305018898        5.2725492647        3.7132147458
Zn               3.9244912611        5.2686562761        3.6794689525
Zn              -2.6316843583        7.5384525296        3.7113984927
Zn               2.6031037026        7.5584656683        3.6807372061
Zn               3.9066508904        0.7453723087        3.7104600873
Zn               9.1352738636        0.7488012970        3.7133240709
Zn               2.6002248460        3.0020557217        3.7078228361
Zn               7.8257053096        3.0079679025        3.7057447187
Zn               1.2786404113        5.2676588238        3.6806798175
Zn               6.5234650618        5.2728624473        3.7169251645
Zn              -0.0193528550        7.5437211277        3.7121386988
Zn               5.2176861155        7.5407712744        3.7116945873
C                3.6787688752        6.3213921579       12.6477284007
C                2.6569639551        5.6915981242       13.3228316481
C                3.6825828414        6.3760955858       11.2513234103
C                1.5917710251        5.0901023928       12.6117456222
C                2.6477249106        5.7870851920       10.5679492768
C                1.5798274055        5.1345075509       11.2144378207
N                2.6458053347        5.8547152353        9.0948170544
H                4.4926434746        6.7766204989       13.2097568681
H                2.6474234599        5.6382079759       14.4122496899
H                3.5656509027        5.8176844273        8.6679418949
H                4.4890762202        6.8721882084       10.7086354025
H                0.7806885697        4.5873787957       13.1454398881
H                2.1166812043        5.0500505053        8.6439925212
H                0.7653526254        4.6719068073       10.6434042469
H                2.1757158487        6.6943285224        8.7006880535



     Writing config-only to output data dir ./tmp/01_Zn002_topsite_upright.save/ :
     XML data file
     NEW-OLD atomic charge density approx. for the potential

     negative rho (up, down):  2.508E-03 0.000E+00

     Adding external electric field

     Computed dipole along edir(1) : 
        Elec. dipole         -0.5812 Ry au,         -1.4772 Debye
        Ion. dipole          -0.6770 Ry au,         -1.7207 Debye
        Dipole             -115.6775 Ry au,       -294.0230 Debye
        Dipole field         -0.0958 Ry au, 

        Potential amp.        3.4071 Ry
        Total length         17.7855 bohr


     total cpu time spent up to now is     4125.6 secs

     Self-consistent Calculation

     iteration #  1     ecut=    40.00 Ry     beta= 0.40
     Davidson diagonalization with overlap

---- Real-time Memory Report at c_bands before calling an iterative solver
           641 MiB given to the printing process from OS
             0 MiB allocation reported by mallinfo(arena+hblkhd)
         93357 MiB available memory on the node where the printing process lives
------------------
     c_bands:  1 eigenvalues not converged
     c_bands:  1 eigenvalues not converged
     c_bands:  1 eigenvalues not converged
     c_bands:  2 eigenvalues not converged
     ethr =  1.00E-06,  avg # of iterations = 20.0

     negative rho (up, down):  2.156E-03 0.000E+00

     Adding external electric field

     Computed dipole along edir(1) : 
        Elec. dipole         -0.8055 Ry au,         -2.0473 Debye
        Ion. dipole          -0.6770 Ry au,         -1.7207 Debye
        Dipole              155.2070 Ry au,        394.4968 Debye
        Dipole field          0.1285 Ry au, 

        Potential amp.       -4.5713 Ry
        Total length         17.7855 bohr


     total cpu time spent up to now is     4497.7 secs

     total energy              =  -21702.35985654 Ry
     estimated scf accuracy    <     935.90153539 Ry

     iteration #  2     ecut=    40.00 Ry     beta= 0.40
     Davidson diagonalization with overlap

---- Real-time Memory Report at c_bands before calling an iterative solver
           641 MiB given to the printing process from OS
             0 MiB allocation reported by mallinfo(arena+hblkhd)
         93262 MiB available memory on the node where the printing process lives
------------------
