--------------------------------------------------------------------------
By default, for Open MPI 4.0 and later, infiniband ports on a device
are not used by default.  The intent is to use UCX for these devices.
You can override this policy by setting the btl_openib_allow_ib MCA parameter
to true.

  Local host:              psid02
  Local adapter:           mlx5_0
  Local port:              1

--------------------------------------------------------------------------
--------------------------------------------------------------------------
WARNING: There was an error initializing an OpenFabrics device.

  Local host:   psid02
  Local device: mlx5_0
--------------------------------------------------------------------------
[psid02:187283] [[48042,0],0] ORTE_ERROR_LOG: Out of resource in file util/show_help.c at line 507

     Program PWSCF v.7.3.1 starts on 26Mar2025 at 15:13:59 

     This program is part of the open-source Quantum ESPRESSO suite
     for quantum simulation of materials; please cite
         "P. Giannozzi et al., J. Phys.:Condens. Matter 21 395502 (2009);
         "P. Giannozzi et al., J. Phys.:Condens. Matter 29 465901 (2017);
         "P. Giannozzi et al., J. Chem. Phys. 152 154105 (2020);
          URL http://www.quantum-espresso.org", 
     in publications or presentations arising from this work. More details at
     http://www.quantum-espresso.org/quote

     Parallel version (MPI), running on    33 processors

     MPI processes distributed on     1 nodes
     41831 MiB available memory on the printing compute node when the environment starts

     Waiting for input...
     Reading input from standard input

     Current dimensions of program PWSCF are:
     Max number of different atomic species (ntypx) = 10
     Max number of k-points (npk) =  40000
     Max angular momentum in pseudopotentials (lmaxx) =  4
     Found identity + ( -0.5000  0.0000  0.0000) symmetry
     This is a supercell, fractional translations are disabled

     R & G space division:  proc/nbgrp/npool/nimage =      33
     Subspace diagonalization in iterative solution of the eigenvalue problem:
     one sub-group per band group will be used
     custom distributed-memory algorithm (size of sub-group:  5*  5 procs)


     Parallelization info
     --------------------
     sticks:   dense  smooth     PW     G-vecs:    dense   smooth      PW
     Min         228     130     36                36393    15714    2270
     Max         230     131     37                36401    15723    2280
     Sum        7555    4303   1189              1201061   518755   75035

     Using Slab Decomposition



     bravais-lattice index     =            0
     lattice parameter (alat)  =      19.7617  a.u.
     unit-cell volume          =   15176.5939 (a.u.)^3
     number of atoms/cell      =           48
     number of atomic types    =            1
     number of electrons       =       960.00
     number of Kohn-Sham states=          576
     kinetic-energy cutoff     =      40.0000  Ry
     charge density cutoff     =     280.0000  Ry
     scf convergence threshold =      1.0E-06
     mixing beta               =       0.4000
     number of iterations used =            8  plain     mixing
     Exchange-correlation= SLA  PW   PBE  PBE
                           (   1   4   3   4   0   0   0)

     celldm(1)=  19.761696  celldm(2)=   0.000000  celldm(3)=   0.000000
     celldm(4)=   0.000000  celldm(5)=   0.000000  celldm(6)=   0.000000

     crystal axes: (cart. coord. in units of alat)
               a(1) = (   1.000000   0.000000   0.000000 )  
               a(2) = (  -0.500000   0.866025   0.000000 )  
               a(3) = (   0.000000   0.000000   2.270759 )  

     reciprocal axes: (cart. coord. in units 2 pi/alat)
               b(1) = (  1.000000  0.577350 -0.000000 )  
               b(2) = (  0.000000  1.154701  0.000000 )  
               b(3) = (  0.000000 -0.000000  0.440381 )  


     PseudoPot. # 1 for Zn read from file:
     /home/ys/qepseudo/SSSP_1.3.0_PBE_efficiency/Zn_pbe_v1.uspp.F.UPF
     MD5 check sum: df62231357ef9e81f77b2b3087fa5675
     Pseudo is Ultrasoft, Zval = 20.0
     Generated by new atomic code, or converted to UPF format
     Using radial grid of  943 points,  6 beta functions with: 
                l(1) =   0
                l(2) =   0
                l(3) =   1
                l(4) =   1
                l(5) =   2
                l(6) =   2
     Q(r) pseudized with  8 coefficients,  rinner =    1.100   1.100   1.100
                                                       1.100   1.100

     atomic species   valence    mass     pseudopotential
     Zn               20.00    65.38000     Zn( 1.00)

     No symmetry found


                                    s                        frac. trans.

      isym =  1     identity                                     

 cryst.   s( 1) = (     1          0          0      )
                  (     0          1          0      )
                  (     0          0          1      )

 cart.    s( 1) = (  1.0000000  0.0000000  0.0000000 )
                  (  0.0000000  1.0000000  0.0000000 )
                  (  0.0000000  0.0000000  1.0000000 )


   Cartesian axes

     site n.     atom                  positions (alat units)
         1        Zn     tau(   1) = (   0.0000000   0.1443375   0.1164998  )
         2        Zn     tau(   2) = (   0.5000000   0.1443375   0.1164998  )
         3        Zn     tau(   3) = (   0.0000000   0.1443375   0.5824993  )
         4        Zn     tau(   4) = (   0.5000000   0.1443375   0.5824993  )
         5        Zn     tau(   5) = (  -0.1250000   0.3608439   0.1164998  )
         6        Zn     tau(   6) = (   0.3750000   0.3608439   0.1164998  )
         7        Zn     tau(   7) = (  -0.1250000   0.3608439   0.5824993  )
         8        Zn     tau(   8) = (   0.3750000   0.3608439   0.5824993  )
         9        Zn     tau(   9) = (  -0.2500000   0.5773502   0.1164998  )
        10        Zn     tau(  10) = (   0.2500000   0.5773502   0.1164998  )
        11        Zn     tau(  11) = (  -0.2500000   0.5773502   0.5824993  )
        12        Zn     tau(  12) = (   0.2500000   0.5773502   0.5824993  )
        13        Zn     tau(  13) = (  -0.3750000   0.7938567   0.1164998  )
        14        Zn     tau(  14) = (   0.1250000   0.7938567   0.1164998  )
        15        Zn     tau(  15) = (  -0.3750000   0.7938567   0.5824993  )
        16        Zn     tau(  16) = (   0.1250000   0.7938567   0.5824993  )
        17        Zn     tau(  17) = (   0.2500000   0.1443375   0.1164998  )
        18        Zn     tau(  18) = (   0.7500000   0.1443375   0.1164998  )
        19        Zn     tau(  19) = (   0.2500000   0.1443375   0.5824993  )
        20        Zn     tau(  20) = (   0.7500000   0.1443375   0.5824993  )
        21        Zn     tau(  21) = (   0.1250000   0.3608439   0.1164998  )
        22        Zn     tau(  22) = (   0.6250000   0.3608439   0.1164998  )
        23        Zn     tau(  23) = (   0.1250000   0.3608439   0.5824993  )
        24        Zn     tau(  24) = (   0.6250000   0.3608439   0.5824993  )
        25        Zn     tau(  25) = (   0.0000000   0.5773502   0.1164998  )
        26        Zn     tau(  26) = (   0.5000000   0.5773502   0.1164998  )
        27        Zn     tau(  27) = (   0.0000000   0.5773502   0.5824993  )
        28        Zn     tau(  28) = (   0.5000000   0.5773502   0.5824993  )
        29        Zn     tau(  29) = (  -0.1250000   0.7938567   0.1164998  )
        30        Zn     tau(  30) = (   0.3750000   0.7938567   0.1164998  )
        31        Zn     tau(  31) = (  -0.1250000   0.7938567   0.5824993  )
        32        Zn     tau(  32) = (   0.3750000   0.7938567   0.5824993  )
        33        Zn     tau(  33) = (   0.1250000   0.0721688   0.3494996  )
        34        Zn     tau(  34) = (   0.6250000   0.0721688   0.3494996  )
        35        Zn     tau(  35) = (   0.0000000   0.2886752   0.3494996  )
        36        Zn     tau(  36) = (   0.5000000   0.2886752   0.3494996  )
        37        Zn     tau(  37) = (  -0.1250000   0.5051815   0.3494996  )
        38        Zn     tau(  38) = (   0.3750000   0.5051815   0.3494996  )
        39        Zn     tau(  39) = (  -0.2500000   0.7216879   0.3494996  )
        40        Zn     tau(  40) = (   0.2500000   0.7216879   0.3494996  )
        41        Zn     tau(  41) = (   0.3750000   0.0721688   0.3494996  )
        42        Zn     tau(  42) = (   0.8750000   0.0721688   0.3494996  )
        43        Zn     tau(  43) = (   0.2500000   0.2886752   0.3494996  )
        44        Zn     tau(  44) = (   0.7500000   0.2886752   0.3494996  )
        45        Zn     tau(  45) = (   0.1250000   0.5051815   0.3494996  )
        46        Zn     tau(  46) = (   0.6250000   0.5051815   0.3494996  )
        47        Zn     tau(  47) = (   0.0000000   0.7216879   0.3494996  )
        48        Zn     tau(  48) = (   0.5000000   0.7216879   0.3494996  )

   Crystallographic axes

     site n.     atom                  positions (cryst. coord.)
         1        Zn     tau(   1) = (  0.0833333  0.1666666  0.0513044  )
         2        Zn     tau(   2) = (  0.5833333  0.1666666  0.0513044  )
         3        Zn     tau(   3) = (  0.0833333  0.1666666  0.2565219  )
         4        Zn     tau(   4) = (  0.5833333  0.1666666  0.2565219  )
         5        Zn     tau(   5) = (  0.0833333  0.4166666  0.0513044  )
         6        Zn     tau(   6) = (  0.5833333  0.4166666  0.0513044  )
         7        Zn     tau(   7) = (  0.0833333  0.4166666  0.2565219  )
         8        Zn     tau(   8) = (  0.5833333  0.4166666  0.2565219  )
         9        Zn     tau(   9) = (  0.0833333  0.6666666  0.0513044  )
        10        Zn     tau(  10) = (  0.5833333  0.6666666  0.0513044  )
        11        Zn     tau(  11) = (  0.0833333  0.6666666  0.2565219  )
        12        Zn     tau(  12) = (  0.5833333  0.6666666  0.2565219  )
        13        Zn     tau(  13) = (  0.0833333  0.9166667  0.0513044  )
        14        Zn     tau(  14) = (  0.5833334  0.9166667  0.0513044  )
        15        Zn     tau(  15) = (  0.0833333  0.9166667  0.2565219  )
        16        Zn     tau(  16) = (  0.5833334  0.9166667  0.2565219  )
        17        Zn     tau(  17) = (  0.3333333  0.1666666  0.0513044  )
        18        Zn     tau(  18) = (  0.8333334  0.1666666  0.0513044  )
        19        Zn     tau(  19) = (  0.3333333  0.1666666  0.2565219  )
        20        Zn     tau(  20) = (  0.8333334  0.1666666  0.2565219  )
        21        Zn     tau(  21) = (  0.3333333  0.4166666  0.0513044  )
        22        Zn     tau(  22) = (  0.8333333  0.4166666  0.0513044  )
        23        Zn     tau(  23) = (  0.3333333  0.4166666  0.2565219  )
        24        Zn     tau(  24) = (  0.8333333  0.4166666  0.2565219  )
        25        Zn     tau(  25) = (  0.3333333  0.6666666  0.0513044  )
        26        Zn     tau(  26) = (  0.8333333  0.6666666  0.0513044  )
        27        Zn     tau(  27) = (  0.3333333  0.6666666  0.2565219  )
        28        Zn     tau(  28) = (  0.8333333  0.6666666  0.2565219  )
        29        Zn     tau(  29) = (  0.3333334  0.9166667  0.0513044  )
        30        Zn     tau(  30) = (  0.8333334  0.9166667  0.0513044  )
        31        Zn     tau(  31) = (  0.3333334  0.9166667  0.2565219  )
        32        Zn     tau(  32) = (  0.8333334  0.9166667  0.2565219  )
        33        Zn     tau(  33) = (  0.1666667  0.0833334  0.1539131  )
        34        Zn     tau(  34) = (  0.6666667  0.0833334  0.1539131  )
        35        Zn     tau(  35) = (  0.1666667  0.3333334  0.1539131  )
        36        Zn     tau(  36) = (  0.6666667  0.3333334  0.1539131  )
        37        Zn     tau(  37) = (  0.1666667  0.5833334  0.1539131  )
        38        Zn     tau(  38) = (  0.6666667  0.5833334  0.1539131  )
        39        Zn     tau(  39) = (  0.1666667  0.8333334  0.1539131  )
        40        Zn     tau(  40) = (  0.6666667  0.8333334  0.1539131  )
        41        Zn     tau(  41) = (  0.4166667  0.0833334  0.1539131  )
        42        Zn     tau(  42) = (  0.9166667  0.0833334  0.1539131  )
        43        Zn     tau(  43) = (  0.4166667  0.3333334  0.1539131  )
        44        Zn     tau(  44) = (  0.9166667  0.3333334  0.1539131  )
        45        Zn     tau(  45) = (  0.4166667  0.5833334  0.1539131  )
        46        Zn     tau(  46) = (  0.9166667  0.5833334  0.1539131  )
        47        Zn     tau(  47) = (  0.4166667  0.8333334  0.1539131  )
        48        Zn     tau(  48) = (  0.9166667  0.8333334  0.1539131  )

     number of k points=    10  Marzari-Vanderbilt smearing, width (Ry)=  0.0500
                       cart. coord. in units 2pi/alat
        k(    1) = (   0.0000000   0.0000000   0.0000000), wk =   0.1250000
        k(    2) = (   0.0000000   0.2886751   0.0000000), wk =   0.2500000
        k(    3) = (   0.0000000  -0.5773503   0.0000000), wk =   0.1250000
        k(    4) = (   0.2500000   0.1443376   0.0000000), wk =   0.2500000
        k(    5) = (   0.2500000   0.4330127   0.0000000), wk =   0.2500000
        k(    6) = (   0.2500000  -0.4330127   0.0000000), wk =   0.2500000
        k(    7) = (   0.2500000  -0.1443376   0.0000000), wk =   0.2500000
        k(    8) = (  -0.5000000  -0.2886751   0.0000000), wk =   0.1250000
        k(    9) = (  -0.5000000   0.0000000   0.0000000), wk =   0.2500000
        k(   10) = (  -0.5000000  -0.8660254   0.0000000), wk =   0.1250000

                       cryst. coord.
        k(    1) = (   0.0000000   0.0000000   0.0000000), wk =   0.1250000
        k(    2) = (   0.0000000   0.2500000   0.0000000), wk =   0.2500000
        k(    3) = (   0.0000000  -0.5000000   0.0000000), wk =   0.1250000
        k(    4) = (   0.2500000   0.0000000   0.0000000), wk =   0.2500000
        k(    5) = (   0.2500000   0.2500000   0.0000000), wk =   0.2500000
        k(    6) = (   0.2500000  -0.5000000   0.0000000), wk =   0.2500000
        k(    7) = (   0.2500000  -0.2500000   0.0000000), wk =   0.2500000
        k(    8) = (  -0.5000000   0.0000000   0.0000000), wk =   0.1250000
        k(    9) = (  -0.5000000   0.2500000   0.0000000), wk =   0.2500000
        k(   10) = (  -0.5000000  -0.5000000   0.0000000), wk =   0.1250000

     Dense  grid:  1201061 G-vectors     FFT dimensions: ( 108, 108, 240)

     Smooth grid:   518755 G-vectors     FFT dimensions: (  80,  80, 192)

     Dynamical RAM for                 wfc:      17.26 MB

     Dynamical RAM for     wfc (w. buffer):     189.88 MB

     Dynamical RAM for           str. fact:       0.56 MB

     Dynamical RAM for           local pot:       0.00 MB

     Dynamical RAM for          nlocal pot:      25.89 MB

     Dynamical RAM for                qrad:       1.34 MB

     Dynamical RAM for          rho,v,vnew:       3.80 MB

     Dynamical RAM for               rhoin:       1.27 MB

     Dynamical RAM for            rho*nmix:       8.89 MB

     Dynamical RAM for           G-vectors:       2.20 MB

     Dynamical RAM for          h,s,v(r/c):       2.42 MB

     Dynamical RAM for          <psi|beta>:       7.59 MB

     Dynamical RAM for                 psi:      34.52 MB

     Dynamical RAM for                hpsi:      34.52 MB

     Dynamical RAM for                spsi:      34.52 MB

     Dynamical RAM for      wfcinit/wfcrot:      46.32 MB

     Dynamical RAM for           addusdens:     129.95 MB

     Estimated static dynamical RAM per process >     229.61 MB

     Estimated max dynamical RAM per process >     368.45 MB

     Estimated total dynamical RAM >      11.87 GB

     Initial potential from superposition of free atoms

     starting charge     959.9932, renormalised to     960.0000

     negative rho (up, down):  4.194E-03 0.000E+00
     Starting wfcs are  624 randomized atomic wfcs
[psid02:187283] 32 more processes have sent help message help-mpi-btl-openib.txt / ib port not selected
[psid02:187283] Set MCA parameter "orte_base_help_aggregate" to 0 to see all help / error messages
[psid02:187283] 31 more processes have sent help message help-mpi-btl-openib.txt / error in device init

     total cpu time spent up to now is      116.8 secs

     Self-consistent Calculation

     iteration #  1     ecut=    40.00 Ry     beta= 0.40
     Davidson diagonalization with overlap

---- Real-time Memory Report at c_bands before calling an iterative solver
           298 MiB given to the printing process from OS
             0 MiB allocation reported by mallinfo(arena+hblkhd)
         33804 MiB available memory on the node where the printing process lives
------------------
     ethr =  1.00E-02,  avg # of iterations =  9.4

     Threshold (ethr) on eigenvalues was too large:
     Diagonalizing with lowered threshold

     Davidson diagonalization with overlap

---- Real-time Memory Report at c_bands before calling an iterative solver
           391 MiB given to the printing process from OS
             0 MiB allocation reported by mallinfo(arena+hblkhd)
         32681 MiB available memory on the node where the printing process lives
------------------
     ethr =  1.61E-04,  avg # of iterations = 11.2

     negative rho (up, down):  4.977E-03 0.000E+00

     total cpu time spent up to now is     1579.1 secs

     total energy              =  -22153.84663492 Ry
     estimated scf accuracy    <       1.57572745 Ry

     iteration #  2     ecut=    40.00 Ry     beta= 0.40
     Davidson diagonalization with overlap

---- Real-time Memory Report at c_bands before calling an iterative solver
           401 MiB given to the printing process from OS
             0 MiB allocation reported by mallinfo(arena+hblkhd)
         32577 MiB available memory on the node where the printing process lives
------------------
     ethr =  1.64E-04,  avg # of iterations =  2.6

     negative rho (up, down):  5.515E-03 0.000E+00

     total cpu time spent up to now is     2357.3 secs

     total energy              =  -22154.22549207 Ry
     estimated scf accuracy    <       0.27942452 Ry

     iteration #  3     ecut=    40.00 Ry     beta= 0.40
     Davidson diagonalization with overlap

---- Real-time Memory Report at c_bands before calling an iterative solver
           403 MiB given to the printing process from OS
             0 MiB allocation reported by mallinfo(arena+hblkhd)
         32554 MiB available memory on the node where the printing process lives
------------------
     c_bands:  1 eigenvalues not converged
     ethr =  2.91E-05,  avg # of iterations =  8.5

     negative rho (up, down):  5.846E-03 0.000E+00

     total cpu time spent up to now is     3048.2 secs

     total energy              =  -22154.24203461 Ry
     estimated scf accuracy    <       0.04894363 Ry

     iteration #  4     ecut=    40.00 Ry     beta= 0.40
     Davidson diagonalization with overlap

---- Real-time Memory Report at c_bands before calling an iterative solver
           404 MiB given to the printing process from OS
             0 MiB allocation reported by mallinfo(arena+hblkhd)
         32540 MiB available memory on the node where the printing process lives
------------------
     ethr =  5.10E-06,  avg # of iterations = 10.1

     negative rho (up, down):  5.969E-03 0.000E+00

     total cpu time spent up to now is     3773.0 secs

     total energy              =  -22154.24128434 Ry
     estimated scf accuracy    <       0.03920434 Ry

     iteration #  5     ecut=    40.00 Ry     beta= 0.40
     Davidson diagonalization with overlap

---- Real-time Memory Report at c_bands before calling an iterative solver
           404 MiB given to the printing process from OS
             0 MiB allocation reported by mallinfo(arena+hblkhd)
         32523 MiB available memory on the node where the printing process lives
------------------
     ethr =  4.08E-06,  avg # of iterations =  3.6

     negative rho (up, down):  6.015E-03 0.000E+00

     total cpu time spent up to now is     4460.2 secs

     total energy              =  -22154.24529956 Ry
     estimated scf accuracy    <       0.00240878 Ry

     iteration #  6     ecut=    40.00 Ry     beta= 0.40
     Davidson diagonalization with overlap

---- Real-time Memory Report at c_bands before calling an iterative solver
           405 MiB given to the printing process from OS
             0 MiB allocation reported by mallinfo(arena+hblkhd)
         32504 MiB available memory on the node where the printing process lives
------------------
     ethr =  2.51E-07,  avg # of iterations =  2.0

     negative rho (up, down):  6.045E-03 0.000E+00

     total cpu time spent up to now is     5202.2 secs

     total energy              =  -22154.24571462 Ry
     estimated scf accuracy    <       0.00009094 Ry

     iteration #  7     ecut=    40.00 Ry     beta= 0.40
     Davidson diagonalization with overlap

---- Real-time Memory Report at c_bands before calling an iterative solver
           405 MiB given to the printing process from OS
             0 MiB allocation reported by mallinfo(arena+hblkhd)
         32485 MiB available memory on the node where the printing process lives
------------------
     ethr =  9.47E-09,  avg # of iterations =  2.2

     negative rho (up, down):  6.068E-03 0.000E+00

     total cpu time spent up to now is     5999.6 secs

     total energy              =  -22154.24571783 Ry
     estimated scf accuracy    <       0.00056855 Ry

     iteration #  8     ecut=    40.00 Ry     beta= 0.40
     Davidson diagonalization with overlap

---- Real-time Memory Report at c_bands before calling an iterative solver
           406 MiB given to the printing process from OS
             0 MiB allocation reported by mallinfo(arena+hblkhd)
         32469 MiB available memory on the node where the printing process lives
------------------
     ethr =  9.47E-09,  avg # of iterations =  2.0

     negative rho (up, down):  6.084E-03 0.000E+00

     total cpu time spent up to now is     6655.7 secs

     total energy              =  -22154.24571921 Ry
     estimated scf accuracy    <       0.00006781 Ry

     iteration #  9     ecut=    40.00 Ry     beta= 0.40
     Davidson diagonalization with overlap

---- Real-time Memory Report at c_bands before calling an iterative solver
           406 MiB given to the printing process from OS
             0 MiB allocation reported by mallinfo(arena+hblkhd)
         32452 MiB available memory on the node where the printing process lives
------------------
     ethr =  7.06E-09,  avg # of iterations =  2.6

     negative rho (up, down):  6.095E-03 0.000E+00

     total cpu time spent up to now is     7487.5 secs

     total energy              =  -22154.24573712 Ry
     estimated scf accuracy    <       0.00001922 Ry

     iteration # 10     ecut=    40.00 Ry     beta= 0.40
     Davidson diagonalization with overlap

---- Real-time Memory Report at c_bands before calling an iterative solver
           407 MiB given to the printing process from OS
             0 MiB allocation reported by mallinfo(arena+hblkhd)
         32435 MiB available memory on the node where the printing process lives
------------------
     ethr =  2.00E-09,  avg # of iterations =  2.0

     negative rho (up, down):  6.102E-03 0.000E+00

     total cpu time spent up to now is     8289.7 secs

     total energy              =  -22154.24574270 Ry
     estimated scf accuracy    <       0.00000149 Ry

     iteration # 11     ecut=    40.00 Ry     beta= 0.40
     Davidson diagonalization with overlap

---- Real-time Memory Report at c_bands before calling an iterative solver
           407 MiB given to the printing process from OS
             0 MiB allocation reported by mallinfo(arena+hblkhd)
         32429 MiB available memory on the node where the printing process lives
------------------
     ethr =  1.55E-10,  avg # of iterations =  1.0

     negative rho (up, down):  6.113E-03 0.000E+00

     total cpu time spent up to now is     8759.2 secs

     End of self-consistent calculation

          k = 0.0000 0.0000 0.0000 ( 64855 PWs)   bands (ev):

  -125.0753-125.0736-125.0736-125.0736-125.0735-125.0735-125.0735-125.0718
  -125.0718-125.0718-125.0718-125.0718-125.0718-125.0718-125.0718-125.0717
  -124.8681-124.8681-124.8664-124.8664-124.8664-124.8664-124.8664-124.8664
  -124.8664-124.8664-124.8664-124.8663-124.8663-124.8663-124.8647-124.8647
  -124.8647-124.8647-124.8647-124.8647-124.8647-124.8646-124.8646-124.8646
  -124.8646-124.8646-124.8646-124.8646-124.8646-124.8646-124.8646-124.8646
   -79.2408 -79.2408 -79.2408 -79.2341 -79.2341 -79.2341 -79.2341 -79.2341
   -79.2341 -79.2251 -79.2231 -79.2231 -79.2231 -79.2231 -79.2231 -79.2231
   -79.2228 -79.2228 -79.2228 -79.2227 -79.2227 -79.2227 -79.2211 -79.2211
   -79.2211 -79.2211 -79.2211 -79.2211 -79.2211 -79.2211 -79.2211 -79.2207
   -79.2207 -79.2207 -79.2207 -79.2207 -79.2207 -79.2141 -79.2141 -79.2141
   -79.2094 -79.2094 -79.2094 -79.2094 -79.2094 -79.2094 -79.2047 -79.2047
   -79.0309 -79.0309 -79.0309 -79.0308 -79.0308 -79.0308 -79.0252 -79.0250
   -79.0243 -79.0243 -79.0243 -79.0243 -79.0243 -79.0243 -79.0242 -79.0242
   -79.0242 -79.0242 -79.0242 -79.0242 -79.0233 -79.0232 -79.0232 -79.0232
   -79.0232 -79.0232 -79.0232 -79.0231 -79.0231 -79.0231 -79.0231 -79.0231
   -79.0214 -79.0214 -79.0213 -79.0213 -79.0213 -79.0213 -79.0213 -79.0213
   -79.0213 -79.0213 -79.0213 -79.0213 -79.0213 -79.0212 -79.0212 -79.0212
   -79.0212 -79.0212 -79.0129 -79.0129 -79.0129 -79.0129 -79.0129 -79.0129
   -79.0129 -79.0129 -79.0129 -79.0129 -79.0129 -79.0129 -79.0109 -79.0109
   -79.0109 -79.0109 -79.0109 -79.0109 -79.0109 -79.0109 -79.0109 -79.0109
   -79.0109 -79.0109 -79.0043 -79.0043 -79.0043 -79.0043 -79.0043 -79.0043
   -78.9996 -78.9996 -78.9996 -78.9996 -78.9996 -78.9996 -78.9996 -78.9996
   -78.9996 -78.9996 -78.9996 -78.9996 -78.9949 -78.9949 -78.9949 -78.9949
    -8.6313  -7.4043  -7.0969  -7.0769  -7.0769  -7.0769  -7.0769  -7.0769
    -7.0769  -6.9204  -6.9204  -6.9204  -6.7315  -6.7315  -6.7315  -6.6822
    -6.6822  -6.6822  -6.5949  -6.5949  -6.5949  -6.5949  -6.5949  -6.5949
    -6.5453  -6.5453  -6.5453  -6.5453  -6.5453  -6.5453  -6.5424  -6.5424
    -6.5424  -6.4872  -6.4872  -6.4872  -6.4872  -6.4872  -6.4872  -6.4381
    -6.4381  -6.4381  -6.4381  -6.4381  -6.4381  -6.3418  -6.3418  -6.3418
    -6.3418  -6.3418  -6.3418  -6.3396  -6.3396  -6.3396  -6.2804  -6.2804
    -6.2804  -6.2804  -6.2804  -6.2804  -6.2774  -6.2176  -6.2176  -6.2176
    -6.2175  -6.2175  -6.2175  -6.1768  -6.1768  -6.1768  -6.1768  -6.1768
    -6.1768  -6.1508  -6.1508  -6.1508  -6.1508  -6.1508  -6.1508  -6.1284
    -6.1284  -6.1284  -6.1284  -6.1284  -6.1284  -6.1280  -6.1280  -6.1027
    -6.1027  -6.1027  -6.1026  -6.1026  -6.1026  -6.1026  -6.1026  -6.1026
    -5.9995  -5.9995  -5.9995  -5.9995  -5.9995  -5.9995  -5.9206  -5.9206
    -5.9015  -5.9015  -5.8703  -5.8703  -5.8703  -5.8703  -5.8703  -5.8703
    -5.8688  -5.8688  -5.8688  -5.8688  -5.8688  -5.8688  -5.8398  -5.8398
    -5.8398  -5.7867  -5.7867  -5.7867  -5.7867  -5.7867  -5.7867  -5.7808
    -5.7808  -5.7808  -5.7808  -5.7808  -5.7808  -5.7807  -5.7807  -5.7807
    -5.7807  -5.7807  -5.7807  -5.7589  -5.7589  -5.7589  -5.7589  -5.7589
    -5.7589  -5.7528  -5.7528  -5.7527  -5.7527  -5.7527  -5.7527  -5.7339
    -5.7339  -5.7339  -5.7339  -5.7339  -5.7339  -5.7227  -5.7140  -5.7140
    -5.7140  -5.7140  -5.7140  -5.7140  -5.7036  -5.7036  -5.7036  -5.6184
    -5.6184  -5.5809  -5.5809  -5.5809  -5.5809  -5.5809  -5.5809  -5.5745
    -5.5745  -5.5745  -5.5745  -5.5745  -5.5745  -5.5501  -5.5501  -5.5501
    -5.5501  -5.5501  -5.5501  -5.5341  -5.5341  -5.5341  -5.5064  -5.5064
    -5.5064  -5.5064  -5.5064  -5.5064  -5.4978  -5.4978  -5.4978  -5.4978
    -5.4978  -5.4978  -5.4505  -5.4505  -5.4505  -5.4505  -5.4505  -5.4505
    -5.4397  -5.4397  -5.4397  -5.4387  -5.4387  -5.4387  -5.4021  -5.4021
    -5.4021  -5.3964  -5.3964  -5.3964  -5.3964  -5.3964  -5.3964  -5.3881
    -5.3881  -5.3672  -5.3672  -5.3244  -5.3244  -5.3244  -5.3244  -5.3244
    -5.3244  -5.2956  -5.2956  -5.2955  -5.2955  -5.2955  -5.2955  -5.2870
    -5.2870  -5.2870  -5.0754  -5.0754  -5.0754  -5.0752  -5.0752  -5.0752
    -4.4028  -4.4028  -4.4028  -4.4028  -4.4028  -4.4028  -3.4506  -2.1115
    -2.1114  -2.1114  -2.1114  -2.1114  -2.1114  -2.0210  -2.0209  -2.0209
    -2.0209  -2.0209  -2.0209  -0.8506  -0.8506  -0.8506  -0.7136  -0.6450
    -0.6450  -0.6450  -0.6450  -0.6450  -0.6450  -0.0919  -0.0919  -0.0919
     0.2404   0.2404   0.2404   1.5355   1.5355   1.5355   1.5355   1.5355
     1.5355   1.5783   1.5783   1.5783   1.5783   1.5783   1.5783   2.3033
     2.3033   2.3033   3.1070   3.2988   3.2988   3.2988   4.1419   4.1419
     4.1419   4.8835   4.8835   4.8835   4.8835   4.8835   4.8835   5.0782
     5.2679   5.4239   5.4239   5.4239   5.4239   5.4239   5.4239   5.4257
     5.4257   5.4257   5.4257   5.4257   5.4257   5.5965   5.5965   5.5965
     5.5965   5.5965   5.5965   6.2023   6.4001   6.5607   6.5607   6.5608
     6.8766   6.8766   6.8766   6.8766   6.8766   6.8766   7.0045   7.0045
     7.0045   7.0045   7.0045   7.0045   7.1039   7.1039   7.1039   7.1039
     7.1039   7.1039   7.1851   7.1851   7.1851   7.1851   7.1851   7.1851
     8.0411   8.0411   8.0411   8.0411   8.0411   8.0411   8.1460   8.1460
     8.1460   8.1460   8.1460   8.1460   8.1875   8.1875   8.1875   8.1875
     8.1875   8.1875   8.2090   8.3673   8.3714   8.3714   8.3714   9.2742

     occupation numbers 
     1.0000   1.0000   1.0000   1.0000   1.0000   1.0000   1.0000   1.0000
     1.0000   1.0000   1.0000   1.0000   1.0000   1.0000   1.0000   1.0000
     1.0000   1.0000   1.0000   1.0000   1.0000   1.0000   1.0000   1.0000
     1.0000   1.0000   1.0000   1.0000   1.0000   1.0000   1.0000   1.0000
     1.0000   1.0000   1.0000   1.0000   1.0000   1.0000   1.0000   1.0000
     1.0000   1.0000   1.0000   1.0000   1.0000   1.0000   1.0000   1.0000
     1.0000   1.0000   1.0000   1.0000   1.0000   1.0000   1.0000   1.0000
     1.0000   1.0000   1.0000   1.0000   1.0000   1.0000   1.0000   1.0000
     1.0000   1.0000   1.0000   1.0000   1.0000   1.0000   1.0000   1.0000
     1.0000   1.0000   1.0000   1.0000   1.0000   1.0000   1.0000   1.0000
     1.0000   1.0000   1.0000   1.0000   1.0000   1.0000   1.0000   1.0000
     1.0000   1.0000   1.0000   1.0000   1.0000   1.0000   1.0000   1.0000
     1.0000   1.0000   1.0000   1.0000   1.0000   1.0000   1.0000   1.0000
     1.0000   1.0000   1.0000   1.0000   1.0000   1.0000   1.0000   1.0000
     1.0000   1.0000   1.0000   1.0000   1.0000   1.0000   1.0000   1.0000
     1.0000   1.0000   1.0000   1.0000   1.0000   1.0000   1.0000   1.0000
     1.0000   1.0000   1.0000   1.0000   1.0000   1.0000   1.0000   1.0000
     1.0000   1.0000   1.0000   1.0000   1.0000   1.0000   1.0000   1.0000
     1.0000   1.0000   1.0000   1.0000   1.0000   1.0000   1.0000   1.0000
     1.0000   1.0000   1.0000   1.0000   1.0000   1.0000   1.0000   1.0000
     1.0000   1.0000   1.0000   1.0000   1.0000   1.0000   1.0000   1.0000
     1.0000   1.0000   1.0000   1.0000   1.0000   1.0000   1.0000   1.0000
     1.0000   1.0000   1.0000   1.0000   1.0000   1.0000   1.0000   1.0000
     1.0000   1.0000   1.0000   1.0000   1.0000   1.0000   1.0000   1.0000
     1.0000   1.0000   1.0000   1.0000   1.0000   1.0000   1.0000   1.0000
     1.0000   1.0000   1.0000   1.0000   1.0000   1.0000   1.0000   1.0000
     1.0000   1.0000   1.0000   1.0000   1.0000   1.0000   1.0000   1.0000
     1.0000   1.0000   1.0000   1.0000   1.0000   1.0000   1.0000   1.0000
     1.0000   1.0000   1.0000   1.0000   1.0000   1.0000   1.0000   1.0000
     1.0000   1.0000   1.0000   1.0000   1.0000   1.0000   1.0000   1.0000
     1.0000   1.0000   1.0000   1.0000   1.0000   1.0000   1.0000   1.0000
     1.0000   1.0000   1.0000   1.0000   1.0000   1.0000   1.0000   1.0000
     1.0000   1.0000   1.0000   1.0000   1.0000   1.0000   1.0000   1.0000
     1.0000   1.0000   1.0000   1.0000   1.0000   1.0000   1.0000   1.0000
     1.0000   1.0000   1.0000   1.0000   1.0000   1.0000   1.0000   1.0000
     1.0000   1.0000   1.0000   1.0000   1.0000   1.0000   1.0000   1.0000
     1.0000   1.0000   1.0000   1.0000   1.0000   1.0000   1.0000   1.0000
     1.0000   1.0000   1.0000   1.0000   1.0000   1.0000   1.0000   1.0000
     1.0000   1.0000   1.0000   1.0000   1.0000   1.0000   1.0000   1.0000
     1.0000   1.0000   1.0000   1.0000   1.0000   1.0000   1.0000   1.0000
     1.0000   1.0000   1.0000   1.0000   1.0000   1.0000   1.0000   1.0000
     1.0000   1.0000   1.0000   1.0000   1.0000   1.0000   1.0000   1.0000
     1.0000   1.0000   1.0000   1.0000   1.0000   1.0000   1.0000   1.0000
     1.0000   1.0000   1.0000   1.0000   1.0000   1.0000   1.0000   1.0000
     1.0000   1.0000   1.0000   1.0000   1.0000   1.0000   1.0000   1.0000
     1.0000   1.0000   1.0000   1.0000   1.0000   1.0000   1.0000   1.0000
     1.0000   1.0000   1.0000   1.0000   1.0000   1.0000   1.0000   1.0000
     1.0000   1.0000   1.0000   1.0000   1.0000   1.0000   1.0000   1.0000
     1.0000   1.0000   1.0000   1.0000   1.0000   1.0000   1.0000   1.0000
     1.0000   1.0000   1.0000   1.0000   1.0000   1.0000   1.0000   1.0000
     1.0000   1.0000   1.0000   1.0000   1.0000   1.0000   1.0000   1.0000
     1.0000   1.0000   1.0000   1.0000   1.0000   1.0000   1.0000   1.0000
     1.0000   1.0000   1.0000   1.0000   1.0000   1.0000   1.0000   1.0000
     1.0000   1.0000   1.0000   1.0000   1.0000   1.0000   1.0000   1.0000
     1.0000   1.0000   1.0000   1.0000   1.0000   1.0000   1.0000   1.0000
     1.0000   1.0000   1.0000   1.0000   1.0000   1.0000   1.0000   1.0000
     1.0000   1.0000   1.0000   1.0000   1.0000   1.0000   1.0000   1.0000
     1.0000   1.0000   1.0000   1.0002   1.0002   1.0002   1.0006   1.0009
     1.0009   1.0009   1.0009   1.0009   1.0009   1.0195   1.0195   1.0195
     1.0588   1.0588   1.0588   0.3387   0.3387   0.3387   0.3387   0.3387
     0.3387   0.3001   0.3001   0.3000   0.3000   0.3000   0.3000   0.0128
     0.0128   0.0128   0.0000   0.0000   0.0000   0.0000   0.0000   0.0000
     0.0000   0.0000   0.0000   0.0000   0.0000   0.0000   0.0000   0.0000
     0.0000   0.0000   0.0000   0.0000   0.0000   0.0000   0.0000   0.0000
     0.0000   0.0000   0.0000   0.0000   0.0000   0.0000   0.0000   0.0000
     0.0000   0.0000   0.0000   0.0000   0.0000   0.0000   0.0000   0.0000
     0.0000   0.0000   0.0000   0.0000   0.0000   0.0000   0.0000   0.0000
     0.0000   0.0000   0.0000   0.0000   0.0000   0.0000   0.0000   0.0000
     0.0000   0.0000   0.0000   0.0000   0.0000   0.0000   0.0000   0.0000
     0.0000   0.0000   0.0000   0.0000   0.0000   0.0000   0.0000   0.0000
     0.0000   0.0000   0.0000   0.0000   0.0000   0.0000   0.0000   0.0000
     0.0000   0.0000   0.0000   0.0000   0.0000   0.0000   0.0000   0.0000

          k = 0.0000 0.2887 0.0000 ( 64808 PWs)   bands (ev):

  -125.0751-125.0742-125.0738-125.0738-125.0731-125.0731-125.0729-125.0722
  -125.0722-125.0719-125.0718-125.0718-125.0718-125.0718-125.0715-125.0715
  -124.8680-124.8679-124.8671-124.8670-124.8667-124.8667-124.8666-124.8666
  -124.8660-124.8660-124.8659-124.8659-124.8657-124.8657-124.8651-124.8651
  -124.8650-124.8650-124.8648-124.8647-124.8647-124.8647-124.8647-124.8646
  -124.8646-124.8646-124.8646-124.8646-124.8644-124.8644-124.8643-124.8643
   -79.2400 -79.2400 -79.2394 -79.2354 -79.2354 -79.2345 -79.2345 -79.2326
   -79.2326 -79.2297 -79.2265 -79.2265 -79.2249 -79.2239 -79.2238 -79.2238
   -79.2234 -79.2234 -79.2226 -79.2226 -79.2223 -79.2216 -79.2216 -79.2213
   -79.2211 -79.2211 -79.2211 -79.2211 -79.2208 -79.2208 -79.2197 -79.2197
   -79.2194 -79.2194 -79.2170 -79.2170 -79.2158 -79.2149 -79.2149 -79.2138
   -79.2112 -79.2109 -79.2109 -79.2089 -79.2089 -79.2076 -79.2061 -79.2050
   -79.0301 -79.0301 -79.0301 -79.0301 -79.0295 -79.0295 -79.0256 -79.0256
   -79.0255 -79.0255 -79.0250 -79.0248 -79.0247 -79.0247 -79.0246 -79.0246
   -79.0240 -79.0238 -79.0235 -79.0235 -79.0234 -79.0234 -79.0228 -79.0228
   -79.0228 -79.0228 -79.0227 -79.0227 -79.0227 -79.0227 -79.0225 -79.0224
   -79.0218 -79.0218 -79.0217 -79.0217 -79.0215 -79.0214 -79.0213 -79.0213
   -79.0213 -79.0213 -79.0213 -79.0213 -79.0212 -79.0212 -79.0210 -79.0210
   -79.0209 -79.0209 -79.0198 -79.0198 -79.0166 -79.0166 -79.0166 -79.0166
   -79.0140 -79.0140 -79.0139 -79.0139 -79.0099 -79.0099 -79.0098 -79.0098
   -79.0096 -79.0096 -79.0096 -79.0096 -79.0072 -79.0072 -79.0072 -79.0072
   -79.0060 -79.0060 -79.0051 -79.0051 -79.0050 -79.0050 -79.0040 -79.0039
   -79.0014 -79.0014 -79.0011 -79.0011 -79.0011 -79.0011 -78.9992 -78.9992
   -78.9991 -78.9991 -78.9978 -78.9978 -78.9963 -78.9962 -78.9953 -78.9952
    -8.5125  -7.6292  -7.3045  -7.2572  -7.2572  -7.0344  -6.9042  -6.8780
    -6.8780  -6.8560  -6.8535  -6.8535  -6.7128  -6.6981  -6.6981  -6.6953
    -6.6810  -6.6670  -6.6426  -6.6426  -6.5954  -6.5865  -6.5833  -6.5833
    -6.5736  -6.5736  -6.5543  -6.5543  -6.5337  -6.5337  -6.5266  -6.5266
    -6.5229  -6.5185  -6.5185  -6.5149  -6.5149  -6.5083  -6.5083  -6.4948
    -6.4948  -6.4689  -6.4689  -6.4291  -6.4291  -6.4013  -6.4013  -6.3873
    -6.3873  -6.3822  -6.3283  -6.3234  -6.3234  -6.3225  -6.3225  -6.3214
    -6.3214  -6.2731  -6.2731  -6.2664  -6.2584  -6.2357  -6.2357  -6.2294
    -6.2294  -6.2287  -6.2287  -6.2280  -6.2126  -6.2126  -6.2099  -6.2099
    -6.2008  -6.2008  -6.1912  -6.1912  -6.1857  -6.1839  -6.1839  -6.1618
    -6.1437  -6.1286  -6.1286  -6.1187  -6.1187  -6.1071  -6.1071  -6.0988
    -6.0958  -6.0958  -6.0833  -6.0699  -6.0699  -6.0554  -6.0554  -6.0547
    -6.0547  -5.9641  -5.9641  -5.9633  -5.9633  -5.9480  -5.9455  -5.9422
    -5.9411  -5.9389  -5.9389  -5.9301  -5.9301  -5.9167  -5.9166  -5.9166
    -5.8982  -5.8982  -5.8934  -5.8914  -5.8872  -5.8802  -5.8801  -5.8724
    -5.8537  -5.8537  -5.8440  -5.8440  -5.8328  -5.8183  -5.8016  -5.8016
    -5.7993  -5.7993  -5.7920  -5.7920  -5.7837  -5.7826  -5.7826  -5.7776
    -5.7776  -5.7612  -5.7611  -5.7522  -5.7522  -5.7467  -5.7360  -5.7360
    -5.7206  -5.7192  -5.7192  -5.7090  -5.7090  -5.7016  -5.7016  -5.7013
    -5.7013  -5.6972  -5.6972  -5.6842  -5.6731  -5.6731  -5.6608  -5.6494
    -5.6447  -5.6447  -5.6375  -5.6375  -5.6247  -5.6227  -5.6227  -5.6206
    -5.6206  -5.6175  -5.6158  -5.6109  -5.6109  -5.5853  -5.5683  -5.5658
    -5.5658  -5.5618  -5.5618  -5.5532  -5.5532  -5.5501  -5.5501  -5.5494
    -5.5494  -5.5476  -5.5308  -5.5308  -5.5305  -5.5267  -5.5267  -5.5169
    -5.5169  -5.4954  -5.4954  -5.4683  -5.4652  -5.4637  -5.4637  -5.4588
    -5.4588  -5.4570  -5.4570  -5.4444  -5.4444  -5.4359  -5.4306  -5.4306
    -5.4281  -5.4243  -5.4191  -5.4189  -5.4072  -5.4072  -5.4047  -5.4047
    -5.3931  -5.3914  -5.3914  -5.3856  -5.3731  -5.3731  -5.3693  -5.3644
    -5.3509  -5.3509  -5.3451  -5.3364  -5.3257  -5.3257  -5.3196  -5.3159
    -5.3159  -5.3061  -5.3061  -5.2982  -5.2982  -5.2877  -5.2877  -5.1488
    -5.1488  -5.1333  -5.1333  -5.1279  -5.1279  -5.1095  -5.1088  -4.9529
    -4.9404  -4.6437  -4.6437  -3.8861  -3.8861  -3.4849  -3.4011  -3.4011
    -3.3657  -2.6744  -2.3026  -2.3026  -2.2298  -2.0290  -2.0290  -1.9762
    -1.9762  -1.5156  -1.5156  -1.3001  -1.3001  -1.1177  -0.7997  -0.5812
    -0.5812  -0.5658  -0.5658  -0.5536   0.0191   0.0191   0.2682   0.2682
     0.5531   0.5531   0.6313   0.8727   0.8933   0.8933   1.1812   1.1812
     1.5553   1.5553   2.2238   2.2238   2.6418   2.6925   2.6925   2.7183
     2.7770   2.7770   2.9476   2.9476   3.2190   3.5408   3.6853   3.6853
     3.9004   3.9004   4.1119   4.1822   4.1822   4.5562   4.5562   4.8018
     4.8018   4.8378   4.8378   5.1431   5.1431   5.1549   5.1549   5.1911
     5.3829   5.4263   5.4263   5.5665   5.6428   5.7912   5.7912   5.8067
     6.0855   6.0855   6.0929   6.3018   6.3112   6.3112   6.3183   6.5126
     6.5426   6.5426   6.5891   6.5891   6.7016   6.7606   6.7606   7.0102
     7.0102   7.0847   7.0847   7.1719   7.1719   7.2431   7.3059   7.3059
     7.4107   7.4270   7.4270   7.4419   7.4419   7.6519   7.6519   7.6699
     7.6699   7.7025   7.7025   7.7439   7.8579   7.8579   7.9374   7.9374
     8.0147   8.0147   8.1361   8.3079   8.3245   8.4790   8.6389   8.6390
     8.6952   8.7092   8.7093   8.8077   8.8077   8.8250   8.8250   8.8323

     occupation numbers 
     1.0000   1.0000   1.0000   1.0000   1.0000   1.0000   1.0000   1.0000
     1.0000   1.0000   1.0000   1.0000   1.0000   1.0000   1.0000   1.0000
     1.0000   1.0000   1.0000   1.0000   1.0000   1.0000   1.0000   1.0000
     1.0000   1.0000   1.0000   1.0000   1.0000   1.0000   1.0000   1.0000
     1.0000   1.0000   1.0000   1.0000   1.0000   1.0000   1.0000   1.0000
     1.0000   1.0000   1.0000   1.0000   1.0000   1.0000   1.0000   1.0000
     1.0000   1.0000   1.0000   1.0000   1.0000   1.0000   1.0000   1.0000
     1.0000   1.0000   1.0000   1.0000   1.0000   1.0000   1.0000   1.0000
     1.0000   1.0000   1.0000   1.0000   1.0000   1.0000   1.0000   1.0000
     1.0000   1.0000   1.0000   1.0000   1.0000   1.0000   1.0000   1.0000
     1.0000   1.0000   1.0000   1.0000   1.0000   1.0000   1.0000   1.0000
     1.0000   1.0000   1.0000   1.0000   1.0000   1.0000   1.0000   1.0000
     1.0000   1.0000   1.0000   1.0000   1.0000   1.0000   1.0000   1.0000
     1.0000   1.0000   1.0000   1.0000   1.0000   1.0000   1.0000   1.0000
     1.0000   1.0000   1.0000   1.0000   1.0000   1.0000   1.0000   1.0000
     1.0000   1.0000   1.0000   1.0000   1.0000   1.0000   1.0000   1.0000
     1.0000   1.0000   1.0000   1.0000   1.0000   1.0000   1.0000   1.0000
     1.0000   1.0000   1.0000   1.0000   1.0000   1.0000   1.0000   1.0000
     1.0000   1.0000   1.0000   1.0000   1.0000   1.0000   1.0000   1.0000
     1.0000   1.0000   1.0000   1.0000   1.0000   1.0000   1.0000   1.0000
     1.0000   1.0000   1.0000   1.0000   1.0000   1.0000   1.0000   1.0000
     1.0000   1.0000   1.0000   1.0000   1.0000   1.0000   1.0000   1.0000
     1.0000   1.0000   1.0000   1.0000   1.0000   1.0000   1.0000   1.0000
     1.0000   1.0000   1.0000   1.0000   1.0000   1.0000   1.0000   1.0000
     1.0000   1.0000   1.0000   1.0000   1.0000   1.0000   1.0000   1.0000
     1.0000   1.0000   1.0000   1.0000   1.0000   1.0000   1.0000   1.0000
     1.0000   1.0000   1.0000   1.0000   1.0000   1.0000   1.0000   1.0000
     1.0000   1.0000   1.0000   1.0000   1.0000   1.0000   1.0000   1.0000
     1.0000   1.0000   1.0000   1.0000   1.0000   1.0000   1.0000   1.0000
     1.0000   1.0000   1.0000   1.0000   1.0000   1.0000   1.0000   1.0000
     1.0000   1.0000   1.0000   1.0000   1.0000   1.0000   1.0000   1.0000
     1.0000   1.0000   1.0000   1.0000   1.0000   1.0000   1.0000   1.0000
     1.0000   1.0000   1.0000   1.0000   1.0000   1.0000   1.0000   1.0000
     1.0000   1.0000   1.0000   1.0000   1.0000   1.0000   1.0000   1.0000
     1.0000   1.0000   1.0000   1.0000   1.0000   1.0000   1.0000   1.0000
     1.0000   1.0000   1.0000   1.0000   1.0000   1.0000   1.0000   1.0000
     1.0000   1.0000   1.0000   1.0000   1.0000   1.0000   1.0000   1.0000
     1.0000   1.0000   1.0000   1.0000   1.0000   1.0000   1.0000   1.0000
     1.0000   1.0000   1.0000   1.0000   1.0000   1.0000   1.0000   1.0000
     1.0000   1.0000   1.0000   1.0000   1.0000   1.0000   1.0000   1.0000
     1.0000   1.0000   1.0000   1.0000   1.0000   1.0000   1.0000   1.0000
     1.0000   1.0000   1.0000   1.0000   1.0000   1.0000   1.0000   1.0000
     1.0000   1.0000   1.0000   1.0000   1.0000   1.0000   1.0000   1.0000
     1.0000   1.0000   1.0000   1.0000   1.0000   1.0000   1.0000   1.0000
     1.0000   1.0000   1.0000   1.0000   1.0000   1.0000   1.0000   1.0000
     1.0000   1.0000   1.0000   1.0000   1.0000   1.0000   1.0000   1.0000
     1.0000   1.0000   1.0000   1.0000   1.0000   1.0000   1.0000   1.0000
     1.0000   1.0000   1.0000   1.0000   1.0000   1.0000   1.0000   1.0000
     1.0000   1.0000   1.0000   1.0000   1.0000   1.0000   1.0000   1.0000
     1.0000   1.0000   1.0000   1.0000   1.0000   1.0000   1.0000   1.0000
     1.0000   1.0000   1.0000   1.0000   1.0000   1.0000   1.0000   1.0000
     1.0000   1.0000   1.0000   1.0000   1.0000   1.0000   1.0000   1.0000
     1.0000   1.0000   1.0000   1.0000   1.0000   1.0000   1.0000   1.0000
     1.0000   1.0000   1.0000   1.0000   1.0000   1.0000   1.0000   1.0000
     1.0000   1.0000   1.0000   1.0000   1.0000   1.0000   1.0000   1.0000
     1.0000   1.0000   1.0000   1.0000   1.0000   1.0000   1.0000   1.0000
     1.0000   1.0000   1.0000   1.0000   1.0000   1.0000   1.0000   1.0000
     1.0000   1.0000   1.0000   1.0000   1.0000   1.0000   1.0003   1.0014
     1.0014   1.0015   1.0015   1.0016   1.0302   1.0302   1.0626   1.0626
     1.0823   1.0823   1.0743   0.9839   0.9710   0.9710   0.7147   0.7147
     0.3204   0.3204   0.0201   0.0201   0.0014   0.0010   0.0010   0.0008
     0.0005   0.0005   0.0001   0.0001   0.0000   0.0000   0.0000   0.0000
     0.0000   0.0000   0.0000   0.0000   0.0000   0.0000   0.0000   0.0000
     0.0000   0.0000   0.0000   0.0000   0.0000   0.0000   0.0000   0.0000
     0.0000   0.0000   0.0000   0.0000   0.0000   0.0000   0.0000   0.0000
     0.0000   0.0000   0.0000   0.0000   0.0000   0.0000   0.0000   0.0000
     0.0000   0.0000   0.0000   0.0000   0.0000   0.0000   0.0000   0.0000
     0.0000   0.0000   0.0000   0.0000   0.0000   0.0000   0.0000   0.0000
     0.0000   0.0000   0.0000   0.0000   0.0000   0.0000   0.0000   0.0000
     0.0000   0.0000   0.0000   0.0000   0.0000   0.0000   0.0000   0.0000
     0.0000   0.0000   0.0000   0.0000   0.0000   0.0000   0.0000   0.0000
     0.0000   0.0000   0.0000   0.0000   0.0000   0.0000   0.0000   0.0000

          k = 0.0000-0.5774 0.0000 ( 64842 PWs)   bands (ev):

  -125.0748-125.0748-125.0739-125.0739-125.0727-125.0727-125.0727-125.0727
  -125.0723-125.0723-125.0718-125.0718-125.0718-125.0718-125.0714-125.0714
  -124.8676-124.8676-124.8676-124.8676-124.8668-124.8668-124.8667-124.8667
  -124.8655-124.8655-124.8655-124.8655-124.8655-124.8655-124.8655-124.8655
  -124.8652-124.8652-124.8651-124.8651-124.8647-124.8647-124.8647-124.8646
  -124.8646-124.8646-124.8646-124.8646-124.8643-124.8643-124.8642-124.8642
   -79.2380 -79.2380 -79.2380 -79.2379 -79.2355 -79.2355 -79.2345 -79.2345
   -79.2299 -79.2299 -79.2299 -79.2299 -79.2250 -79.2250 -79.2245 -79.2245
   -79.2235 -79.2235 -79.2221 -79.2221 -79.2221 -79.2221 -79.2217 -79.2217
   -79.2211 -79.2211 -79.2211 -79.2211 -79.2207 -79.2207 -79.2184 -79.2184
   -79.2169 -79.2169 -79.2169 -79.2169 -79.2136 -79.2136 -79.2136 -79.2136
   -79.2127 -79.2127 -79.2100 -79.2099 -79.2090 -79.2090 -79.2061 -79.2060
   -79.0281 -79.0281 -79.0281 -79.0281 -79.0281 -79.0281 -79.0280 -79.0280
   -79.0257 -79.0256 -79.0256 -79.0256 -79.0246 -79.0246 -79.0246 -79.0246
   -79.0246 -79.0246 -79.0244 -79.0244 -79.0236 -79.0236 -79.0235 -79.0235
   -79.0223 -79.0223 -79.0223 -79.0223 -79.0222 -79.0222 -79.0222 -79.0222
   -79.0219 -79.0219 -79.0218 -79.0218 -79.0213 -79.0213 -79.0213 -79.0213
   -79.0213 -79.0213 -79.0212 -79.0212 -79.0209 -79.0209 -79.0208 -79.0208
   -79.0201 -79.0201 -79.0201 -79.0201 -79.0201 -79.0201 -79.0201 -79.0201
   -79.0152 -79.0152 -79.0152 -79.0152 -79.0086 -79.0086 -79.0086 -79.0086
   -79.0071 -79.0071 -79.0071 -79.0071 -79.0071 -79.0071 -79.0070 -79.0070
   -79.0038 -79.0038 -79.0038 -79.0038 -79.0037 -79.0037 -79.0037 -79.0037
   -79.0030 -79.0029 -79.0029 -79.0029 -79.0002 -79.0002 -79.0001 -79.0001
   -78.9992 -78.9992 -78.9991 -78.9991 -78.9963 -78.9963 -78.9962 -78.9962
    -8.1647  -8.1647  -7.3260  -7.3260  -7.0301  -7.0301  -6.8694  -6.8694
    -6.8658  -6.8657  -6.7556  -6.7556  -6.7555  -6.7555  -6.6598  -6.6598
    -6.6535  -6.6535  -6.6535  -6.6535  -6.6294  -6.6293  -6.6143  -6.6143
    -6.6143  -6.6143  -6.5599  -6.5599  -6.5337  -6.5337  -6.5337  -6.5337
    -6.5116  -6.5116  -6.4954  -6.4954  -6.4954  -6.4954  -6.4697  -6.4697
    -6.4697  -6.4697  -6.4668  -6.4668  -6.4578  -6.4578  -6.4320  -6.4320
    -6.4266  -6.4266  -6.4266  -6.4266  -6.3170  -6.3170  -6.3074  -6.3074
    -6.2981  -6.2981  -6.2976  -6.2976  -6.2976  -6.2976  -6.2767  -6.2767
    -6.2767  -6.2766  -6.2431  -6.2431  -6.2266  -6.2266  -6.2266  -6.2266
    -6.2134  -6.2134  -6.2076  -6.2076  -6.1760  -6.1760  -6.1472  -6.1472
    -6.1161  -6.1161  -6.1083  -6.1083  -6.0884  -6.0884  -6.0884  -6.0884
    -6.0677  -6.0677  -6.0677  -6.0677  -6.0462  -6.0462  -6.0365  -6.0365
    -6.0324  -6.0324  -6.0274  -6.0274  -6.0149  -6.0149  -5.9958  -5.9958
    -5.9958  -5.9958  -5.9520  -5.9520  -5.9496  -5.9496  -5.9206  -5.9206
    -5.9104  -5.9104  -5.8789  -5.8789  -5.8789  -5.8789  -5.8195  -5.8195
    -5.8156  -5.8156  -5.8138  -5.8138  -5.8138  -5.8138  -5.8129  -5.8128
    -5.7920  -5.7920  -5.7887  -5.7887  -5.7820  -5.7820  -5.7820  -5.7820
    -5.7740  -5.7740  -5.7718  -5.7718  -5.7718  -5.7718  -5.7616  -5.7616
    -5.7597  -5.7597  -5.7597  -5.7597  -5.6795  -5.6795  -5.6782  -5.6782
    -5.6731  -5.6731  -5.6508  -5.6508  -5.6508  -5.6508  -5.6382  -5.6382
    -5.6282  -5.6282  -5.6096  -5.6096  -5.6096  -5.6096  -5.5994  -5.5994
    -5.5758  -5.5757  -5.5491  -5.5491  -5.5346  -5.5346  -5.5346  -5.5346
    -5.5311  -5.5311  -5.5311  -5.5311  -5.5278  -5.5278  -5.5258  -5.5258
    -5.5044  -5.5044  -5.5043  -5.5043  -5.4934  -5.4934  -5.4932  -5.4931
    -5.4920  -5.4920  -5.4831  -5.4831  -5.4693  -5.4693  -5.4693  -5.4693
    -5.4560  -5.4560  -5.4559  -5.4559  -5.4446  -5.4446  -5.4281  -5.4281
    -5.4206  -5.4206  -5.4206  -5.4206  -5.4176  -5.4176  -5.4175  -5.4175
    -5.4101  -5.4101  -5.4073  -5.4073  -5.4059  -5.4058  -5.3757  -5.3757
    -5.3678  -5.3678  -5.3678  -5.3678  -5.3287  -5.3287  -5.3287  -5.3287
    -5.2583  -5.2583  -5.2583  -5.2583  -5.2412  -5.2412  -5.2388  -5.2388
    -5.2388  -5.2388  -5.2053  -5.2053  -5.2026  -5.2026  -4.7076  -4.7076
    -4.4248  -4.4248  -4.4248  -4.4248  -3.7355  -3.7355  -3.1112  -3.1112
    -3.0664  -3.0664  -3.0664  -3.0664  -2.3922  -2.3922  -2.2445  -2.2445
    -1.7658  -1.7657  -1.7657  -1.7657  -0.7560  -0.7560  -0.7560  -0.7560
    -0.3302  -0.3302  -0.3302  -0.3302  -0.0920  -0.0920   0.0123   0.0123
     1.0126   1.0126   1.0471   1.0471   1.3302   1.3302   1.3661   1.3661
     1.3661   1.3661   2.2186   2.2186   2.8947   2.8947   2.8947   2.8947
     3.0991   3.0991   3.0991   3.0991   3.3171   3.3171   3.5546   3.5546
     3.8610   3.8610   3.8611   3.8611   3.9951   3.9951   4.2496   4.2496
     4.4470   4.4470   4.7441   4.7441   4.8521   4.8521   5.4806   5.4806
     5.5296   5.5296   5.7277   5.7277   5.7967   5.7967   5.9278   5.9278
     5.9278   5.9278   5.9833   5.9833   5.9833   5.9833   6.1540   6.1540
     6.1540   6.1540   6.4310   6.4310   6.5545   6.5545   6.6461   6.6461
     6.6660   6.6660   6.8498   6.8498   6.8674   6.8674   7.0052   7.0052
     7.0052   7.0052   7.5886   7.5886   7.7473   7.7473   8.0627   8.0627
     8.0918   8.0918   8.0918   8.0918   8.2780   8.2780   8.4794   8.4794
     8.4794   8.4794   8.6246   8.6246   8.6246   8.6246   8.6703   8.6704
     8.7365   8.7365   8.8132   8.8132   8.9986   8.9986   8.9986   8.9986

     occupation numbers 
     1.0000   1.0000   1.0000   1.0000   1.0000   1.0000   1.0000   1.0000
     1.0000   1.0000   1.0000   1.0000   1.0000   1.0000   1.0000   1.0000
     1.0000   1.0000   1.0000   1.0000   1.0000   1.0000   1.0000   1.0000
     1.0000   1.0000   1.0000   1.0000   1.0000   1.0000   1.0000   1.0000
     1.0000   1.0000   1.0000   1.0000   1.0000   1.0000   1.0000   1.0000
     1.0000   1.0000   1.0000   1.0000   1.0000   1.0000   1.0000   1.0000
     1.0000   1.0000   1.0000   1.0000   1.0000   1.0000   1.0000   1.0000
     1.0000   1.0000   1.0000   1.0000   1.0000   1.0000   1.0000   1.0000
     1.0000   1.0000   1.0000   1.0000   1.0000   1.0000   1.0000   1.0000
     1.0000   1.0000   1.0000   1.0000   1.0000   1.0000   1.0000   1.0000
     1.0000   1.0000   1.0000   1.0000   1.0000   1.0000   1.0000   1.0000
     1.0000   1.0000   1.0000   1.0000   1.0000   1.0000   1.0000   1.0000
     1.0000   1.0000   1.0000   1.0000   1.0000   1.0000   1.0000   1.0000
     1.0000   1.0000   1.0000   1.0000   1.0000   1.0000   1.0000   1.0000
     1.0000   1.0000   1.0000   1.0000   1.0000   1.0000   1.0000   1.0000
     1.0000   1.0000   1.0000   1.0000   1.0000   1.0000   1.0000   1.0000
     1.0000   1.0000   1.0000   1.0000   1.0000   1.0000   1.0000   1.0000
     1.0000   1.0000   1.0000   1.0000   1.0000   1.0000   1.0000   1.0000
     1.0000   1.0000   1.0000   1.0000   1.0000   1.0000   1.0000   1.0000
     1.0000   1.0000   1.0000   1.0000   1.0000   1.0000   1.0000   1.0000
     1.0000   1.0000   1.0000   1.0000   1.0000   1.0000   1.0000   1.0000
     1.0000   1.0000   1.0000   1.0000   1.0000   1.0000   1.0000   1.0000
     1.0000   1.0000   1.0000   1.0000   1.0000   1.0000   1.0000   1.0000
     1.0000   1.0000   1.0000   1.0000   1.0000   1.0000   1.0000   1.0000
     1.0000   1.0000   1.0000   1.0000   1.0000   1.0000   1.0000   1.0000
     1.0000   1.0000   1.0000   1.0000   1.0000   1.0000   1.0000   1.0000
     1.0000   1.0000   1.0000   1.0000   1.0000   1.0000   1.0000   1.0000
     1.0000   1.0000   1.0000   1.0000   1.0000   1.0000   1.0000   1.0000
     1.0000   1.0000   1.0000   1.0000   1.0000   1.0000   1.0000   1.0000
     1.0000   1.0000   1.0000   1.0000   1.0000   1.0000   1.0000   1.0000
     1.0000   1.0000   1.0000   1.0000   1.0000   1.0000   1.0000   1.0000
     1.0000   1.0000   1.0000   1.0000   1.0000   1.0000   1.0000   1.0000
     1.0000   1.0000   1.0000   1.0000   1.0000   1.0000   1.0000   1.0000
     1.0000   1.0000   1.0000   1.0000   1.0000   1.0000   1.0000   1.0000
     1.0000   1.0000   1.0000   1.0000   1.0000   1.0000   1.0000   1.0000
     1.0000   1.0000   1.0000   1.0000   1.0000   1.0000   1.0000   1.0000
     1.0000   1.0000   1.0000   1.0000   1.0000   1.0000   1.0000   1.0000
     1.0000   1.0000   1.0000   1.0000   1.0000   1.0000   1.0000   1.0000
     1.0000   1.0000   1.0000   1.0000   1.0000   1.0000   1.0000   1.0000
     1.0000   1.0000   1.0000   1.0000   1.0000   1.0000   1.0000   1.0000
     1.0000   1.0000   1.0000   1.0000   1.0000   1.0000   1.0000   1.0000
     1.0000   1.0000   1.0000   1.0000   1.0000   1.0000   1.0000   1.0000
     1.0000   1.0000   1.0000   1.0000   1.0000   1.0000   1.0000   1.0000
     1.0000   1.0000   1.0000   1.0000   1.0000   1.0000   1.0000   1.0000
     1.0000   1.0000   1.0000   1.0000   1.0000   1.0000   1.0000   1.0000
     1.0000   1.0000   1.0000   1.0000   1.0000   1.0000   1.0000   1.0000
     1.0000   1.0000   1.0000   1.0000   1.0000   1.0000   1.0000   1.0000
     1.0000   1.0000   1.0000   1.0000   1.0000   1.0000   1.0000   1.0000
     1.0000   1.0000   1.0000   1.0000   1.0000   1.0000   1.0000   1.0000
     1.0000   1.0000   1.0000   1.0000   1.0000   1.0000   1.0000   1.0000
     1.0000   1.0000   1.0000   1.0000   1.0000   1.0000   1.0000   1.0000
     1.0000   1.0000   1.0000   1.0000   1.0000   1.0000   1.0000   1.0000
     1.0000   1.0000   1.0000   1.0000   1.0000   1.0000   1.0000   1.0000
     1.0000   1.0000   1.0000   1.0000   1.0000   1.0000   1.0000   1.0000
     1.0000   1.0000   1.0000   1.0000   1.0000   1.0000   1.0000   1.0000
     1.0000   1.0000   1.0000   1.0000   1.0000   1.0000   1.0000   1.0000
     1.0000   1.0000   1.0000   1.0000   1.0000   1.0000   1.0000   1.0000
     1.0000   1.0000   1.0000   1.0000   1.0004   1.0004   1.0004   1.0004
     1.0062   1.0062   1.0062   1.0062   1.0195   1.0195   1.0295   1.0295
     0.8803   0.8803   0.8495   0.8495   0.5510   0.5510   0.5116   0.5116
     0.5116   0.5116   0.0207   0.0207   0.0002   0.0002   0.0002   0.0002
     0.0000   0.0000   0.0000   0.0000   0.0000   0.0000   0.0000   0.0000
     0.0000   0.0000   0.0000   0.0000   0.0000   0.0000   0.0000   0.0000
     0.0000   0.0000   0.0000   0.0000   0.0000   0.0000   0.0000   0.0000
     0.0000   0.0000   0.0000   0.0000   0.0000   0.0000   0.0000   0.0000
     0.0000   0.0000   0.0000   0.0000   0.0000   0.0000   0.0000   0.0000
     0.0000   0.0000   0.0000   0.0000   0.0000   0.0000   0.0000   0.0000
     0.0000   0.0000   0.0000   0.0000   0.0000   0.0000   0.0000   0.0000
     0.0000   0.0000   0.0000   0.0000   0.0000   0.0000   0.0000   0.0000
     0.0000   0.0000   0.0000   0.0000   0.0000   0.0000   0.0000   0.0000
     0.0000   0.0000   0.0000   0.0000   0.0000   0.0000   0.0000   0.0000
     0.0000   0.0000   0.0000   0.0000   0.0000   0.0000   0.0000   0.0000

          k = 0.2500 0.1443 0.0000 ( 64808 PWs)   bands (ev):

  -125.0751-125.0742-125.0738-125.0738-125.0731-125.0731-125.0729-125.0722
  -125.0722-125.0719-125.0718-125.0718-125.0718-125.0718-125.0715-125.0715
  -124.8680-124.8679-124.8671-124.8670-124.8667-124.8667-124.8666-124.8666
  -124.8660-124.8660-124.8659-124.8659-124.8657-124.8657-124.8651-124.8651
  -124.8650-124.8650-124.8648-124.8647-124.8647-124.8647-124.8647-124.8647
  -124.8646-124.8646-124.8646-124.8646-124.8644-124.8644-124.8643-124.8643
   -79.2400 -79.2400 -79.2394 -79.2354 -79.2354 -79.2345 -79.2345 -79.2326
   -79.2326 -79.2297 -79.2265 -79.2265 -79.2249 -79.2239 -79.2238 -79.2238
   -79.2234 -79.2234 -79.2226 -79.2226 -79.2223 -79.2216 -79.2216 -79.2213
   -79.2211 -79.2211 -79.2211 -79.2211 -79.2208 -79.2208 -79.2197 -79.2197
   -79.2194 -79.2194 -79.2170 -79.2170 -79.2158 -79.2149 -79.2149 -79.2138
   -79.2112 -79.2109 -79.2109 -79.2089 -79.2089 -79.2076 -79.2061 -79.2050
   -79.0301 -79.0301 -79.0301 -79.0301 -79.0295 -79.0295 -79.0256 -79.0256
   -79.0255 -79.0255 -79.0250 -79.0248 -79.0247 -79.0247 -79.0246 -79.0246
   -79.0240 -79.0238 -79.0235 -79.0235 -79.0234 -79.0234 -79.0228 -79.0228
   -79.0228 -79.0228 -79.0227 -79.0227 -79.0227 -79.0227 -79.0225 -79.0224
   -79.0218 -79.0218 -79.0217 -79.0217 -79.0215 -79.0214 -79.0213 -79.0213
   -79.0213 -79.0213 -79.0213 -79.0213 -79.0212 -79.0212 -79.0210 -79.0210
   -79.0209 -79.0209 -79.0198 -79.0198 -79.0166 -79.0166 -79.0166 -79.0166
   -79.0140 -79.0140 -79.0139 -79.0139 -79.0099 -79.0099 -79.0098 -79.0098
   -79.0096 -79.0096 -79.0096 -79.0096 -79.0072 -79.0072 -79.0072 -79.0072
   -79.0060 -79.0060 -79.0051 -79.0051 -79.0050 -79.0050 -79.0040 -79.0039
   -79.0014 -79.0014 -79.0011 -79.0011 -79.0011 -79.0011 -78.9992 -78.9992
   -78.9991 -78.9991 -78.9978 -78.9978 -78.9963 -78.9962 -78.9953 -78.9952
    -8.5125  -7.6292  -7.3045  -7.2572  -7.2572  -7.0344  -6.9042  -6.8780
    -6.8780  -6.8560  -6.8535  -6.8535  -6.7128  -6.6981  -6.6981  -6.6953
    -6.6810  -6.6670  -6.6426  -6.6426  -6.5954  -6.5865  -6.5833  -6.5833
    -6.5736  -6.5736  -6.5543  -6.5543  -6.5337  -6.5337  -6.5266  -6.5266
    -6.5229  -6.5185  -6.5185  -6.5149  -6.5149  -6.5083  -6.5083  -6.4948
    -6.4948  -6.4689  -6.4689  -6.4291  -6.4291  -6.4013  -6.4013  -6.3873
    -6.3873  -6.3822  -6.3283  -6.3234  -6.3234  -6.3225  -6.3225  -6.3214
    -6.3214  -6.2731  -6.2731  -6.2664  -6.2584  -6.2357  -6.2357  -6.2294
    -6.2294  -6.2287  -6.2287  -6.2280  -6.2126  -6.2126  -6.2099  -6.2099
    -6.2008  -6.2008  -6.1912  -6.1912  -6.1857  -6.1839  -6.1839  -6.1618
    -6.1437  -6.1286  -6.1286  -6.1187  -6.1187  -6.1071  -6.1071  -6.0988
    -6.0958  -6.0958  -6.0833  -6.0699  -6.0699  -6.0554  -6.0554  -6.0547
    -6.0547  -5.9641  -5.9641  -5.9633  -5.9633  -5.9480  -5.9455  -5.9422
    -5.9411  -5.9389  -5.9389  -5.9301  -5.9301  -5.9167  -5.9166  -5.9166
    -5.8982  -5.8982  -5.8934  -5.8914  -5.8872  -5.8802  -5.8801  -5.8724
    -5.8537  -5.8537  -5.8440  -5.8440  -5.8328  -5.8183  -5.8016  -5.8016
    -5.7993  -5.7993  -5.7920  -5.7920  -5.7837  -5.7826  -5.7826  -5.7776
    -5.7776  -5.7612  -5.7611  -5.7522  -5.7522  -5.7467  -5.7360  -5.7360
    -5.7206  -5.7192  -5.7192  -5.7090  -5.7090  -5.7016  -5.7016  -5.7013
    -5.7013  -5.6972  -5.6972  -5.6842  -5.6731  -5.6731  -5.6608  -5.6494
    -5.6447  -5.6447  -5.6375  -5.6375  -5.6247  -5.6227  -5.6227  -5.6206
    -5.6206  -5.6175  -5.6158  -5.6109  -5.6109  -5.5853  -5.5683  -5.5658
    -5.5658  -5.5618  -5.5618  -5.5532  -5.5532  -5.5501  -5.5501  -5.5494
    -5.5494  -5.5476  -5.5308  -5.5308  -5.5305  -5.5267  -5.5267  -5.5169
    -5.5169  -5.4954  -5.4954  -5.4683  -5.4652  -5.4637  -5.4637  -5.4588
    -5.4588  -5.4570  -5.4570  -5.4444  -5.4444  -5.4359  -5.4306  -5.4306
    -5.4281  -5.4243  -5.4191  -5.4189  -5.4072  -5.4072  -5.4047  -5.4047
    -5.3931  -5.3914  -5.3914  -5.3856  -5.3731  -5.3731  -5.3693  -5.3644
    -5.3509  -5.3509  -5.3451  -5.3364  -5.3257  -5.3257  -5.3196  -5.3159
    -5.3159  -5.3061  -5.3061  -5.2982  -5.2982  -5.2877  -5.2877  -5.1488
    -5.1488  -5.1333  -5.1333  -5.1279  -5.1279  -5.1095  -5.1088  -4.9529
    -4.9404  -4.6437  -4.6437  -3.8861  -3.8861  -3.4849  -3.4011  -3.4011
    -3.3657  -2.6744  -2.3026  -2.3026  -2.2298  -2.0290  -2.0290  -1.9762
    -1.9762  -1.5156  -1.5156  -1.3001  -1.3001  -1.1177  -0.7997  -0.5812
    -0.5812  -0.5658  -0.5658  -0.5536   0.0191   0.0191   0.2682   0.2682
     0.5531   0.5531   0.6313   0.8727   0.8933   0.8933   1.1812   1.1812
     1.5553   1.5553   2.2238   2.2238   2.6418   2.6925   2.6925   2.7183
     2.7770   2.7770   2.9476   2.9476   3.2190   3.5408   3.6853   3.6853
     3.9004   3.9004   4.1119   4.1822   4.1822   4.5562   4.5562   4.8018
     4.8018   4.8378   4.8378   5.1431   5.1431   5.1549   5.1549   5.1911
     5.3829   5.4263   5.4263   5.5665   5.6428   5.7912   5.7912   5.8067
     6.0855   6.0855   6.0929   6.3018   6.3112   6.3112   6.3183   6.5126
     6.5426   6.5426   6.5891   6.5891   6.7016   6.7606   6.7606   7.0102
     7.0102   7.0847   7.0847   7.1719   7.1719   7.2431   7.3059   7.3059
     7.4107   7.4270   7.4270   7.4419   7.4419   7.6519   7.6519   7.6699
     7.6699   7.7025   7.7025   7.7439   7.8579   7.8579   7.9374   7.9374
     8.0147   8.0147   8.1361   8.3079   8.3245   8.4790   8.6389   8.6390
     8.6952   8.7092   8.8077   8.8077   8.8249   8.8250   8.8319   8.8323

     occupation numbers 
     1.0000   1.0000   1.0000   1.0000   1.0000   1.0000   1.0000   1.0000
     1.0000   1.0000   1.0000   1.0000   1.0000   1.0000   1.0000   1.0000
     1.0000   1.0000   1.0000   1.0000   1.0000   1.0000   1.0000   1.0000
     1.0000   1.0000   1.0000   1.0000   1.0000   1.0000   1.0000   1.0000
     1.0000   1.0000   1.0000   1.0000   1.0000   1.0000   1.0000   1.0000
     1.0000   1.0000   1.0000   1.0000   1.0000   1.0000   1.0000   1.0000
     1.0000   1.0000   1.0000   1.0000   1.0000   1.0000   1.0000   1.0000
     1.0000   1.0000   1.0000   1.0000   1.0000   1.0000   1.0000   1.0000
     1.0000   1.0000   1.0000   1.0000   1.0000   1.0000   1.0000   1.0000
     1.0000   1.0000   1.0000   1.0000   1.0000   1.0000   1.0000   1.0000
     1.0000   1.0000   1.0000   1.0000   1.0000   1.0000   1.0000   1.0000
     1.0000   1.0000   1.0000   1.0000   1.0000   1.0000   1.0000   1.0000
     1.0000   1.0000   1.0000   1.0000   1.0000   1.0000   1.0000   1.0000
     1.0000   1.0000   1.0000   1.0000   1.0000   1.0000   1.0000   1.0000
     1.0000   1.0000   1.0000   1.0000   1.0000   1.0000   1.0000   1.0000
     1.0000   1.0000   1.0000   1.0000   1.0000   1.0000   1.0000   1.0000
     1.0000   1.0000   1.0000   1.0000   1.0000   1.0000   1.0000   1.0000
     1.0000   1.0000   1.0000   1.0000   1.0000   1.0000   1.0000   1.0000
     1.0000   1.0000   1.0000   1.0000   1.0000   1.0000   1.0000   1.0000
     1.0000   1.0000   1.0000   1.0000   1.0000   1.0000   1.0000   1.0000
     1.0000   1.0000   1.0000   1.0000   1.0000   1.0000   1.0000   1.0000
     1.0000   1.0000   1.0000   1.0000   1.0000   1.0000   1.0000   1.0000
     1.0000   1.0000   1.0000   1.0000   1.0000   1.0000   1.0000   1.0000
     1.0000   1.0000   1.0000   1.0000   1.0000   1.0000   1.0000   1.0000
     1.0000   1.0000   1.0000   1.0000   1.0000   1.0000   1.0000   1.0000
     1.0000   1.0000   1.0000   1.0000   1.0000   1.0000   1.0000   1.0000
     1.0000   1.0000   1.0000   1.0000   1.0000   1.0000   1.0000   1.0000
     1.0000   1.0000   1.0000   1.0000   1.0000   1.0000   1.0000   1.0000
     1.0000   1.0000   1.0000   1.0000   1.0000   1.0000   1.0000   1.0000
     1.0000   1.0000   1.0000   1.0000   1.0000   1.0000   1.0000   1.0000
     1.0000   1.0000   1.0000   1.0000   1.0000   1.0000   1.0000   1.0000
     1.0000   1.0000   1.0000   1.0000   1.0000   1.0000   1.0000   1.0000
     1.0000   1.0000   1.0000   1.0000   1.0000   1.0000   1.0000   1.0000
     1.0000   1.0000   1.0000   1.0000   1.0000   1.0000   1.0000   1.0000
     1.0000   1.0000   1.0000   1.0000   1.0000   1.0000   1.0000   1.0000
     1.0000   1.0000   1.0000   1.0000   1.0000   1.0000   1.0000   1.0000
     1.0000   1.0000   1.0000   1.0000   1.0000   1.0000   1.0000   1.0000
     1.0000   1.0000   1.0000   1.0000   1.0000   1.0000   1.0000   1.0000
     1.0000   1.0000   1.0000   1.0000   1.0000   1.0000   1.0000   1.0000
     1.0000   1.0000   1.0000   1.0000   1.0000   1.0000   1.0000   1.0000
     1.0000   1.0000   1.0000   1.0000   1.0000   1.0000   1.0000   1.0000
     1.0000   1.0000   1.0000   1.0000   1.0000   1.0000   1.0000   1.0000
     1.0000   1.0000   1.0000   1.0000   1.0000   1.0000   1.0000   1.0000
     1.0000   1.0000   1.0000   1.0000   1.0000   1.0000   1.0000   1.0000
     1.0000   1.0000   1.0000   1.0000   1.0000   1.0000   1.0000   1.0000
     1.0000   1.0000   1.0000   1.0000   1.0000   1.0000   1.0000   1.0000
     1.0000   1.0000   1.0000   1.0000   1.0000   1.0000   1.0000   1.0000
     1.0000   1.0000   1.0000   1.0000   1.0000   1.0000   1.0000   1.0000
     1.0000   1.0000   1.0000   1.0000   1.0000   1.0000   1.0000   1.0000
     1.0000   1.0000   1.0000   1.0000   1.0000   1.0000   1.0000   1.0000
     1.0000   1.0000   1.0000   1.0000   1.0000   1.0000   1.0000   1.0000
     1.0000   1.0000   1.0000   1.0000   1.0000   1.0000   1.0000   1.0000
     1.0000   1.0000   1.0000   1.0000   1.0000   1.0000   1.0000   1.0000
     1.0000   1.0000   1.0000   1.0000   1.0000   1.0000   1.0000   1.0000
     1.0000   1.0000   1.0000   1.0000   1.0000   1.0000   1.0000   1.0000
     1.0000   1.0000   1.0000   1.0000   1.0000   1.0000   1.0000   1.0000
     1.0000   1.0000   1.0000   1.0000   1.0000   1.0000   1.0000   1.0000
     1.0000   1.0000   1.0000   1.0000   1.0000   1.0000   1.0003   1.0014
     1.0014   1.0015   1.0015   1.0016   1.0302   1.0302   1.0626   1.0626
     1.0823   1.0823   1.0743   0.9839   0.9710   0.9710   0.7147   0.7147
     0.3204   0.3204   0.0201   0.0201   0.0014   0.0010   0.0010   0.0008
     0.0005   0.0005   0.0001   0.0001   0.0000   0.0000   0.0000   0.0000
     0.0000   0.0000   0.0000   0.0000   0.0000   0.0000   0.0000   0.0000
     0.0000   0.0000   0.0000   0.0000   0.0000   0.0000   0.0000   0.0000
     0.0000   0.0000   0.0000   0.0000   0.0000   0.0000   0.0000   0.0000
     0.0000   0.0000   0.0000   0.0000   0.0000   0.0000   0.0000   0.0000
     0.0000   0.0000   0.0000   0.0000   0.0000   0.0000   0.0000   0.0000
     0.0000   0.0000   0.0000   0.0000   0.0000   0.0000   0.0000   0.0000
     0.0000   0.0000   0.0000   0.0000   0.0000   0.0000   0.0000   0.0000
     0.0000   0.0000   0.0000   0.0000   0.0000   0.0000   0.0000   0.0000
     0.0000   0.0000   0.0000   0.0000   0.0000   0.0000   0.0000   0.0000
     0.0000   0.0000   0.0000   0.0000   0.0000   0.0000   0.0000   0.0000

          k = 0.2500 0.4330 0.0000 ( 64876 PWs)   bands (ev):

  -125.0749-125.0744-125.0744-125.0733-125.0733-125.0727-125.0725-125.0725
  -125.0722-125.0721-125.0721-125.0720-125.0717-125.0716-125.0716-125.0714
  -124.8678-124.8677-124.8673-124.8673-124.8672-124.8672-124.8662-124.8662
  -124.8661-124.8661-124.8656-124.8655-124.8654-124.8654-124.8653-124.8653
  -124.8650-124.8650-124.8650-124.8649-124.8649-124.8649-124.8649-124.8649
  -124.8645-124.8645-124.8645-124.8644-124.8644-124.8644-124.8642-124.8642
   -79.2391 -79.2374 -79.2374 -79.2369 -79.2369 -79.2348 -79.2347 -79.2327
   -79.2327 -79.2322 -79.2287 -79.2279 -79.2246 -79.2242 -79.2242 -79.2241
   -79.2241 -79.2228 -79.2228 -79.2222 -79.2220 -79.2219 -79.2215 -79.2215
   -79.2214 -79.2214 -79.2210 -79.2209 -79.2208 -79.2207 -79.2207 -79.2206
   -79.2174 -79.2156 -79.2155 -79.2141 -79.2141 -79.2141 -79.2134 -79.2134
   -79.2127 -79.2127 -79.2112 -79.2112 -79.2087 -79.2071 -79.2071 -79.2058
   -79.0292 -79.0292 -79.0276 -79.0276 -79.0275 -79.0275 -79.0271 -79.0270
   -79.0270 -79.0270 -79.0249 -79.0249 -79.0249 -79.0248 -79.0247 -79.0246
   -79.0242 -79.0242 -79.0241 -79.0241 -79.0230 -79.0230 -79.0229 -79.0229
   -79.0229 -79.0228 -79.0228 -79.0228 -79.0224 -79.0224 -79.0223 -79.0222
   -79.0221 -79.0221 -79.0220 -79.0220 -79.0217 -79.0217 -79.0216 -79.0216
   -79.0216 -79.0216 -79.0215 -79.0215 -79.0212 -79.0211 -79.0211 -79.0211
   -79.0210 -79.0210 -79.0209 -79.0208 -79.0189 -79.0188 -79.0181 -79.0180
   -79.0144 -79.0144 -79.0144 -79.0144 -79.0109 -79.0109 -79.0109 -79.0109
   -79.0076 -79.0075 -79.0058 -79.0057 -79.0057 -79.0057 -79.0043 -79.0043
   -79.0043 -79.0043 -79.0043 -79.0043 -79.0037 -79.0036 -79.0036 -79.0036
   -79.0029 -79.0029 -79.0029 -79.0029 -79.0015 -79.0015 -79.0014 -79.0014
   -78.9989 -78.9988 -78.9974 -78.9974 -78.9973 -78.9973 -78.9960 -78.9959
    -8.2788  -7.8322  -7.8321  -7.1160  -6.9196  -6.8459  -6.8459  -6.8122
    -6.8122  -6.8033  -6.8032  -6.7974  -6.7974  -6.7746  -6.7335  -6.7335
    -6.7044  -6.7044  -6.6616  -6.6616  -6.6305  -6.6138  -6.6138  -6.6103
    -6.6103  -6.5946  -6.5946  -6.5732  -6.5732  -6.5674  -6.5674  -6.5485
    -6.5422  -6.5421  -6.4973  -6.4973  -6.4776  -6.4776  -6.4773  -6.4685
    -6.4685  -6.4487  -6.4448  -6.4235  -6.4203  -6.4203  -6.4176  -6.4176
    -6.4087  -6.4087  -6.4003  -6.3745  -6.3745  -6.3188  -6.3062  -6.3062
    -6.3035  -6.3035  -6.2981  -6.2981  -6.2976  -6.2845  -6.2743  -6.2695
    -6.2695  -6.2629  -6.2549  -6.2549  -6.2499  -6.2499  -6.2490  -6.2270
    -6.2270  -6.2072  -6.2072  -6.1838  -6.1838  -6.1716  -6.1532  -6.1495
    -6.1462  -6.1462  -6.1247  -6.1247  -6.1153  -6.1153  -6.1004  -6.0935
    -6.0614  -6.0614  -6.0524  -6.0524  -6.0475  -6.0388  -6.0243  -6.0242
    -6.0031  -5.9970  -5.9970  -5.9935  -5.9841  -5.9841  -5.9768  -5.9768
    -5.9747  -5.9747  -5.9611  -5.9533  -5.9459  -5.9212  -5.9212  -5.9135
    -5.9134  -5.9102  -5.9048  -5.8968  -5.8968  -5.8931  -5.8903  -5.8835
    -5.8835  -5.8594  -5.8594  -5.8523  -5.8523  -5.8406  -5.8405  -5.8376
    -5.8365  -5.8363  -5.8363  -5.8123  -5.8043  -5.8043  -5.7972  -5.7768
    -5.7690  -5.7690  -5.7624  -5.7585  -5.7585  -5.7560  -5.7198  -5.7198
    -5.6979  -5.6979  -5.6966  -5.6966  -5.6627  -5.6593  -5.6593  -5.6581
    -5.6581  -5.6525  -5.6396  -5.6363  -5.6363  -5.6294  -5.6294  -5.5985
    -5.5985  -5.5976  -5.5964  -5.5964  -5.5879  -5.5878  -5.5857  -5.5857
    -5.5832  -5.5831  -5.5796  -5.5796  -5.5715  -5.5715  -5.5542  -5.5542
    -5.5537  -5.5537  -5.5496  -5.5460  -5.5408  -5.5408  -5.5204  -5.5204
    -5.5183  -5.5146  -5.5146  -5.5130  -5.5084  -5.4891  -5.4891  -5.4873
    -5.4836  -5.4836  -5.4706  -5.4662  -5.4662  -5.4649  -5.4649  -5.4626
    -5.4626  -5.4606  -5.4606  -5.4484  -5.4484  -5.4457  -5.4457  -5.4388
    -5.4388  -5.4367  -5.4226  -5.4226  -5.4148  -5.4143  -5.4143  -5.4034
    -5.4001  -5.3916  -5.3916  -5.3801  -5.3801  -5.3796  -5.3743  -5.3729
    -5.3695  -5.3695  -5.3398  -5.3330  -5.3330  -5.3125  -5.3125  -5.2878
    -5.2800  -5.2800  -5.2777  -5.2777  -5.2762  -5.2762  -5.2608  -5.2328
    -5.1911  -5.1911  -5.1870  -5.1870  -5.1489  -5.1489  -5.0705  -5.0705
    -4.4626  -4.2399  -4.2399  -4.0489  -4.0489  -3.2525  -3.2525  -3.1962
    -3.1498  -2.8849  -2.8849  -2.8504  -2.8504  -2.7853  -2.7853  -1.8008
    -1.8008  -1.7023  -1.7023  -1.4181  -1.4181  -0.8457  -0.4766  -0.4765
    -0.4204  -0.4204  -0.3314  -0.2431   0.2870   0.3481   0.3481   0.4226
     0.4226   0.6984   0.6984   0.7844   0.9653   0.9653   1.0781   1.4081
     1.4082   1.9733   1.9733   2.5257   2.5464   2.8120   2.9829   3.0826
     3.3179   3.3179   3.3586   3.3586   3.4428   3.4437   3.4437   3.5730
     3.5730   3.6652   3.8897   3.8897   4.3715   4.3715   4.3868   4.4251
     4.4375   4.4375   4.5581   4.5581   4.8732   4.9316   5.1372   5.1372
     5.2203   5.2203   5.4168   5.4439   5.4439   5.4440   5.4440   5.6128
     5.8679   5.8679   6.0723   6.0723   6.0907   6.1193   6.1193   6.5418
     6.5418   6.5502   6.6442   6.6462   6.6462   6.7375   6.9504   6.9943
     6.9943   7.0007   7.0127   7.0127   7.0417   7.0417   7.1546   7.1546
     7.1868   7.1868   7.2150   7.2150   7.2226   7.2226   7.4480   7.4480
     8.0952   8.2135   8.2135   8.3547   8.3598   8.3859   8.3859   8.5243
     8.5243   8.5294   8.5552   8.5815   8.5815   8.6266   8.6266   8.6535
     8.6725   8.6725   8.7020   8.7349   8.8080   8.8080   9.0151   9.1457

     occupation numbers 
     1.0000   1.0000   1.0000   1.0000   1.0000   1.0000   1.0000   1.0000
     1.0000   1.0000   1.0000   1.0000   1.0000   1.0000   1.0000   1.0000
     1.0000   1.0000   1.0000   1.0000   1.0000   1.0000   1.0000   1.0000
     1.0000   1.0000   1.0000   1.0000   1.0000   1.0000   1.0000   1.0000
     1.0000   1.0000   1.0000   1.0000   1.0000   1.0000   1.0000   1.0000
     1.0000   1.0000   1.0000   1.0000   1.0000   1.0000   1.0000   1.0000
     1.0000   1.0000   1.0000   1.0000   1.0000   1.0000   1.0000   1.0000
     1.0000   1.0000   1.0000   1.0000   1.0000   1.0000   1.0000   1.0000
     1.0000   1.0000   1.0000   1.0000   1.0000   1.0000   1.0000   1.0000
     1.0000   1.0000   1.0000   1.0000   1.0000   1.0000   1.0000   1.0000
     1.0000   1.0000   1.0000   1.0000   1.0000   1.0000   1.0000   1.0000
     1.0000   1.0000   1.0000   1.0000   1.0000   1.0000   1.0000   1.0000
     1.0000   1.0000   1.0000   1.0000   1.0000   1.0000   1.0000   1.0000
     1.0000   1.0000   1.0000   1.0000   1.0000   1.0000   1.0000   1.0000
     1.0000   1.0000   1.0000   1.0000   1.0000   1.0000   1.0000   1.0000
     1.0000   1.0000   1.0000   1.0000   1.0000   1.0000   1.0000   1.0000
     1.0000   1.0000   1.0000   1.0000   1.0000   1.0000   1.0000   1.0000
     1.0000   1.0000   1.0000   1.0000   1.0000   1.0000   1.0000   1.0000
     1.0000   1.0000   1.0000   1.0000   1.0000   1.0000   1.0000   1.0000
     1.0000   1.0000   1.0000   1.0000   1.0000   1.0000   1.0000   1.0000
     1.0000   1.0000   1.0000   1.0000   1.0000   1.0000   1.0000   1.0000
     1.0000   1.0000   1.0000   1.0000   1.0000   1.0000   1.0000   1.0000
     1.0000   1.0000   1.0000   1.0000   1.0000   1.0000   1.0000   1.0000
     1.0000   1.0000   1.0000   1.0000   1.0000   1.0000   1.0000   1.0000
     1.0000   1.0000   1.0000   1.0000   1.0000   1.0000   1.0000   1.0000
     1.0000   1.0000   1.0000   1.0000   1.0000   1.0000   1.0000   1.0000
     1.0000   1.0000   1.0000   1.0000   1.0000   1.0000   1.0000   1.0000
     1.0000   1.0000   1.0000   1.0000   1.0000   1.0000   1.0000   1.0000
     1.0000   1.0000   1.0000   1.0000   1.0000   1.0000   1.0000   1.0000
     1.0000   1.0000   1.0000   1.0000   1.0000   1.0000   1.0000   1.0000
     1.0000   1.0000   1.0000   1.0000   1.0000   1.0000   1.0000   1.0000
     1.0000   1.0000   1.0000   1.0000   1.0000   1.0000   1.0000   1.0000
     1.0000   1.0000   1.0000   1.0000   1.0000   1.0000   1.0000   1.0000
     1.0000   1.0000   1.0000   1.0000   1.0000   1.0000   1.0000   1.0000
     1.0000   1.0000   1.0000   1.0000   1.0000   1.0000   1.0000   1.0000
     1.0000   1.0000   1.0000   1.0000   1.0000   1.0000   1.0000   1.0000
     1.0000   1.0000   1.0000   1.0000   1.0000   1.0000   1.0000   1.0000
     1.0000   1.0000   1.0000   1.0000   1.0000   1.0000   1.0000   1.0000
     1.0000   1.0000   1.0000   1.0000   1.0000   1.0000   1.0000   1.0000
     1.0000   1.0000   1.0000   1.0000   1.0000   1.0000   1.0000   1.0000
     1.0000   1.0000   1.0000   1.0000   1.0000   1.0000   1.0000   1.0000
     1.0000   1.0000   1.0000   1.0000   1.0000   1.0000   1.0000   1.0000
     1.0000   1.0000   1.0000   1.0000   1.0000   1.0000   1.0000   1.0000
     1.0000   1.0000   1.0000   1.0000   1.0000   1.0000   1.0000   1.0000
     1.0000   1.0000   1.0000   1.0000   1.0000   1.0000   1.0000   1.0000
     1.0000   1.0000   1.0000   1.0000   1.0000   1.0000   1.0000   1.0000
     1.0000   1.0000   1.0000   1.0000   1.0000   1.0000   1.0000   1.0000
     1.0000   1.0000   1.0000   1.0000   1.0000   1.0000   1.0000   1.0000
     1.0000   1.0000   1.0000   1.0000   1.0000   1.0000   1.0000   1.0000
     1.0000   1.0000   1.0000   1.0000   1.0000   1.0000   1.0000   1.0000
     1.0000   1.0000   1.0000   1.0000   1.0000   1.0000   1.0000   1.0000
     1.0000   1.0000   1.0000   1.0000   1.0000   1.0000   1.0000   1.0000
     1.0000   1.0000   1.0000   1.0000   1.0000   1.0000   1.0000   1.0000
     1.0000   1.0000   1.0000   1.0000   1.0000   1.0000   1.0000   1.0000
     1.0000   1.0000   1.0000   1.0000   1.0000   1.0000   1.0000   1.0000
     1.0000   1.0000   1.0000   1.0000   1.0000   1.0000   1.0000   1.0000
     1.0000   1.0000   1.0000   1.0000   1.0000   1.0000   1.0000   1.0000
     1.0000   1.0000   1.0000   1.0000   1.0000   1.0002   1.0027   1.0027
     1.0037   1.0037   1.0061   1.0097   1.0651   1.0727   1.0727   1.0798
     1.0798   1.0599   1.0599   1.0298   0.9194   0.9194   0.8202   0.4664
     0.4664   0.0700   0.0700   0.0032   0.0027   0.0004   0.0001   0.0000
     0.0000   0.0000   0.0000   0.0000   0.0000   0.0000   0.0000   0.0000
     0.0000   0.0000   0.0000   0.0000   0.0000   0.0000   0.0000   0.0000
     0.0000   0.0000   0.0000   0.0000   0.0000   0.0000   0.0000   0.0000
     0.0000   0.0000   0.0000   0.0000   0.0000   0.0000   0.0000   0.0000
     0.0000   0.0000   0.0000   0.0000   0.0000   0.0000   0.0000   0.0000
     0.0000   0.0000   0.0000   0.0000   0.0000   0.0000   0.0000   0.0000
     0.0000   0.0000   0.0000   0.0000   0.0000   0.0000   0.0000   0.0000
     0.0000   0.0000   0.0000   0.0000   0.0000   0.0000   0.0000   0.0000
     0.0000   0.0000   0.0000   0.0000   0.0000   0.0000   0.0000   0.0000
     0.0000   0.0000   0.0000   0.0000   0.0000   0.0000   0.0000   0.0000
     0.0000   0.0000   0.0000   0.0000   0.0000   0.0000   0.0000   0.0000

          k = 0.2500-0.4330 0.0000 ( 64876 PWs)   bands (ev):

  -125.0749-125.0744-125.0744-125.0733-125.0733-125.0727-125.0725-125.0725
  -125.0722-125.0721-125.0721-125.0720-125.0717-125.0716-125.0716-125.0714
  -124.8678-124.8677-124.8673-124.8673-124.8672-124.8672-124.8662-124.8662
  -124.8661-124.8661-124.8656-124.8655-124.8654-124.8654-124.8653-124.8653
  -124.8650-124.8650-124.8650-124.8649-124.8649-124.8649-124.8649-124.8649
  -124.8645-124.8645-124.8645-124.8644-124.8644-124.8644-124.8642-124.8642
   -79.2391 -79.2374 -79.2374 -79.2369 -79.2369 -79.2348 -79.2347 -79.2327
   -79.2327 -79.2322 -79.2287 -79.2279 -79.2246 -79.2242 -79.2242 -79.2241
   -79.2241 -79.2228 -79.2228 -79.2222 -79.2219 -79.2219 -79.2215 -79.2215
   -79.2214 -79.2214 -79.2210 -79.2209 -79.2208 -79.2207 -79.2207 -79.2206
   -79.2174 -79.2156 -79.2155 -79.2141 -79.2141 -79.2141 -79.2134 -79.2134
   -79.2127 -79.2127 -79.2112 -79.2112 -79.2087 -79.2071 -79.2071 -79.2058
   -79.0292 -79.0292 -79.0276 -79.0276 -79.0275 -79.0275 -79.0271 -79.0271
   -79.0270 -79.0270 -79.0249 -79.0249 -79.0249 -79.0248 -79.0247 -79.0246
   -79.0242 -79.0242 -79.0241 -79.0241 -79.0230 -79.0230 -79.0229 -79.0229
   -79.0228 -79.0228 -79.0228 -79.0228 -79.0224 -79.0224 -79.0223 -79.0222
   -79.0221 -79.0221 -79.0220 -79.0220 -79.0217 -79.0217 -79.0216 -79.0216
[...]
     1.0000   1.0000   1.0000   1.0000   1.0000   1.0000   1.0000   1.0000
     1.0000   1.0000   1.0000   1.0000   1.0000   1.0000   1.0000   1.0000
     1.0000   1.0000   1.0000   1.0000   1.0000   1.0000   1.0000   1.0000
     1.0000   1.0000   1.0000   1.0000   1.0000   1.0000   1.0000   1.0000
     1.0000   1.0000   1.0000   1.0000   1.0000   1.0000   1.0000   1.0000
     1.0000   1.0000   1.0000   1.0000   1.0000   1.0000   1.0000   1.0000
     1.0000   1.0000   1.0000   1.0000   1.0000   1.0000   1.0000   1.0000
     1.0000   1.0000   1.0000   1.0000   1.0000   1.0000   1.0000   1.0000
     1.0000   1.0000   1.0000   1.0000   1.0000   1.0000   1.0000   1.0000
     1.0000   1.0000   1.0000   1.0000   1.0000   1.0000   1.0000   1.0000
     1.0000   1.0000   1.0000   1.0000   1.0000   1.0000   1.0000   1.0000
     1.0000   1.0000   1.0000   1.0000   1.0000   1.0000   1.0000   1.0000
     1.0000   1.0000   1.0000   1.0000   1.0000   1.0000   1.0000   1.0000
     1.0000   1.0000   1.0000   1.0000   1.0000   1.0000   1.0000   1.0000
     1.0000   1.0000   1.0000   1.0000   1.0000   1.0000   1.0000   1.0000
     1.0000   1.0000   1.0000   1.0000   1.0000   1.0000   1.0000   1.0000
     1.0000   1.0000   1.0000   1.0000   1.0000   1.0000   1.0000   1.0000
     1.0000   1.0000   1.0000   1.0000   1.0000   1.0000   1.0000   1.0000
     1.0000   1.0000   1.0000   1.0000   1.0000   1.0000   1.0000   1.0000
     1.0000   1.0000   1.0000   1.0000   1.0000   1.0000   1.0000   1.0000
     1.0000   1.0000   1.0000   1.0000   1.0000   1.0000   1.0000   1.0000
     1.0000   1.0000   1.0000   1.0000   1.0000   1.0000   1.0000   1.0000
     1.0000   1.0000   1.0000   1.0000   1.0000   1.0000   1.0000   1.0000
     1.0000   1.0000   1.0000   1.0000   1.0000   1.0000   1.0000   1.0000
     1.0000   1.0000   1.0000   1.0000   1.0000   1.0000   1.0000   1.0000
     1.0000   1.0000   1.0000   1.0000   1.0000   1.0000   1.0000   1.0000
     1.0000   1.0000   1.0000   1.0000   1.0000   1.0000   1.0000   1.0000
     1.0000   1.0000   1.0000   1.0000   1.0000   1.0000   1.0000   1.0000
     1.0000   1.0000   1.0000   1.0000   1.0000   1.0000   1.0000   1.0000
     1.0000   1.0000   1.0000   1.0000   1.0000   1.0000   1.0000   1.0000
     1.0000   1.0000   1.0000   1.0000   1.0000   1.0000   1.0000   1.0000
     1.0000   1.0000   1.0000   1.0000   1.0000   1.0000   1.0000   1.0000
     1.0000   1.0000   1.0000   1.0000   1.0000   1.0000   1.0000   1.0000
     1.0000   1.0000   1.0000   1.0000   1.0000   1.0000   1.0000   1.0000
     1.0000   1.0000   1.0000   1.0000   1.0000   1.0000   1.0000   1.0000
     1.0000   1.0000   1.0000   1.0000   1.0000   1.0000   1.0000   1.0000
     1.0000   1.0000   1.0000   1.0000   1.0000   1.0000   1.0000   1.0000
     1.0000   1.0000   1.0000   1.0000   1.0000   1.0000   1.0000   1.0000
     1.0000   1.0000   1.0000   1.0000   1.0000   1.0000   1.0000   1.0000
     1.0000   1.0000   1.0000   1.0000   1.0000   1.0002   1.0027   1.0027
     1.0037   1.0037   1.0061   1.0097   1.0651   1.0727   1.0727   1.0798
     1.0798   1.0599   1.0599   1.0298   0.9194   0.9194   0.8202   0.4664
     0.4664   0.0700   0.0700   0.0032   0.0027   0.0004   0.0001   0.0000
     0.0000   0.0000   0.0000   0.0000   0.0000   0.0000   0.0000   0.0000
     0.0000   0.0000   0.0000   0.0000   0.0000   0.0000   0.0000   0.0000
     0.0000   0.0000   0.0000   0.0000   0.0000   0.0000   0.0000   0.0000
     0.0000   0.0000   0.0000   0.0000   0.0000   0.0000   0.0000   0.0000
     0.0000   0.0000   0.0000   0.0000   0.0000   0.0000   0.0000   0.0000
     0.0000   0.0000   0.0000   0.0000   0.0000   0.0000   0.0000   0.0000
     0.0000   0.0000   0.0000   0.0000   0.0000   0.0000   0.0000   0.0000
     0.0000   0.0000   0.0000   0.0000   0.0000   0.0000   0.0000   0.0000
     0.0000   0.0000   0.0000   0.0000   0.0000   0.0000   0.0000   0.0000
     0.0000   0.0000   0.0000   0.0000   0.0000   0.0000   0.0000   0.0000
     0.0000   0.0000   0.0000   0.0000   0.0000   0.0000   0.0000   0.0000

          k =-0.5000-0.8660 0.0000 ( 64842 PWs)   bands (ev):

  -125.0748-125.0748-125.0739-125.0739-125.0727-125.0727-125.0727-125.0727
  -125.0723-125.0723-125.0718-125.0718-125.0718-125.0718-125.0714-125.0714
  -124.8676-124.8676-124.8676-124.8676-124.8668-124.8668-124.8667-124.8667
  -124.8655-124.8655-124.8655-124.8655-124.8655-124.8655-124.8655-124.8655
  -124.8652-124.8652-124.8651-124.8651-124.8647-124.8647-124.8647-124.8646
  -124.8646-124.8646-124.8646-124.8646-124.8643-124.8643-124.8642-124.8642
   -79.2380 -79.2380 -79.2380 -79.2379 -79.2355 -79.2355 -79.2345 -79.2345
   -79.2299 -79.2299 -79.2299 -79.2299 -79.2250 -79.2250 -79.2245 -79.2245
   -79.2235 -79.2235 -79.2221 -79.2221 -79.2221 -79.2221 -79.2217 -79.2217
   -79.2211 -79.2211 -79.2211 -79.2211 -79.2207 -79.2207 -79.2184 -79.2184
   -79.2169 -79.2169 -79.2169 -79.2169 -79.2136 -79.2136 -79.2136 -79.2136
   -79.2127 -79.2127 -79.2100 -79.2100 -79.2090 -79.2090 -79.2061 -79.2060
   -79.0281 -79.0281 -79.0281 -79.0281 -79.0281 -79.0281 -79.0280 -79.0280
   -79.0257 -79.0256 -79.0256 -79.0256 -79.0246 -79.0246 -79.0246 -79.0246
   -79.0246 -79.0246 -79.0244 -79.0244 -79.0236 -79.0236 -79.0235 -79.0235
   -79.0223 -79.0223 -79.0223 -79.0223 -79.0222 -79.0222 -79.0222 -79.0222
   -79.0219 -79.0219 -79.0218 -79.0218 -79.0214 -79.0213 -79.0213 -79.0213
   -79.0213 -79.0213 -79.0212 -79.0212 -79.0209 -79.0209 -79.0208 -79.0208
   -79.0201 -79.0201 -79.0201 -79.0201 -79.0201 -79.0201 -79.0201 -79.0201
   -79.0152 -79.0152 -79.0152 -79.0152 -79.0086 -79.0086 -79.0086 -79.0086
   -79.0071 -79.0071 -79.0071 -79.0071 -79.0071 -79.0071 -79.0070 -79.0070
   -79.0038 -79.0038 -79.0038 -79.0038 -79.0037 -79.0037 -79.0037 -79.0037
   -79.0030 -79.0029 -79.0029 -79.0029 -79.0002 -79.0002 -79.0001 -79.0001
   -78.9992 -78.9992 -78.9991 -78.9991 -78.9963 -78.9963 -78.9962 -78.9962
    -8.1647  -8.1647  -7.3260  -7.3260  -7.0301  -7.0301  -6.8694  -6.8694
    -6.8658  -6.8657  -6.7556  -6.7556  -6.7555  -6.7555  -6.6598  -6.6598
    -6.6535  -6.6535  -6.6535  -6.6535  -6.6294  -6.6293  -6.6143  -6.6143
    -6.6143  -6.6143  -6.5599  -6.5599  -6.5337  -6.5337  -6.5337  -6.5337
    -6.5116  -6.5116  -6.4954  -6.4954  -6.4954  -6.4954  -6.4697  -6.4697
    -6.4697  -6.4697  -6.4668  -6.4668  -6.4578  -6.4578  -6.4320  -6.4320
    -6.4266  -6.4266  -6.4266  -6.4266  -6.3170  -6.3170  -6.3074  -6.3074
    -6.2981  -6.2981  -6.2976  -6.2976  -6.2976  -6.2976  -6.2767  -6.2767
    -6.2767  -6.2767  -6.2431  -6.2431  -6.2266  -6.2266  -6.2266  -6.2266
    -6.2134  -6.2134  -6.2076  -6.2076  -6.1760  -6.1760  -6.1472  -6.1472
    -6.1161  -6.1161  -6.1083  -6.1083  -6.0884  -6.0884  -6.0884  -6.0884
    -6.0677  -6.0677  -6.0677  -6.0677  -6.0462  -6.0462  -6.0365  -6.0365
    -6.0324  -6.0324  -6.0274  -6.0274  -6.0149  -6.0149  -5.9958  -5.9958
    -5.9958  -5.9958  -5.9520  -5.9520  -5.9496  -5.9496  -5.9206  -5.9206
    -5.9104  -5.9104  -5.8789  -5.8789  -5.8789  -5.8789  -5.8195  -5.8195
    -5.8156  -5.8156  -5.8138  -5.8138  -5.8138  -5.8138  -5.8129  -5.8128
    -5.7920  -5.7920  -5.7887  -5.7887  -5.7820  -5.7820  -5.7820  -5.7820
    -5.7740  -5.7740  -5.7718  -5.7718  -5.7718  -5.7718  -5.7616  -5.7616
    -5.7597  -5.7597  -5.7597  -5.7597  -5.6795  -5.6795  -5.6782  -5.6782
    -5.6731  -5.6731  -5.6508  -5.6508  -5.6508  -5.6508  -5.6382  -5.6382
    -5.6282  -5.6282  -5.6096  -5.6096  -5.6096  -5.6096  -5.5994  -5.5994
    -5.5758  -5.5757  -5.5491  -5.5491  -5.5346  -5.5346  -5.5346  -5.5346
    -5.5311  -5.5311  -5.5311  -5.5311  -5.5278  -5.5278  -5.5258  -5.5258
    -5.5044  -5.5044  -5.5044  -5.5043  -5.4934  -5.4934  -5.4932  -5.4931
    -5.4920  -5.4920  -5.4831  -5.4831  -5.4693  -5.4693  -5.4693  -5.4693
    -5.4560  -5.4559  -5.4559  -5.4559  -5.4446  -5.4446  -5.4281  -5.4281
    -5.4206  -5.4206  -5.4206  -5.4206  -5.4176  -5.4176  -5.4175  -5.4175
    -5.4101  -5.4101  -5.4073  -5.4073  -5.4059  -5.4058  -5.3757  -5.3757
    -5.3678  -5.3678  -5.3678  -5.3678  -5.3287  -5.3287  -5.3287  -5.3287
    -5.2583  -5.2583  -5.2583  -5.2583  -5.2412  -5.2412  -5.2388  -5.2388
    -5.2388  -5.2388  -5.2053  -5.2053  -5.2026  -5.2026  -4.7076  -4.7076
    -4.4248  -4.4248  -4.4248  -4.4248  -3.7355  -3.7355  -3.1112  -3.1112
    -3.0664  -3.0664  -3.0664  -3.0664  -2.3922  -2.3922  -2.2445  -2.2445
    -1.7657  -1.7657  -1.7657  -1.7657  -0.7560  -0.7560  -0.7560  -0.7560
    -0.3302  -0.3302  -0.3302  -0.3302  -0.0920  -0.0920   0.0123   0.0123
     1.0126   1.0126   1.0471   1.0471   1.3302   1.3302   1.3661   1.3661
     1.3661   1.3661   2.2186   2.2186   2.8947   2.8947   2.8947   2.8947
     3.0991   3.0991   3.0991   3.0991   3.3171   3.3171   3.5546   3.5546
     3.8610   3.8610   3.8611   3.8611   3.9951   3.9951   4.2496   4.2496
     4.4470   4.4470   4.7441   4.7441   4.8521   4.8521   5.4806   5.4806
     5.5296   5.5296   5.7277   5.7277   5.7967   5.7967   5.9278   5.9278
     5.9278   5.9278   5.9833   5.9833   5.9833   5.9833   6.1540   6.1540
     6.1540   6.1540   6.4310   6.4310   6.5545   6.5545   6.6461   6.6461
     6.6660   6.6660   6.8498   6.8498   6.8674   6.8674   7.0052   7.0052
     7.0052   7.0052   7.5886   7.5886   7.7473   7.7473   8.0627   8.0627
     8.0918   8.0918   8.0918   8.0918   8.2780   8.2780   8.4794   8.4794
     8.4794   8.4794   8.6246   8.6246   8.6246   8.6246   8.6703   8.6703
     8.7365   8.7365   8.8131   8.8132   8.9985   8.9986   8.9986   8.9987

     occupation numbers 
     1.0000   1.0000   1.0000   1.0000   1.0000   1.0000   1.0000   1.0000
     1.0000   1.0000   1.0000   1.0000   1.0000   1.0000   1.0000   1.0000
     1.0000   1.0000   1.0000   1.0000   1.0000   1.0000   1.0000   1.0000
     1.0000   1.0000   1.0000   1.0000   1.0000   1.0000   1.0000   1.0000
     1.0000   1.0000   1.0000   1.0000   1.0000   1.0000   1.0000   1.0000
     1.0000   1.0000   1.0000   1.0000   1.0000   1.0000   1.0000   1.0000
     1.0000   1.0000   1.0000   1.0000   1.0000   1.0000   1.0000   1.0000
     1.0000   1.0000   1.0000   1.0000   1.0000   1.0000   1.0000   1.0000
     1.0000   1.0000   1.0000   1.0000   1.0000   1.0000   1.0000   1.0000
     1.0000   1.0000   1.0000   1.0000   1.0000   1.0000   1.0000   1.0000
     1.0000   1.0000   1.0000   1.0000   1.0000   1.0000   1.0000   1.0000
     1.0000   1.0000   1.0000   1.0000   1.0000   1.0000   1.0000   1.0000
     1.0000   1.0000   1.0000   1.0000   1.0000   1.0000   1.0000   1.0000
     1.0000   1.0000   1.0000   1.0000   1.0000   1.0000   1.0000   1.0000
     1.0000   1.0000   1.0000   1.0000   1.0000   1.0000   1.0000   1.0000
     1.0000   1.0000   1.0000   1.0000   1.0000   1.0000   1.0000   1.0000
     1.0000   1.0000   1.0000   1.0000   1.0000   1.0000   1.0000   1.0000
     1.0000   1.0000   1.0000   1.0000   1.0000   1.0000   1.0000   1.0000
     1.0000   1.0000   1.0000   1.0000   1.0000   1.0000   1.0000   1.0000
     1.0000   1.0000   1.0000   1.0000   1.0000   1.0000   1.0000   1.0000
     1.0000   1.0000   1.0000   1.0000   1.0000   1.0000   1.0000   1.0000
     1.0000   1.0000   1.0000   1.0000   1.0000   1.0000   1.0000   1.0000
     1.0000   1.0000   1.0000   1.0000   1.0000   1.0000   1.0000   1.0000
     1.0000   1.0000   1.0000   1.0000   1.0000   1.0000   1.0000   1.0000
     1.0000   1.0000   1.0000   1.0000   1.0000   1.0000   1.0000   1.0000
     1.0000   1.0000   1.0000   1.0000   1.0000   1.0000   1.0000   1.0000
     1.0000   1.0000   1.0000   1.0000   1.0000   1.0000   1.0000   1.0000
     1.0000   1.0000   1.0000   1.0000   1.0000   1.0000   1.0000   1.0000
     1.0000   1.0000   1.0000   1.0000   1.0000   1.0000   1.0000   1.0000
     1.0000   1.0000   1.0000   1.0000   1.0000   1.0000   1.0000   1.0000
     1.0000   1.0000   1.0000   1.0000   1.0000   1.0000   1.0000   1.0000
     1.0000   1.0000   1.0000   1.0000   1.0000   1.0000   1.0000   1.0000
     1.0000   1.0000   1.0000   1.0000   1.0000   1.0000   1.0000   1.0000
     1.0000   1.0000   1.0000   1.0000   1.0000   1.0000   1.0000   1.0000
     1.0000   1.0000   1.0000   1.0000   1.0000   1.0000   1.0000   1.0000
     1.0000   1.0000   1.0000   1.0000   1.0000   1.0000   1.0000   1.0000
     1.0000   1.0000   1.0000   1.0000   1.0000   1.0000   1.0000   1.0000
     1.0000   1.0000   1.0000   1.0000   1.0000   1.0000   1.0000   1.0000
     1.0000   1.0000   1.0000   1.0000   1.0000   1.0000   1.0000   1.0000
     1.0000   1.0000   1.0000   1.0000   1.0000   1.0000   1.0000   1.0000
     1.0000   1.0000   1.0000   1.0000   1.0000   1.0000   1.0000   1.0000
     1.0000   1.0000   1.0000   1.0000   1.0000   1.0000   1.0000   1.0000
     1.0000   1.0000   1.0000   1.0000   1.0000   1.0000   1.0000   1.0000
     1.0000   1.0000   1.0000   1.0000   1.0000   1.0000   1.0000   1.0000
     1.0000   1.0000   1.0000   1.0000   1.0000   1.0000   1.0000   1.0000
     1.0000   1.0000   1.0000   1.0000   1.0000   1.0000   1.0000   1.0000
     1.0000   1.0000   1.0000   1.0000   1.0000   1.0000   1.0000   1.0000
     1.0000   1.0000   1.0000   1.0000   1.0000   1.0000   1.0000   1.0000
     1.0000   1.0000   1.0000   1.0000   1.0000   1.0000   1.0000   1.0000
     1.0000   1.0000   1.0000   1.0000   1.0000   1.0000   1.0000   1.0000
     1.0000   1.0000   1.0000   1.0000   1.0000   1.0000   1.0000   1.0000
     1.0000   1.0000   1.0000   1.0000   1.0000   1.0000   1.0000   1.0000
     1.0000   1.0000   1.0000   1.0000   1.0000   1.0000   1.0000   1.0000
     1.0000   1.0000   1.0000   1.0000   1.0000   1.0000   1.0000   1.0000
     1.0000   1.0000   1.0000   1.0000   1.0000   1.0000   1.0000   1.0000
     1.0000   1.0000   1.0000   1.0000   1.0000   1.0000   1.0000   1.0000
     1.0000   1.0000   1.0000   1.0000   1.0000   1.0000   1.0000   1.0000
     1.0000   1.0000   1.0000   1.0000   1.0004   1.0004   1.0004   1.0004
     1.0062   1.0062   1.0062   1.0062   1.0195   1.0195   1.0295   1.0295
     0.8803   0.8803   0.8495   0.8495   0.5510   0.5510   0.5116   0.5116
     0.5116   0.5116   0.0207   0.0207   0.0002   0.0002   0.0002   0.0002
     0.0000   0.0000   0.0000   0.0000   0.0000   0.0000   0.0000   0.0000
     0.0000   0.0000   0.0000   0.0000   0.0000   0.0000   0.0000   0.0000
     0.0000   0.0000   0.0000   0.0000   0.0000   0.0000   0.0000   0.0000
     0.0000   0.0000   0.0000   0.0000   0.0000   0.0000   0.0000   0.0000
     0.0000   0.0000   0.0000   0.0000   0.0000   0.0000   0.0000   0.0000
     0.0000   0.0000   0.0000   0.0000   0.0000   0.0000   0.0000   0.0000
     0.0000   0.0000   0.0000   0.0000   0.0000   0.0000   0.0000   0.0000
     0.0000   0.0000   0.0000   0.0000   0.0000   0.0000   0.0000   0.0000
     0.0000   0.0000   0.0000   0.0000   0.0000   0.0000   0.0000   0.0000
     0.0000   0.0000   0.0000   0.0000   0.0000   0.0000   0.0000   0.0000
     0.0000   0.0000   0.0000   0.0000   0.0000   0.0000   0.0000   0.0000

     the Fermi energy is     1.4716 ev

!    total energy              =  -22154.24574194 Ry
     estimated scf accuracy    <       0.00000089 Ry
     smearing contrib. (-TS)   =       0.02367972 Ry
     internal energy E=F+TS    =  -22154.26942166 Ry

     The total energy is F=E-TS. E is the sum of the following terms:
     one-electron contribution = -144865.13747923 Ry
     hartree contribution      =   72365.77514200 Ry
     xc contribution           =   -2024.15502813 Ry
     ewald contribution        =   52369.24794370 Ry

     convergence has been achieved in  11 iterations

     Writing all to output data dir ./tmp/Zn002.save/ :
     XML data file, charge density, pseudopotentials, collected wavefunctions

     init_run     :    115.81s CPU    116.60s WALL (       1 calls)
     electrons    :   8573.43s CPU   8642.51s WALL (       1 calls)

     Called by init_run:
     wfcinit      :    114.52s CPU    115.25s WALL (       1 calls)
     wfcinit:atom :      0.08s CPU      0.12s WALL (      10 calls)
     wfcinit:wfcr :    113.35s CPU    113.93s WALL (      10 calls)
     potinit      :      0.08s CPU      0.08s WALL (       1 calls)
     hinit0       :      0.03s CPU      0.04s WALL (       1 calls)

     Called by electrons:
     c_bands      :   8208.15s CPU   8272.60s WALL (      12 calls)
     sum_band     :    336.76s CPU    340.08s WALL (      12 calls)
     v_of_rho     :      0.82s CPU      0.86s WALL (      12 calls)
     v_h          :      0.05s CPU      0.06s WALL (      12 calls)
     v_xc         :      0.76s CPU      0.80s WALL (      12 calls)
     newd         :     28.43s CPU     29.63s WALL (      12 calls)
     mix_rho      :      0.09s CPU      0.11s WALL (      12 calls)

     Called by c_bands:
     init_us_2    :      4.67s CPU      4.71s WALL (     250 calls)
     cegterg      :   8198.42s CPU   8262.51s WALL (     120 calls)

     Called by sum_band:
     sum_band:wei :      0.08s CPU      0.08s WALL (      12 calls)
     sum_band:loo :    318.41s CPU    320.03s WALL (      12 calls)
     sum_band:buf :      0.97s CPU      1.00s WALL (     120 calls)
     sum_band:ini :      2.25s CPU      2.26s WALL (     120 calls)
     sum_band:cal :    271.40s CPU    272.64s WALL (     120 calls)
     sum_band:bec :      2.47s CPU      2.47s WALL (     120 calls)
     addusdens    :     16.35s CPU     18.03s WALL (      12 calls)
                                        0.00s GPU  (      12 calls)
     addusd:skk   :      0.10s CPU      0.18s WALL (      12 calls)
                                        0.00s GPU  (      12 calls)

     Called by *egterg:
     cdiaghg      :    308.37s CPU    319.77s WALL (     682 calls)
     cegterg:over :   1966.94s CPU   1974.80s WALL (     572 calls)
     cegterg:upda :    544.93s CPU    549.49s WALL (     572 calls)
     cegterg:last :   3126.51s CPU   3144.86s WALL (     230 calls)
     cdiaghg:chol :     19.30s CPU     19.36s WALL (     682 calls)
     cdiaghg:inve :      3.11s CPU      3.12s WALL (     682 calls)
     cdiaghg:para :     80.26s CPU     81.83s WALL (    1364 calls)
     h_psi        :   1433.56s CPU   1443.60s WALL (     702 calls)
     s_psi        :    588.95s CPU    590.41s WALL (     702 calls)
     g_psi        :      0.81s CPU      0.83s WALL (     572 calls)

     Called by h_psi:
     h_psi:calbec :    648.98s CPU    652.05s WALL (     702 calls)
     vloc_psi     :    187.62s CPU    189.12s WALL (     702 calls)
     add_vuspsi   :    595.14s CPU    596.78s WALL (     702 calls)

     General routines
     calbec       :    920.38s CPU    924.69s WALL (     822 calls)
     fft          :      2.26s CPU      2.33s WALL (     154 calls)
     ffts         :      0.02s CPU      0.03s WALL (      24 calls)
     fftw         :    199.31s CPU    200.83s WALL (  399002 calls)
     interpolate  :      0.05s CPU      0.06s WALL (      12 calls)

     Parallel routines

     PWSCF        :      2h24m CPU      2h26m WALL


   This run was terminated on:  17:40:10  26Mar2025            

=------------------------------------------------------------------------------=
   JOB DONE.
=------------------------------------------------------------------------------=
Note: The following floating-point exceptions are signalling: IEEE_DENORMAL
Note: The following floating-point exceptions are signalling: IEEE_DENORMAL
Note: The following floating-point exceptions are signalling: IEEE_DENORMAL
Note: The following floating-point exceptions are signalling: IEEE_DENORMAL
Note: The following floating-point exceptions are signalling: IEEE_DENORMAL
Note: The following floating-point exceptions are signalling: IEEE_DENORMAL
Note: The following floating-point exceptions are signalling: IEEE_DENORMAL
Note: The following floating-point exceptions are signalling: IEEE_DENORMAL
Note: The following floating-point exceptions are signalling: IEEE_DENORMAL
Note: The following floating-point exceptions are signalling: IEEE_DENORMAL
Note: The following floating-point exceptions are signalling: IEEE_DENORMAL
