--------------------------------------------------------------------------
WARNING: There was an error initializing an OpenFabrics device.

  Local host:   ga00
  Local device: mlx5_0
--------------------------------------------------------------------------

     Program PWSCF v.7.3.1 starts on  5Apr2025 at 15:48:43 

     This program is part of the open-source Quantum ESPRESSO suite
     for quantum simulation of materials; please cite
         "P. Giannozzi et al., J. Phys.:Condens. Matter 21 395502 (2009);
         "P. Giannozzi et al., J. Phys.:Condens. Matter 29 465901 (2017);
         "P. Giannozzi et al., J. Chem. Phys. 152 154105 (2020);
          URL http://www.quantum-espresso.org", 
     in publications or presentations arising from this work. More details at
     http://www.quantum-espresso.org/quote

     Parallel version (MPI), running on    31 processors

     MPI processes distributed on     1 nodes
     98799 MiB available memory on the printing compute node when the environment starts

     Waiting for input...
     Reading input from standard input
Warning: card &CELL ignored
Warning: card   CELL_DOFREE = 'ALL' ignored
Warning: card / ignored

     Current dimensions of program PWSCF are:
     Max number of different atomic species (ntypx) = 10
     Max number of k-points (npk) =  40000
     Max angular momentum in pseudopotentials (lmaxx) =  4
     Presently stress not available with electric field and gates


     R & G space division:  proc/nbgrp/npool/nimage =      31
     Subspace diagonalization in iterative solution of the eigenvalue problem:
     one sub-group per band group will be used
     custom distributed-memory algorithm (size of sub-group:  5*  5 procs)


     Parallelization info
     --------------------
     sticks:   dense  smooth     PW     G-vecs:    dense   smooth      PW
     Min         243     138     37                38743    16729    2309
     Max         246     140     38                38746    16740    2312
     Sum        7555    4303   1159              1201061   518755   71619

     Using Slab Decomposition



     bravais-lattice index     =            0
     lattice parameter (alat)  =      19.7617  a.u.
     unit-cell volume          =   15176.5939 (a.u.)^3
     number of atoms/cell      =           48
     number of atomic types    =            1
     number of electrons       =       960.00
     number of Kohn-Sham states=          576
     kinetic-energy cutoff     =      40.0000  Ry
     charge density cutoff     =     280.0000  Ry
     scf convergence threshold =      1.0E-06
     mixing beta               =       0.4000
     number of iterations used =            8  plain     mixing
     energy convergence thresh.=      1.0E-05
     force convergence thresh. =      5.0E-04
     Exchange-correlation= SLA  PW   PBE  PBE
                           (   1   4   3   4   0   0   0)
     nstep                     =          500


     celldm(1)=  19.761696  celldm(2)=   0.000000  celldm(3)=   0.000000
     celldm(4)=   0.000000  celldm(5)=   0.000000  celldm(6)=   0.000000

     crystal axes: (cart. coord. in units of alat)
               a(1) = (   1.000000   0.000000   0.000000 )  
               a(2) = (  -0.500000   0.866025   0.000000 )  
               a(3) = (   0.000000   0.000000   2.270759 )  

     reciprocal axes: (cart. coord. in units 2 pi/alat)
               b(1) = (  1.000000  0.577350 -0.000000 )  
               b(2) = (  0.000000  1.154701  0.000000 )  
               b(3) = (  0.000000 -0.000000  0.440381 )  


     PseudoPot. # 1 for Zn read from file:
     /home/yongsang/Research/PSID_server_room/qe/[00]QE/qepseudo/SSSP_1.3.0_PBE_efficiency/Zn_pbe_v1.uspp.F.UPF
     MD5 check sum: df62231357ef9e81f77b2b3087fa5675
     Pseudo is Ultrasoft, Zval = 20.0
     Generated by new atomic code, or converted to UPF format
     Using radial grid of  943 points,  6 beta functions with: 
                l(1) =   0
                l(2) =   0
                l(3) =   1
                l(4) =   1
                l(5) =   2
                l(6) =   2
     Q(r) pseudized with  8 coefficients,  rinner =    1.100   1.100   1.100
                                                       1.100   1.100

     atomic species   valence    mass     pseudopotential
     Zn               20.00    65.38000     Zn( 1.00)

     No symmetry found


                                    s                        frac. trans.

      isym =  1     identity                                     

 cryst.   s( 1) = (     1          0          0      )
                  (     0          1          0      )
                  (     0          0          1      )

 cart.    s( 1) = (  1.0000000  0.0000000  0.0000000 )
                  (  0.0000000  1.0000000  0.0000000 )
                  (  0.0000000  0.0000000  1.0000000 )


   Cartesian axes

     site n.     atom                  positions (alat units)
         1        Zn     tau(   1) = (   0.0000000   0.1443375   0.1164998  )
         2        Zn     tau(   2) = (   0.5000000   0.1443375   0.1164998  )
         3        Zn     tau(   3) = (   0.0000008   0.1443287   0.5996818  )
         4        Zn     tau(   4) = (   0.4999961   0.1443636   0.5996092  )
         5        Zn     tau(   5) = (  -0.1250000   0.3608439   0.1164998  )
         6        Zn     tau(   6) = (   0.3750000   0.3608439   0.1164998  )
         7        Zn     tau(   7) = (  -0.1250014   0.3608365   0.5995712  )
         8        Zn     tau(   8) = (   0.3750108   0.3608622   0.5994892  )
         9        Zn     tau(   9) = (  -0.2500000   0.5773502   0.1164998  )
        10        Zn     tau(  10) = (   0.2500000   0.5773502   0.1164998  )
        11        Zn     tau(  11) = (  -0.2500291   0.5773448   0.5994599  )
        12        Zn     tau(  12) = (   0.2500298   0.5773405   0.5995704  )
        13        Zn     tau(  13) = (  -0.3750000   0.7938567   0.1164998  )
        14        Zn     tau(  14) = (   0.1250000   0.7938567   0.1164998  )
        15        Zn     tau(  15) = (  -0.3750192   0.7938503   0.5995597  )
        16        Zn     tau(  16) = (   0.1250210   0.7938546   0.5996923  )
        17        Zn     tau(  17) = (   0.2500000   0.1443375   0.1164998  )
        18        Zn     tau(  18) = (   0.7500000   0.1443375   0.1164998  )
        19        Zn     tau(  19) = (   0.2499808   0.1443394   0.5997016  )
        20        Zn     tau(  20) = (   0.7500196   0.1443469   0.5995819  )
        21        Zn     tau(  21) = (   0.1250000   0.3608439   0.1164998  )
        22        Zn     tau(  22) = (   0.6250000   0.3608439   0.1164998  )
        23        Zn     tau(  23) = (   0.1249968   0.3608336   0.5996865  )
        24        Zn     tau(  24) = (   0.6249894   0.3608655   0.5993717  )
        25        Zn     tau(  25) = (   0.0000000   0.5773502   0.1164998  )
        26        Zn     tau(  26) = (   0.5000000   0.5773502   0.1164998  )
        27        Zn     tau(  27) = (  -0.0000048   0.5773285   0.5996811  )
        28        Zn     tau(  28) = (   0.5000028   0.5773490   0.5993518  )
        29        Zn     tau(  29) = (  -0.1250000   0.7938567   0.1164998  )
        30        Zn     tau(  30) = (   0.3750000   0.7938567   0.1164998  )
        31        Zn     tau(  31) = (  -0.1250309   0.7938550   0.5996904  )
        32        Zn     tau(  32) = (   0.3750259   0.7938514   0.5995577  )
        33        Zn     tau(  33) = (   0.1249792   0.0721726   0.3581392  )
        34        Zn     tau(  34) = (   0.6250232   0.0722219   0.3581048  )
        35        Zn     tau(  35) = (   0.0000042   0.2886408   0.3581388  )
        36        Zn     tau(  36) = (   0.4999973   0.2887225   0.3580491  )
        37        Zn     tau(  37) = (  -0.1250368   0.5051391   0.3580713  )
        38        Zn     tau(  38) = (   0.3750416   0.5051654   0.3580209  )
        39        Zn     tau(  39) = (  -0.2500605   0.7216974   0.3580709  )
        40        Zn     tau(  40) = (   0.2500676   0.7216835   0.3580819  )
        41        Zn     tau(  41) = (   0.3749556   0.0722083   0.3581429  )
        42        Zn     tau(  42) = (   0.8750408   0.0721787   0.3581002  )
        43        Zn     tau(  43) = (   0.2500052   0.2886728   0.3581307  )
        44        Zn     tau(  44) = (   0.7499958   0.2886849   0.3580462  )
        45        Zn     tau(  45) = (   0.1250297   0.5051286   0.3581191  )
        46        Zn     tau(  46) = (   0.6249636   0.5051713   0.3579785  )
        47        Zn     tau(  47) = (  -0.0000166   0.7216885   0.3581396  )
        48        Zn     tau(  48) = (   0.5000104   0.7216822   0.3580223  )

     --------------------------------------------
     DFT-D3 Dispersion Correction (3-body terms):
     --------------------------------------------
       Reference C6 values for interpolation: 

         atom   Coordination number   C6
         Zn         0.000           681.04
         Zn         1.942           306.91

       Values used:

         atom   Coordination number  R0_AB[au]  C6      C8
         Zn         6.586            3.053    306.91  23930.67
         Zn         6.586            3.053    306.91  23930.67
         Zn         6.589            3.053    306.91  23930.67
         Zn         6.588            3.053    306.91  23930.67
         Zn         6.587            3.053    306.91  23930.67
         Zn         6.588            3.053    306.91  23930.67
         Zn         6.591            3.053    306.91  23930.67
         Zn         6.593            3.053    306.91  23930.67
         Zn         6.588            3.053    306.91  23930.67
         Zn         6.587            3.053    306.91  23930.67
         Zn         6.593            3.053    306.91  23930.67
         Zn         6.590            3.053    306.91  23930.67
         Zn         6.587            3.053    306.91  23930.67
         Zn         6.585            3.053    306.91  23930.67
         Zn         6.592            3.053    306.91  23930.67
         Zn         6.584            3.053    306.91  23930.67
         Zn         6.585            3.053    306.91  23930.67
         Zn         6.587            3.053    306.91  23930.67
         Zn         6.588            3.053    306.91  23930.67
         Zn         6.590            3.053    306.91  23930.67
         Zn         6.585            3.053    306.91  23930.67
         Zn         6.589            3.053    306.91  23930.67
         Zn         6.588            3.053    306.91  23930.67
         Zn         6.596            3.053    306.91  23930.67
         Zn         6.585            3.053    306.91  23930.67
         Zn         6.590            3.053    306.91  23930.67
         Zn         6.585            3.053    306.91  23930.67
         Zn         6.597            3.053    306.91  23930.67
         Zn         6.585            3.053    306.91  23930.67
         Zn         6.588            3.053    306.91  23930.67
         Zn         6.586            3.053    306.91  23930.67
         Zn         6.591            3.053    306.91  23930.67
         Zn         7.997            3.053    306.91  23930.67
         Zn         7.995            3.053    306.91  23930.67
         Zn         7.997            3.053    306.91  23930.67
         Zn         8.003            3.053    306.91  23930.67
         Zn         7.997            3.053    306.91  23930.67
         Zn         8.004            3.053    306.91  23930.67
         Zn         7.998            3.053    306.91  23930.67
         Zn         7.996            3.053    306.91  23930.67
         Zn         7.994            3.053    306.91  23930.67
         Zn         7.998            3.053    306.91  23930.67
         Zn         7.997            3.053    306.91  23930.67
         Zn         8.001            3.053    306.91  23930.67
         Zn         7.994            3.053    306.91  23930.67
         Zn         8.007            3.053    306.91  23930.67
         Zn         7.991            3.053    306.91  23930.67
         Zn         8.003            3.053    306.91  23930.67

         Molecular C6 ( Ry / a.u.^6 ) =    707110.50


   Crystallographic axes

     site n.     atom                  positions (cryst. coord.)
         1        Zn     tau(   1) = (  0.0833333  0.1666666  0.0513044  )
         2        Zn     tau(   2) = (  0.5833333  0.1666666  0.0513044  )
         3        Zn     tau(   3) = (  0.0833290  0.1666564  0.2640887  )
         4        Zn     tau(   4) = (  0.5833444  0.1666967  0.2640568  )
         5        Zn     tau(   5) = (  0.0833333  0.4166666  0.0513044  )
         6        Zn     tau(   6) = (  0.5833333  0.4166666  0.0513044  )
         7        Zn     tau(   7) = (  0.0833277  0.4166581  0.2640400  )
         8        Zn     tau(   8) = (  0.5833547  0.4166878  0.2640039  )
         9        Zn     tau(   9) = (  0.0833333  0.6666666  0.0513044  )
        10        Zn     tau(  10) = (  0.5833333  0.6666666  0.0513044  )
        11        Zn     tau(  11) = (  0.0833011  0.6666604  0.2639910  )
        12        Zn     tau(  12) = (  0.5833575  0.6666554  0.2640396  )
        13        Zn     tau(  13) = (  0.0833333  0.9166667  0.0513044  )
        14        Zn     tau(  14) = (  0.5833334  0.9166667  0.0513044  )
        15        Zn     tau(  15) = (  0.0833105  0.9166594  0.2640349  )
        16        Zn     tau(  16) = (  0.5833532  0.9166644  0.2640933  )
        17        Zn     tau(  17) = (  0.3333333  0.1666666  0.0513044  )
        18        Zn     tau(  18) = (  0.8333334  0.1666666  0.0513044  )
        19        Zn     tau(  19) = (  0.3333151  0.1666688  0.2640975  )
        20        Zn     tau(  20) = (  0.8333583  0.1666774  0.2640447  )
        21        Zn     tau(  21) = (  0.3333333  0.4166666  0.0513044  )
        22        Zn     tau(  22) = (  0.8333333  0.4166666  0.0513044  )
        23        Zn     tau(  23) = (  0.3333242  0.4166548  0.2640908  )
        24        Zn     tau(  24) = (  0.8333351  0.4166916  0.2639522  )
        25        Zn     tau(  25) = (  0.3333333  0.6666666  0.0513044  )
        26        Zn     tau(  26) = (  0.8333333  0.6666666  0.0513044  )
        27        Zn     tau(  27) = (  0.3333160  0.6666415  0.2640884  )
        28        Zn     tau(  28) = (  0.8333354  0.6666652  0.2639434  )
        29        Zn     tau(  29) = (  0.3333334  0.9166667  0.0513044  )
        30        Zn     tau(  30) = (  0.8333334  0.9166667  0.0513044  )
        31        Zn     tau(  31) = (  0.3333015  0.9166648  0.2640925  )
        32        Zn     tau(  32) = (  0.8333562  0.9166607  0.2640341  )
        33        Zn     tau(  33) = (  0.1666481  0.0833377  0.1577179  )
        34        Zn     tau(  34) = (  0.6667206  0.0833947  0.1577027  )
        35        Zn     tau(  35) = (  0.1666511  0.3332937  0.1577177  )
        36        Zn     tau(  36) = (  0.6666913  0.3333880  0.1576782  )
        37        Zn     tau(  37) = (  0.1666054  0.5832844  0.1576879  )
        38        Zn     tau(  38) = (  0.6666990  0.5833147  0.1576658  )
        39        Zn     tau(  39) = (  0.1666116  0.8333443  0.1576878  )
        40        Zn     tau(  40) = (  0.6667318  0.8333283  0.1576926  )
        41        Zn     tau(  41) = (  0.4166450  0.0833790  0.1577195  )
        42        Zn     tau(  42) = (  0.9167132  0.0833448  0.1577007  )
        43        Zn     tau(  43) = (  0.4166705  0.3333307  0.1577141  )
        44        Zn     tau(  44) = (  0.9166681  0.3333446  0.1576769  )
        45        Zn     tau(  45) = (  0.4166659  0.5832723  0.1577090  )
        46        Zn     tau(  46) = (  0.9166243  0.5833215  0.1576471  )
        47        Zn     tau(  47) = (  0.4166504  0.8333341  0.1577180  )
        48        Zn     tau(  48) = (  0.9166738  0.8333268  0.1576664  )

     number of k points=     5  Marzari-Vanderbilt smearing, width (Ry)=  0.0200
                       cart. coord. in units 2pi/alat
        k(    1) = (   0.0000000   0.0000000   0.0000000), wk =   0.2222222
        k(    2) = (   0.0000000   0.3849002   0.0000000), wk =   0.4444444
        k(    3) = (   0.3333333   0.1924501   0.0000000), wk =   0.4444444
        k(    4) = (   0.3333333   0.5773503   0.0000000), wk =   0.4444444
        k(    5) = (   0.3333333  -0.1924501   0.0000000), wk =   0.4444444

                       cryst. coord.
        k(    1) = (   0.0000000   0.0000000   0.0000000), wk =   0.2222222
        k(    2) = (   0.0000000   0.3333333   0.0000000), wk =   0.4444444
        k(    3) = (   0.3333333   0.0000000   0.0000000), wk =   0.4444444
        k(    4) = (   0.3333333   0.3333333   0.0000000), wk =   0.4444444
        k(    5) = (   0.3333333  -0.3333333   0.0000000), wk =   0.4444444

     Dense  grid:  1201061 G-vectors     FFT dimensions: ( 108, 108, 240)

     Smooth grid:   518755 G-vectors     FFT dimensions: (  80,  80, 192)

     Dynamical RAM for                 wfc:      18.38 MB

     Dynamical RAM for     wfc (w. buffer):     110.27 MB

     Dynamical RAM for           str. fact:       0.59 MB

     Dynamical RAM for           local pot:       0.00 MB

     Dynamical RAM for          nlocal pot:      27.57 MB

     Dynamical RAM for                qrad:       1.34 MB

     Dynamical RAM for          rho,v,vnew:       3.91 MB

     Dynamical RAM for               rhoin:       1.30 MB

     Dynamical RAM for            rho*nmix:       9.46 MB

     Dynamical RAM for           G-vectors:       2.34 MB

     Dynamical RAM for          h,s,v(r/c):       2.42 MB

     Dynamical RAM for          <psi|beta>:       7.59 MB

     Dynamical RAM for                 psi:      36.76 MB

     Dynamical RAM for                hpsi:      36.76 MB

     Dynamical RAM for                spsi:      36.76 MB

     Dynamical RAM for      wfcinit/wfcrot:      48.74 MB

     Dynamical RAM for           addusdens:     138.34 MB

     Dynamical RAM for          addusforce:     194.40 MB

     Estimated static dynamical RAM per process >     152.07 MB

     Estimated max dynamical RAM per process >     355.93 MB

     Estimated total dynamical RAM >      10.78 GB

     Initial potential from superposition of free atoms

     starting charge     959.9932, renormalised to     960.0000

     negative rho (up, down):  3.987E-03 0.000E+00

     Adding external electric field

     Computed dipole along edir(1) : 
        Elec. dipole         -0.3353 Ry au,         -0.8522 Debye
        Ion. dipole          -0.4915 Ry au,         -1.2492 Debye
        Dipole             -188.6528 Ry au,       -479.5077 Debye
        Dipole field         -0.1562 Ry au, 

        Potential amp.        5.5564 Ry
        Total length         17.7855 bohr

     Starting wfcs are  624 randomized atomic wfcs
[ga00:483310] 30 more processes have sent help message help-mpi-btl-openib.txt / error in device init
[ga00:483310] Set MCA parameter "orte_base_help_aggregate" to 0 to see all help / error messages

     total cpu time spent up to now is       23.8 secs

     Self-consistent Calculation

     iteration #  1     ecut=    40.00 Ry     beta= 0.40
     Davidson diagonalization with overlap

---- Real-time Memory Report at c_bands before calling an iterative solver
           394 MiB given to the printing process from OS
             0 MiB allocation reported by mallinfo(arena+hblkhd)
         92722 MiB available memory on the node where the printing process lives
------------------
     ethr =  1.00E-02,  avg # of iterations = 13.4

     negative rho (up, down):  8.643E-04 0.000E+00

     Adding external electric field

     Computed dipole along edir(1) : 
        Elec. dipole         -1.1370 Ry au,         -2.8899 Debye
        Ion. dipole          -0.4915 Ry au,         -1.2492 Debye
        Dipole              779.5651 Ry au,       1981.4567 Debye
        Dipole field          0.6455 Ry au, 

        Potential amp.      -22.9607 Ry
        Total length         17.7855 bohr


     total cpu time spent up to now is      239.6 secs

     total energy              =  -15377.72427822 Ry
     estimated scf accuracy    <   11356.40863282 Ry

     iteration #  2     ecut=    40.00 Ry     beta= 0.40
     Davidson diagonalization with overlap

---- Real-time Memory Report at c_bands before calling an iterative solver
           497 MiB given to the printing process from OS
             0 MiB allocation reported by mallinfo(arena+hblkhd)
         92129 MiB available memory on the node where the printing process lives
------------------
     ethr =  1.00E-02,  avg # of iterations = 31.4

     negative rho (up, down):  1.549E-03 0.000E+00

     Adding external electric field

     Computed dipole along edir(1) : 
        Elec. dipole         -0.6203 Ry au,         -1.5766 Debye
        Ion. dipole          -0.4915 Ry au,         -1.2492 Debye
        Dipole              155.5587 Ry au,        395.3908 Debye
        Dipole field          0.1288 Ry au, 

        Potential amp.       -4.5817 Ry
        Total length         17.7855 bohr


     total cpu time spent up to now is     1112.6 secs

     total energy              =  -19523.93096259 Ry
     estimated scf accuracy    <   66481.27589692 Ry

     iteration #  3     ecut=    40.00 Ry     beta= 0.40
     Davidson diagonalization with overlap

---- Real-time Memory Report at c_bands before calling an iterative solver
           512 MiB given to the printing process from OS
             0 MiB allocation reported by mallinfo(arena+hblkhd)
         92031 MiB available memory on the node where the printing process lives
------------------
     ethr =  1.00E-02,  avg # of iterations = 13.2

     negative rho (up, down):  2.522E-03 0.000E+00

     Adding external electric field

     Computed dipole along edir(1) : 
        Elec. dipole         -0.5598 Ry au,         -1.4230 Debye
        Ion. dipole          -0.4915 Ry au,         -1.2492 Debye
        Dipole               82.5794 Ry au,        209.8959 Debye
        Dipole field          0.0684 Ry au, 

        Potential amp.       -2.4322 Ry
        Total length         17.7855 bohr


     total cpu time spent up to now is     1464.5 secs

     total energy              =  -21867.60851885 Ry
     estimated scf accuracy    <    9851.49275219 Ry

     iteration #  4     ecut=    40.00 Ry     beta= 0.40
     Davidson diagonalization with overlap

---- Real-time Memory Report at c_bands before calling an iterative solver
           518 MiB given to the printing process from OS
             0 MiB allocation reported by mallinfo(arena+hblkhd)
         92020 MiB available memory on the node where the printing process lives
------------------
     ethr =  1.00E-02,  avg # of iterations = 10.0

     negative rho (up, down):  2.528E-03 0.000E+00

     Adding external electric field

     Computed dipole along edir(1) : 
        Elec. dipole         -0.5117 Ry au,         -1.3006 Debye
        Ion. dipole          -0.4915 Ry au,         -1.2492 Debye
        Dipole               24.4108 Ry au,         62.0461 Debye
        Dipole field          0.0202 Ry au, 

        Potential amp.       -0.7190 Ry
        Total length         17.7855 bohr


     total cpu time spent up to now is     1658.5 secs

     total energy              =  -22389.43326227 Ry
     estimated scf accuracy    <    1556.44130430 Ry

     iteration #  5     ecut=    40.00 Ry     beta= 0.40
     Davidson diagonalization with overlap

---- Real-time Memory Report at c_bands before calling an iterative solver
           519 MiB given to the printing process from OS
             0 MiB allocation reported by mallinfo(arena+hblkhd)
         91971 MiB available memory on the node where the printing process lives
------------------
     ethr =  1.00E-02,  avg # of iterations =  6.6

     negative rho (up, down):  2.797E-03 0.000E+00

     Adding external electric field

     Computed dipole along edir(1) : 
        Elec. dipole         -0.5149 Ry au,         -1.3087 Debye
        Ion. dipole          -0.4915 Ry au,         -1.2492 Debye
        Dipole               28.2791 Ry au,         71.8783 Debye
        Dipole field          0.0234 Ry au, 

        Potential amp.       -0.8329 Ry
        Total length         17.7855 bohr


     total cpu time spent up to now is     1785.1 secs

     total energy              =  -22376.13934075 Ry
     estimated scf accuracy    <     633.32426441 Ry

     iteration #  6     ecut=    40.00 Ry     beta= 0.40
     Davidson diagonalization with overlap

---- Real-time Memory Report at c_bands before calling an iterative solver
           519 MiB given to the printing process from OS
             0 MiB allocation reported by mallinfo(arena+hblkhd)
         91975 MiB available memory on the node where the printing process lives
------------------
     ethr =  1.00E-02,  avg # of iterations =  2.0

     negative rho (up, down):  2.769E-03 0.000E+00

     Adding external electric field

     Computed dipole along edir(1) : 
        Elec. dipole         -0.4879 Ry au,         -1.2401 Debye
        Ion. dipole          -0.4915 Ry au,         -1.2492 Debye
        Dipole               -4.3133 Ry au,        -10.9634 Debye
        Dipole field         -0.0036 Ry au, 

        Potential amp.        0.1270 Ry
        Total length         17.7855 bohr


     total cpu time spent up to now is     1859.5 secs

     total energy              =  -22244.02275983 Ry
     estimated scf accuracy    <     574.67971878 Ry

     iteration #  7     ecut=    40.00 Ry     beta= 0.40
     Davidson diagonalization with overlap

---- Real-time Memory Report at c_bands before calling an iterative solver
           520 MiB given to the printing process from OS
             0 MiB allocation reported by mallinfo(arena+hblkhd)
         91960 MiB available memory on the node where the printing process lives
------------------
     ethr =  1.00E-02,  avg # of iterations =  2.0

     negative rho (up, down):  4.050E-03 0.000E+00

     Adding external electric field

     Computed dipole along edir(1) : 
        Elec. dipole         -0.4821 Ry au,         -1.2253 Debye
        Ion. dipole          -0.4915 Ry au,         -1.2492 Debye
        Dipole              -11.3305 Ry au,        -28.7992 Debye
        Dipole field         -0.0094 Ry au, 

        Potential amp.        0.3337 Ry
        Total length         17.7855 bohr


     total cpu time spent up to now is     1937.7 secs

     total energy              =  -22235.66867233 Ry
     estimated scf accuracy    <     507.26902256 Ry

     iteration #  8     ecut=    40.00 Ry     beta= 0.40
     Davidson diagonalization with overlap

---- Real-time Memory Report at c_bands before calling an iterative solver
           521 MiB given to the printing process from OS
             0 MiB allocation reported by mallinfo(arena+hblkhd)
         91941 MiB available memory on the node where the printing process lives
------------------
     ethr =  1.00E-02,  avg # of iterations =  1.2

     negative rho (up, down):  3.490E-03 0.000E+00

     Adding external electric field

     Computed dipole along edir(1) : 
        Elec. dipole         -0.4778 Ry au,         -1.2145 Debye
        Ion. dipole          -0.4915 Ry au,         -1.2492 Debye
        Dipole              -16.4755 Ry au,        -41.8766 Debye
        Dipole field         -0.0136 Ry au, 

        Potential amp.        0.4853 Ry
        Total length         17.7855 bohr


     total cpu time spent up to now is     1998.1 secs

     total energy              =  -22229.28364788 Ry
     estimated scf accuracy    <     324.89607594 Ry

     iteration #  9     ecut=    40.00 Ry     beta= 0.40
     Davidson diagonalization with overlap

---- Real-time Memory Report at c_bands before calling an iterative solver
           521 MiB given to the printing process from OS
             0 MiB allocation reported by mallinfo(arena+hblkhd)
         91905 MiB available memory on the node where the printing process lives
------------------
     ethr =  1.00E-02,  avg # of iterations =  1.0

     negative rho (up, down):  3.273E-03 0.000E+00

     Adding external electric field

     Computed dipole along edir(1) : 
        Elec. dipole         -0.4744 Ry au,         -1.2059 Debye
        Ion. dipole          -0.4915 Ry au,         -1.2492 Debye
        Dipole              -20.5739 Ry au,        -52.2936 Debye
        Dipole field         -0.0170 Ry au, 

        Potential amp.        0.6060 Ry
        Total length         17.7855 bohr


     total cpu time spent up to now is     2055.8 secs

     total energy              =  -22220.38706315 Ry
     estimated scf accuracy    <     265.77040588 Ry

     iteration # 10     ecut=    40.00 Ry     beta= 0.40
     Davidson diagonalization with overlap

---- Real-time Memory Report at c_bands before calling an iterative solver
           522 MiB given to the printing process from OS
             0 MiB allocation reported by mallinfo(arena+hblkhd)
         91895 MiB available memory on the node where the printing process lives
------------------
     ethr =  1.00E-02,  avg # of iterations =  1.0

     negative rho (up, down):  6.884E-03 0.000E+00

     Adding external electric field

     Computed dipole along edir(1) : 
        Elec. dipole         -0.4214 Ry au,         -1.0712 Debye
        Ion. dipole          -0.4915 Ry au,         -1.2492 Debye
        Dipole              -84.5868 Ry au,       -214.9983 Debye
        Dipole field         -0.0700 Ry au, 

        Potential amp.        2.4914 Ry
        Total length         17.7855 bohr


     total cpu time spent up to now is     2113.6 secs

     total energy              =  -22112.44267121 Ry
     estimated scf accuracy    <     231.07659438 Ry

     iteration # 11     ecut=    40.00 Ry     beta= 0.40
     Davidson diagonalization with overlap

---- Real-time Memory Report at c_bands before calling an iterative solver
           523 MiB given to the printing process from OS
             0 MiB allocation reported by mallinfo(arena+hblkhd)
         91894 MiB available memory on the node where the printing process lives
------------------
     ethr =  1.00E-02,  avg # of iterations =  5.6

     negative rho (up, down):  4.648E-03 0.000E+00

     Adding external electric field

     Computed dipole along edir(1) : 
        Elec. dipole         -0.4310 Ry au,         -1.0955 Debye
        Ion. dipole          -0.4915 Ry au,         -1.2492 Debye
        Dipole              -73.0266 Ry au,       -185.6152 Debye
        Dipole field         -0.0605 Ry au, 

        Potential amp.        2.1509 Ry
        Total length         17.7855 bohr


     total cpu time spent up to now is     2236.5 secs

     total energy              =  -22139.40106409 Ry
     estimated scf accuracy    <     172.32090620 Ry

     iteration # 12     ecut=    40.00 Ry     beta= 0.40
     Davidson diagonalization with overlap

---- Real-time Memory Report at c_bands before calling an iterative solver
           523 MiB given to the printing process from OS
             0 MiB allocation reported by mallinfo(arena+hblkhd)
         91892 MiB available memory on the node where the printing process lives
------------------
     ethr =  1.00E-02,  avg # of iterations =  2.2

     negative rho (up, down):  4.374E-03 0.000E+00

     Adding external electric field

     Computed dipole along edir(1) : 
        Elec. dipole         -0.4349 Ry au,         -1.1055 Debye
        Ion. dipole          -0.4915 Ry au,         -1.2492 Debye
        Dipole              -68.2819 Ry au,       -173.5552 Debye
        Dipole field         -0.0565 Ry au, 

        Potential amp.        2.0111 Ry
        Total length         17.7855 bohr


     total cpu time spent up to now is     2308.6 secs

     total energy              =  -22145.28184368 Ry
     estimated scf accuracy    <      20.88555383 Ry

     iteration # 13     ecut=    40.00 Ry     beta= 0.40
     Davidson diagonalization with overlap

---- Real-time Memory Report at c_bands before calling an iterative solver
           523 MiB given to the printing process from OS
             0 MiB allocation reported by mallinfo(arena+hblkhd)
         91887 MiB available memory on the node where the printing process lives
------------------
     ethr =  2.18E-03,  avg # of iterations =  4.8

     negative rho (up, down):  3.715E-01 0.000E+00

     Adding external electric field

     Computed dipole along edir(1) : 
        Elec. dipole         -0.4305 Ry au,         -1.0941 Debye
        Ion. dipole          -0.4915 Ry au,         -1.2492 Debye
        Dipole              -73.6765 Ry au,       -187.2670 Debye
        Dipole field         -0.0610 Ry au, 

        Potential amp.        2.1700 Ry
        Total length         17.7855 bohr


     total cpu time spent up to now is     2384.4 secs

     total energy              =  -22143.13241438 Ry
     estimated scf accuracy    <       9.71748470 Ry

     iteration # 14     ecut=    40.00 Ry     beta= 0.40
     Davidson diagonalization with overlap

---- Real-time Memory Report at c_bands before calling an iterative solver
           523 MiB given to the printing process from OS
             0 MiB allocation reported by mallinfo(arena+hblkhd)
         91882 MiB available memory on the node where the printing process lives
------------------
     ethr =  1.01E-03,  avg # of iterations =  9.0

     negative rho (up, down):  3.776E-03 0.000E+00

     Adding external electric field

     Computed dipole along edir(1) : 
        Elec. dipole         -0.4357 Ry au,         -1.1074 Debye
        Ion. dipole          -0.4915 Ry au,         -1.2492 Debye
        Dipole              -67.3762 Ry au,       -171.2532 Debye
        Dipole field         -0.0558 Ry au, 

        Potential amp.        1.9844 Ry
        Total length         17.7855 bohr


     total cpu time spent up to now is     2515.8 secs

     total energy              =  -22131.34675714 Ry
     estimated scf accuracy    <      91.14530093 Ry

     iteration # 15     ecut=    40.00 Ry     beta= 0.40
     Davidson diagonalization with overlap

---- Real-time Memory Report at c_bands before calling an iterative solver
           523 MiB given to the printing process from OS
             0 MiB allocation reported by mallinfo(arena+hblkhd)
         91879 MiB available memory on the node where the printing process lives
------------------
     ethr =  1.01E-03,  avg # of iterations = 11.0

     negative rho (up, down):  3.525E-03 0.000E+00

     Adding external electric field

     Computed dipole along edir(1) : 
        Elec. dipole         -0.4361 Ry au,         -1.1084 Debye
        Ion. dipole          -0.4915 Ry au,         -1.2492 Debye
        Dipole              -66.8917 Ry au,       -170.0218 Debye
        Dipole field         -0.0554 Ry au, 

        Potential amp.        1.9702 Ry
        Total length         17.7855 bohr


     total cpu time spent up to now is     2619.1 secs

     total energy              =  -22144.92608437 Ry
     estimated scf accuracy    <       4.05819083 Ry

     iteration # 16     ecut=    40.00 Ry     beta= 0.40
     Davidson diagonalization with overlap

---- Real-time Memory Report at c_bands before calling an iterative solver
           523 MiB given to the printing process from OS
             0 MiB allocation reported by mallinfo(arena+hblkhd)
         91879 MiB available memory on the node where the printing process lives
------------------
     ethr =  4.23E-04,  avg # of iterations =  2.6

     negative rho (up, down):  3.182E-03 0.000E+00

     Adding external electric field

     Computed dipole along edir(1) : 
        Elec. dipole         -0.4362 Ry au,         -1.1087 Debye
        Ion. dipole          -0.4915 Ry au,         -1.2492 Debye
        Dipole              -66.7553 Ry au,       -169.6750 Debye
        Dipole field         -0.0553 Ry au, 

        Potential amp.        1.9662 Ry
        Total length         17.7855 bohr


     total cpu time spent up to now is     2690.9 secs

     total energy              =  -22144.29204973 Ry
     estimated scf accuracy    <       2.43038271 Ry

     iteration # 17     ecut=    40.00 Ry     beta= 0.40
     Davidson diagonalization with overlap

---- Real-time Memory Report at c_bands before calling an iterative solver
           523 MiB given to the printing process from OS
             0 MiB allocation reported by mallinfo(arena+hblkhd)
         91831 MiB available memory on the node where the printing process lives
------------------
     ethr =  2.53E-04,  avg # of iterations =  9.2

     negative rho (up, down):  3.263E-03 0.000E+00

     Adding external electric field

     Computed dipole along edir(1) : 
        Elec. dipole         -0.4347 Ry au,         -1.1050 Debye
        Ion. dipole          -0.4915 Ry au,         -1.2492 Debye
        Dipole              -68.5323 Ry au,       -174.1918 Debye
        Dipole field         -0.0567 Ry au, 

        Potential amp.        2.0185 Ry
        Total length         17.7855 bohr


     total cpu time spent up to now is     2778.1 secs

     total energy              =  -22144.23246352 Ry
     estimated scf accuracy    <       1.19796825 Ry

     iteration # 18     ecut=    40.00 Ry     beta= 0.40
     Davidson diagonalization with overlap

---- Real-time Memory Report at c_bands before calling an iterative solver
           523 MiB given to the printing process from OS
             0 MiB allocation reported by mallinfo(arena+hblkhd)
         91819 MiB available memory on the node where the printing process lives
------------------
     ethr =  1.25E-04,  avg # of iterations = 11.2

     negative rho (up, down):  3.142E-03 0.000E+00

     Adding external electric field

     Computed dipole along edir(1) : 
        Elec. dipole         -0.4349 Ry au,         -1.1053 Debye
        Ion. dipole          -0.4915 Ry au,         -1.2492 Debye
        Dipole              -68.3552 Ry au,       -173.7416 Debye
        Dipole field         -0.0566 Ry au, 

        Potential amp.        2.0133 Ry
        Total length         17.7855 bohr


     total cpu time spent up to now is     2863.8 secs

     total energy              =  -22144.19306039 Ry
     estimated scf accuracy    <       0.69337843 Ry

     iteration # 19     ecut=    40.00 Ry     beta= 0.40
     Davidson diagonalization with overlap

---- Real-time Memory Report at c_bands before calling an iterative solver
           523 MiB given to the printing process from OS
             0 MiB allocation reported by mallinfo(arena+hblkhd)
         91827 MiB available memory on the node where the printing process lives
------------------
     ethr =  7.22E-05,  avg # of iterations =  5.6

     negative rho (up, down):  3.140E-03 0.000E+00

     Adding external electric field

     Computed dipole along edir(1) : 
        Elec. dipole         -0.4344 Ry au,         -1.1043 Debye
        Ion. dipole          -0.4915 Ry au,         -1.2492 Debye
        Dipole              -68.8666 Ry au,       -175.0415 Debye
        Dipole field         -0.0570 Ry au, 

        Potential amp.        2.0283 Ry
        Total length         17.7855 bohr


     total cpu time spent up to now is     2939.3 secs

     total energy              =  -22144.04561146 Ry
     estimated scf accuracy    <       0.53099738 Ry

     iteration # 20     ecut=    40.00 Ry     beta= 0.40
     Davidson diagonalization with overlap

---- Real-time Memory Report at c_bands before calling an iterative solver
           524 MiB given to the printing process from OS
             0 MiB allocation reported by mallinfo(arena+hblkhd)
         91826 MiB available memory on the node where the printing process lives
------------------
     ethr =  5.53E-05,  avg # of iterations = 11.0

     negative rho (up, down):  3.221E-03 0.000E+00

     Adding external electric field

     Computed dipole along edir(1) : 
        Elec. dipole         -0.4343 Ry au,         -1.1038 Debye
        Ion. dipole          -0.4915 Ry au,         -1.2492 Debye
        Dipole              -69.0833 Ry au,       -175.5923 Debye
        Dipole field         -0.0572 Ry au, 

        Potential amp.        2.0347 Ry
        Total length         17.7855 bohr


     total cpu time spent up to now is     3028.2 secs

     total energy              =  -22143.94799021 Ry
     estimated scf accuracy    <       0.33567533 Ry

     iteration # 21     ecut=    40.00 Ry     beta= 0.40
     Davidson diagonalization with overlap

---- Real-time Memory Report at c_bands before calling an iterative solver
           524 MiB given to the printing process from OS
             0 MiB allocation reported by mallinfo(arena+hblkhd)
         91844 MiB available memory on the node where the printing process lives
------------------
     ethr =  3.50E-05,  avg # of iterations = 12.2

     negative rho (up, down):  3.272E-03 0.000E+00

     Adding external electric field

     Computed dipole along edir(1) : 
        Elec. dipole         -0.4344 Ry au,         -1.1041 Debye
        Ion. dipole          -0.4915 Ry au,         -1.2492 Debye
        Dipole              -68.9548 Ry au,       -175.2656 Debye
        Dipole field         -0.0571 Ry au, 

        Potential amp.        2.0309 Ry
        Total length         17.7855 bohr


     total cpu time spent up to now is     3118.5 secs

     total energy              =  -22143.98270830 Ry
     estimated scf accuracy    <       0.09435829 Ry

     iteration # 22     ecut=    40.00 Ry     beta= 0.40
     Davidson diagonalization with overlap

---- Real-time Memory Report at c_bands before calling an iterative solver
           524 MiB given to the printing process from OS
             0 MiB allocation reported by mallinfo(arena+hblkhd)
         91847 MiB available memory on the node where the printing process lives
------------------
     ethr =  9.83E-06,  avg # of iterations = 10.8

     negative rho (up, down):  3.058E-03 0.000E+00

     Adding external electric field

     Computed dipole along edir(1) : 
        Elec. dipole         -0.4342 Ry au,         -1.1037 Debye
        Ion. dipole          -0.4915 Ry au,         -1.2492 Debye
        Dipole              -69.1516 Ry au,       -175.7659 Debye
        Dipole field         -0.0573 Ry au, 

        Potential amp.        2.0367 Ry
        Total length         17.7855 bohr


     total cpu time spent up to now is     3205.8 secs

     total energy              =  -22143.91460191 Ry
     estimated scf accuracy    <       0.51668923 Ry

     iteration # 23     ecut=    40.00 Ry     beta= 0.40
     Davidson diagonalization with overlap

---- Real-time Memory Report at c_bands before calling an iterative solver
           524 MiB given to the printing process from OS
             0 MiB allocation reported by mallinfo(arena+hblkhd)
         91847 MiB available memory on the node where the printing process lives
------------------
     ethr =  9.83E-06,  avg # of iterations = 13.6

     negative rho (up, down):  2.949E-03 0.000E+00

     Adding external electric field

     Computed dipole along edir(1) : 
        Elec. dipole         -0.4350 Ry au,         -1.1056 Debye
        Ion. dipole          -0.4915 Ry au,         -1.2492 Debye
        Dipole              -68.2313 Ry au,       -173.4268 Debye
        Dipole field         -0.0565 Ry au, 

        Potential amp.        2.0096 Ry
        Total length         17.7855 bohr


     total cpu time spent up to now is     3299.0 secs

     total energy              =  -22144.01731187 Ry
     estimated scf accuracy    <       0.09799253 Ry

     iteration # 24     ecut=    40.00 Ry     beta= 0.40
     Davidson diagonalization with overlap

---- Real-time Memory Report at c_bands before calling an iterative solver
           524 MiB given to the printing process from OS
             0 MiB allocation reported by mallinfo(arena+hblkhd)
         91852 MiB available memory on the node where the printing process lives
------------------
     c_bands:  1 eigenvalues not converged
     c_bands:  1 eigenvalues not converged
     ethr =  9.83E-06,  avg # of iterations = 18.8

     negative rho (up, down):  2.953E-03 0.000E+00

     Adding external electric field

     Computed dipole along edir(1) : 
        Elec. dipole         -0.4347 Ry au,         -1.1050 Debye
        Ion. dipole          -0.4915 Ry au,         -1.2492 Debye
        Dipole              -68.5019 Ry au,       -174.1144 Debye
        Dipole field         -0.0567 Ry au, 

        Potential amp.        2.0176 Ry
        Total length         17.7855 bohr


     total cpu time spent up to now is     3401.7 secs

     total energy              =  -22144.01967047 Ry
     estimated scf accuracy    <       0.43960113 Ry

     iteration # 25     ecut=    40.00 Ry     beta= 0.40
     Davidson diagonalization with overlap

---- Real-time Memory Report at c_bands before calling an iterative solver
           524 MiB given to the printing process from OS
             0 MiB allocation reported by mallinfo(arena+hblkhd)
         91846 MiB available memory on the node where the printing process lives
------------------
     ethr =  9.83E-06,  avg # of iterations = 12.0

     negative rho (up, down):  2.995E-03 0.000E+00

     Adding external electric field

     Computed dipole along edir(1) : 
        Elec. dipole         -0.4346 Ry au,         -1.1047 Debye
        Ion. dipole          -0.4915 Ry au,         -1.2492 Debye
        Dipole              -68.6649 Ry au,       -174.5288 Debye
        Dipole field         -0.0569 Ry au, 

        Potential amp.        2.0224 Ry
        Total length         17.7855 bohr


     total cpu time spent up to now is     3485.4 secs

     total energy              =  -22143.99398192 Ry
     estimated scf accuracy    <       0.24301793 Ry

     iteration # 26     ecut=    40.00 Ry     beta= 0.40
     Davidson diagonalization with overlap

---- Real-time Memory Report at c_bands before calling an iterative solver
           524 MiB given to the printing process from OS
             0 MiB allocation reported by mallinfo(arena+hblkhd)
         91845 MiB available memory on the node where the printing process lives
------------------
     ethr =  9.83E-06,  avg # of iterations = 12.8

     negative rho (up, down):  3.045E-03 0.000E+00

     Adding external electric field

     Computed dipole along edir(1) : 
        Elec. dipole         -0.4345 Ry au,         -1.1045 Debye
        Ion. dipole          -0.4915 Ry au,         -1.2492 Debye
        Dipole              -68.7593 Ry au,       -174.7687 Debye
        Dipole field         -0.0569 Ry au, 

        Potential amp.        2.0252 Ry
        Total length         17.7855 bohr


     total cpu time spent up to now is     3571.2 secs

     total energy              =  -22143.97795779 Ry
     estimated scf accuracy    <       0.12400905 Ry

     iteration # 27     ecut=    40.00 Ry     beta= 0.40
     Davidson diagonalization with overlap

---- Real-time Memory Report at c_bands before calling an iterative solver
           524 MiB given to the printing process from OS
             0 MiB allocation reported by mallinfo(arena+hblkhd)
         91840 MiB available memory on the node where the printing process lives
------------------
     ethr =  9.83E-06,  avg # of iterations = 12.0

     negative rho (up, down):  3.064E-03 0.000E+00

     Adding external electric field

     Computed dipole along edir(1) : 
        Elec. dipole         -0.4345 Ry au,         -1.1044 Debye
        Ion. dipole          -0.4915 Ry au,         -1.2492 Debye
        Dipole              -68.7755 Ry au,       -174.8098 Debye
        Dipole field         -0.0569 Ry au, 

        Potential amp.        2.0257 Ry
        Total length         17.7855 bohr


     total cpu time spent up to now is     3655.8 secs

     total energy              =  -22143.97897411 Ry
     estimated scf accuracy    <       0.03343485 Ry

     iteration # 28     ecut=    40.00 Ry     beta= 0.40
     Davidson diagonalization with overlap

---- Real-time Memory Report at c_bands before calling an iterative solver
           524 MiB given to the printing process from OS
             0 MiB allocation reported by mallinfo(arena+hblkhd)
         91822 MiB available memory on the node where the printing process lives
------------------
     ethr =  3.48E-06,  avg # of iterations =  8.6

     negative rho (up, down):  3.120E-03 0.000E+00

     Adding external electric field

     Computed dipole along edir(1) : 
        Elec. dipole         -0.4345 Ry au,         -1.1044 Debye
        Ion. dipole          -0.4915 Ry au,         -1.2492 Debye
        Dipole              -68.7878 Ry au,       -174.8412 Debye
        Dipole field         -0.0570 Ry au, 

        Potential amp.        2.0260 Ry
        Total length         17.7855 bohr


     total cpu time spent up to now is     3734.2 secs

     total energy              =  -22143.97518172 Ry
     estimated scf accuracy    <       0.02356752 Ry

     iteration # 29     ecut=    40.00 Ry     beta= 0.40
     Davidson diagonalization with overlap

---- Real-time Memory Report at c_bands before calling an iterative solver
           525 MiB given to the printing process from OS
             0 MiB allocation reported by mallinfo(arena+hblkhd)
         91815 MiB available memory on the node where the printing process lives
------------------
     ethr =  2.45E-06,  avg # of iterations = 14.4

     negative rho (up, down):  3.128E-03 0.000E+00

     Adding external electric field

     Computed dipole along edir(1) : 
        Elec. dipole         -0.4345 Ry au,         -1.1044 Debye
        Ion. dipole          -0.4915 Ry au,         -1.2492 Debye
        Dipole              -68.7802 Ry au,       -174.8218 Debye
        Dipole field         -0.0570 Ry au, 

        Potential amp.        2.0258 Ry
        Total length         17.7855 bohr


     total cpu time spent up to now is     3823.1 secs

     total energy              =  -22143.97656530 Ry
     estimated scf accuracy    <       0.00146088 Ry

     iteration # 30     ecut=    40.00 Ry     beta= 0.40
     Davidson diagonalization with overlap

---- Real-time Memory Report at c_bands before calling an iterative solver
           525 MiB given to the printing process from OS
             0 MiB allocation reported by mallinfo(arena+hblkhd)
         91825 MiB available memory on the node where the printing process lives
------------------
     ethr =  1.52E-07,  avg # of iterations =  1.0

     negative rho (up, down):  3.145E-03 0.000E+00

     Adding external electric field

     Computed dipole along edir(1) : 
        Elec. dipole         -0.4345 Ry au,         -1.1044 Debye
        Ion. dipole          -0.4915 Ry au,         -1.2492 Debye
        Dipole              -68.7801 Ry au,       -174.8215 Debye
        Dipole field         -0.0570 Ry au, 

        Potential amp.        2.0258 Ry
        Total length         17.7855 bohr


     total cpu time spent up to now is     3880.8 secs

     total energy              =  -22143.97667786 Ry
     estimated scf accuracy    <       0.00212259 Ry

     iteration # 31     ecut=    40.00 Ry     beta= 0.40
     Davidson diagonalization with overlap

---- Real-time Memory Report at c_bands before calling an iterative solver
           525 MiB given to the printing process from OS
             0 MiB allocation reported by mallinfo(arena+hblkhd)
         91824 MiB available memory on the node where the printing process lives
------------------
     ethr =  1.52E-07,  avg # of iterations =  2.0

     negative rho (up, down):  3.180E-03 0.000E+00

     Adding external electric field

     Computed dipole along edir(1) : 
        Elec. dipole         -0.4345 Ry au,         -1.1044 Debye
        Ion. dipole          -0.4915 Ry au,         -1.2492 Debye
        Dipole              -68.7744 Ry au,       -174.8072 Debye
        Dipole field         -0.0569 Ry au, 

        Potential amp.        2.0256 Ry
        Total length         17.7855 bohr


     total cpu time spent up to now is     3951.2 secs

     total energy              =  -22143.97640799 Ry
     estimated scf accuracy    <       0.00210471 Ry

     iteration # 32     ecut=    40.00 Ry     beta= 0.40
     Davidson diagonalization with overlap

---- Real-time Memory Report at c_bands before calling an iterative solver
           525 MiB given to the printing process from OS
             0 MiB allocation reported by mallinfo(arena+hblkhd)
         91803 MiB available memory on the node where the printing process lives
------------------
     ethr =  1.52E-07,  avg # of iterations =  2.2

     negative rho (up, down):  3.195E-03 0.000E+00

     Adding external electric field

     Computed dipole along edir(1) : 
        Elec. dipole         -0.4345 Ry au,         -1.1044 Debye
        Ion. dipole          -0.4915 Ry au,         -1.2492 Debye
        Dipole              -68.7941 Ry au,       -174.8572 Debye
        Dipole field         -0.0570 Ry au, 

        Potential amp.        2.0262 Ry
        Total length         17.7855 bohr


     total cpu time spent up to now is     4021.9 secs

     total energy              =  -22143.97648174 Ry
     estimated scf accuracy    <       0.00018528 Ry

     iteration # 33     ecut=    40.00 Ry     beta= 0.40
     Davidson diagonalization with overlap

---- Real-time Memory Report at c_bands before calling an iterative solver
           525 MiB given to the printing process from OS
             0 MiB allocation reported by mallinfo(arena+hblkhd)
         91783 MiB available memory on the node where the printing process lives
------------------
     ethr =  1.93E-08,  avg # of iterations =  3.2

     negative rho (up, down):  3.192E-03 0.000E+00

     Adding external electric field

     Computed dipole along edir(1) : 
        Elec. dipole         -0.4345 Ry au,         -1.1044 Debye
        Ion. dipole          -0.4915 Ry au,         -1.2492 Debye
        Dipole              -68.7844 Ry au,       -174.8325 Debye
        Dipole field         -0.0570 Ry au, 

        Potential amp.        2.0259 Ry
        Total length         17.7855 bohr


     total cpu time spent up to now is     4094.0 secs

     total energy              =  -22143.97650523 Ry
     estimated scf accuracy    <       0.00014389 Ry

     iteration # 34     ecut=    40.00 Ry     beta= 0.40
     Davidson diagonalization with overlap

---- Real-time Memory Report at c_bands before calling an iterative solver
           525 MiB given to the printing process from OS
             0 MiB allocation reported by mallinfo(arena+hblkhd)
         91751 MiB available memory on the node where the printing process lives
------------------
     ethr =  1.50E-08,  avg # of iterations =  1.2

     negative rho (up, down):  3.188E-03 0.000E+00

     Adding external electric field

     Computed dipole along edir(1) : 
        Elec. dipole         -0.4345 Ry au,         -1.1044 Debye
        Ion. dipole          -0.4915 Ry au,         -1.2492 Debye
        Dipole              -68.7860 Ry au,       -174.8365 Debye
        Dipole field         -0.0570 Ry au, 

        Potential amp.        2.0260 Ry
        Total length         17.7855 bohr


     total cpu time spent up to now is     4154.2 secs

     total energy              =  -22143.97650710 Ry
     estimated scf accuracy    <       0.00001905 Ry

     iteration # 35     ecut=    40.00 Ry     beta= 0.40
     Davidson diagonalization with overlap

---- Real-time Memory Report at c_bands before calling an iterative solver
           525 MiB given to the printing process from OS
             0 MiB allocation reported by mallinfo(arena+hblkhd)
         91769 MiB available memory on the node where the printing process lives
------------------
     ethr =  1.98E-09,  avg # of iterations =  2.0

     negative rho (up, down):  3.189E-03 0.000E+00

     Adding external electric field

     Computed dipole along edir(1) : 
        Elec. dipole         -0.4345 Ry au,         -1.1044 Debye
        Ion. dipole          -0.4915 Ry au,         -1.2492 Debye
        Dipole              -68.7846 Ry au,       -174.8330 Debye
        Dipole field         -0.0570 Ry au, 

        Potential amp.        2.0259 Ry
        Total length         17.7855 bohr


     total cpu time spent up to now is     4225.1 secs

     total energy              =  -22143.97650919 Ry
     estimated scf accuracy    <       0.00000155 Ry

     iteration # 36     ecut=    40.00 Ry     beta= 0.40
     Davidson diagonalization with overlap

---- Real-time Memory Report at c_bands before calling an iterative solver
           525 MiB given to the printing process from OS
             0 MiB allocation reported by mallinfo(arena+hblkhd)
         91798 MiB available memory on the node where the printing process lives
------------------
     ethr =  1.61E-10,  avg # of iterations =  2.2

     negative rho (up, down):  3.189E-03 0.000E+00

     Adding external electric field

     Computed dipole along edir(1) : 
        Elec. dipole         -0.4345 Ry au,         -1.1044 Debye
        Ion. dipole          -0.4915 Ry au,         -1.2492 Debye
        Dipole              -68.7948 Ry au,       -174.8590 Debye
        Dipole field         -0.0570 Ry au, 

        Potential amp.        2.0262 Ry
        Total length         17.7855 bohr


     total cpu time spent up to now is     4296.1 secs

     End of self-consistent calculation

          k = 0.0000 0.0000 0.0000 ( 64855 PWs)   bands (ev):

  -129.2498-129.2490-129.2473-129.2465-129.0646-129.0636-129.0636-129.0630
  -129.0627-129.0626-129.0621-129.0616-127.4532-127.4521-127.4518-127.4509
  -127.4507-127.4506-127.4500-127.4497-127.4496-127.4495-127.4486-127.4486
  -127.3277-127.3268-127.3267-127.3259-127.2148-127.2146-127.2140-127.2138
  -127.2137-127.2137-127.2129-127.2128-126.6359-126.6358-126.6351-126.6350
  -126.6349-126.6348-126.6342-126.6339-125.7242-125.7231-125.7228-125.7216
   -83.5862 -83.5851 -83.5836 -83.5825 -83.5430 -83.5419 -83.5416 -83.5412
   -83.5410 -83.5406 -83.5405 -83.5402 -83.5399 -83.5395 -83.5282 -83.5280
   -83.5271 -83.5271 -83.5153 -83.5143 -83.3362 -83.3330 -83.3320 -83.3305
   -83.3295 -83.3235 -83.3233 -83.3106 -82.3703 -82.3697 -82.3691 -82.3687
   -82.3687 -82.3687 -82.3676 -82.3676 -81.6112 -81.6104 -81.6101 -81.6099
   -81.6098 -81.6095 -81.6081 -81.6079 -81.6075 -81.6068 -81.6064 -81.6064
   -81.6063 -81.6053 -81.6052 -81.6046 -81.6029 -81.6028 -81.6026 -81.6019
   -81.6016 -81.6006 -81.6003 -81.5996 -81.5992 -81.5987 -81.5984 -81.5978
   -81.5978 -81.5971 -81.5970 -81.5967 -81.5967 -81.5856 -81.5852 -81.5844
   -81.4902 -81.4790 -81.4780 -81.4780 -81.4780 -81.4780 -81.4770 -81.4745
   -81.4736 -81.4736 -81.4727 -81.4657 -81.3812 -81.3810 -81.3689 -81.3689
   -81.3687 -81.3687 -81.3664 -81.3662 -81.3655 -81.3654 -81.3653 -81.3652
   -81.3644 -81.3643 -81.3626 -81.3624 -81.3617 -81.3615 -81.3615 -81.3614
   -81.3606 -81.3605 -81.3566 -81.3564 -80.8340 -80.8337 -80.8216 -80.8216
   -80.8214 -80.8213 -80.8092 -80.8089 -80.7877 -80.7876 -80.7867 -80.7867
   -80.7866 -80.7866 -80.7858 -80.7856 -80.7695 -80.7693 -80.7686 -80.7686
   -80.7684 -80.7683 -80.7677 -80.7674 -79.9513 -79.9393 -79.9391 -79.9271
   -79.9052 -79.9041 -79.9038 -79.9026 -79.6862 -79.6851 -79.6848 -79.6836
   -11.5832 -11.1495 -11.1156 -10.8407 -10.8251 -10.7568 -10.7149 -10.7149
   -10.6626 -10.6530 -10.6530 -10.5955 -10.5865 -10.5864 -10.5493 -10.5492
   -10.5257 -10.4898 -10.4580 -10.4580 -10.3462 -10.3462 -10.3277 -10.3277
   -10.2820 -10.2586 -10.2517 -10.2516 -10.1807 -10.1734 -10.1679 -10.1678
   -10.1554 -10.0854 -10.0337 -10.0336 -10.0139  -9.9728  -9.8591  -9.8427
    -9.8416  -9.7949  -9.6430  -9.6334  -9.6331  -9.6330  -9.4888  -9.4373
    -9.4372  -9.4301  -9.4154  -9.4153  -9.4077  -9.4076  -9.3327  -9.3300
    -9.3161  -9.3148  -9.3147  -9.3077  -9.2449  -9.1590  -9.1590  -9.1470
    -9.1435  -9.1268  -9.0520  -9.0480  -8.9632  -8.9632  -8.9323  -8.9012
    -8.8955  -8.8767  -8.8194  -8.7955  -8.7955  -8.7694  -8.7694  -8.7673
    -8.7613  -8.7604  -8.7354  -8.7354  -8.7271  -8.7202  -8.7108  -8.7108
    -8.6783  -8.6710  -8.6304  -8.6304  -8.6223  -8.6015  -8.5946  -8.5897
    -8.5897  -8.5677  -8.5676  -8.5656  -8.5605  -8.5601  -8.5601  -8.5120
    -8.5120  -8.5030  -8.4691  -8.4691  -8.4682  -8.4437  -8.4437  -8.4385
    -8.4257  -8.4256  -8.4124  -8.3863  -8.3862  -8.3619  -8.3619  -8.3489
    -8.3489  -8.3270  -8.3250  -8.3164  -8.3022  -8.3022  -8.2869  -8.2769
    -8.2768  -8.2645  -8.2509  -8.2330  -8.2330  -8.2238  -8.2095  -8.2094
    -8.2044  -8.1938  -8.1878  -8.1867  -8.1832  -8.1832  -8.1451  -8.1377
    -8.1369  -8.1369  -8.1338  -8.1194  -8.0924  -8.0924  -8.0913  -8.0913
    -8.0735  -8.0734  -8.0634  -8.0634  -8.0568  -8.0565  -8.0563  -8.0517
    -8.0391  -8.0252  -8.0235  -8.0235  -8.0176  -8.0176  -8.0080  -8.0050
    -7.9926  -7.9827  -7.9827  -7.9807  -7.9538  -7.9538  -7.9492  -7.9348
    -7.9285  -7.9285  -7.9069  -7.8592  -7.8591  -7.8308  -7.8270  -7.8060
    -7.7993  -7.7964  -7.7849  -7.7467  -7.7416  -7.7355  -7.7269  -7.6988
    -7.6308  -7.6307  -7.6159  -7.6158  -7.5442  -7.5441  -7.5287  -7.5287
    -7.5107  -7.5107  -7.5011  -7.4992  -7.4969  -7.4966  -7.4863  -7.4862
    -7.4715  -7.4714  -7.4523  -7.4341  -7.4162  -7.4162  -7.4151  -7.4151
    -7.4074  -7.3689  -7.3681  -7.3681  -7.3544  -7.3287  -7.2857  -7.2856
    -7.2837  -7.2595  -7.2509  -7.1936  -7.1932  -7.1424  -7.1140  -7.0333
    -6.7921  -6.7770  -6.7769  -6.7577  -6.7441  -6.6750  -6.6748  -6.5983
    -6.5982  -6.4229  -6.4186  -6.4186  -6.3744  -6.3743  -6.3454  -6.3298
    -6.3129  -6.3090  -6.3072  -6.1498  -6.1498  -6.1385  -5.9195  -5.3933
    -5.3932  -4.9509  -4.9198  -4.7192  -4.7120  -4.7120  -4.0700  -4.0699
    -3.7300  -3.6997  -3.6218  -3.5706  -3.5705  -3.4391  -3.4245  -3.3887
    -3.3886  -3.1881  -3.0964  -2.3804  -2.1229  -2.1228  -2.0932  -2.0465
    -1.8265  -1.8264  -1.6527  -1.4406  -1.3552  -1.3552  -1.3115  -1.2259
    -1.1788  -1.1703  -1.1073  -0.5557  -0.5008  -0.3365  -0.2225  -0.2225
    -0.1593   0.0183   0.0183   0.1719   0.2729   0.2729   0.4439   0.4790
     0.5006   0.8145   0.8145   0.8243   1.0362   1.0362   1.0732   1.1071
     1.9149   2.0404   2.0496   2.0544   2.0835   2.2117   2.2118   2.3271
     2.3743   2.3743   2.4412   2.4412   2.6229   2.6230   2.8630   2.8696
     3.0042   3.0133   3.0133   3.1568   3.1569   3.2290   3.6614   3.6615
     3.6794   3.7112   3.7112   3.9012   4.0403   4.0404   4.0557   4.0558
     4.0630   4.0735   4.0881   4.2305   4.2621   4.3484   4.3485   4.4079
     4.4237   4.4570   4.4571   4.7179   4.7301   4.7587   4.7587   4.9182
     4.9806   5.0596   5.1711   5.1751   5.1752   5.2145   5.3684   5.3684
     5.5126   5.5127   5.5313   5.7441   5.7847   5.8773   5.9411   5.9412
     5.9623   6.0454   6.0736   6.0737   6.1231   6.1353   6.1600   6.5137

     occupation numbers 
     1.0000   1.0000   1.0000   1.0000   1.0000   1.0000   1.0000   1.0000
     1.0000   1.0000   1.0000   1.0000   1.0000   1.0000   1.0000   1.0000
     1.0000   1.0000   1.0000   1.0000   1.0000   1.0000   1.0000   1.0000
     1.0000   1.0000   1.0000   1.0000   1.0000   1.0000   1.0000   1.0000
     1.0000   1.0000   1.0000   1.0000   1.0000   1.0000   1.0000   1.0000
     1.0000   1.0000   1.0000   1.0000   1.0000   1.0000   1.0000   1.0000
     1.0000   1.0000   1.0000   1.0000   1.0000   1.0000   1.0000   1.0000
     1.0000   1.0000   1.0000   1.0000   1.0000   1.0000   1.0000   1.0000
     1.0000   1.0000   1.0000   1.0000   1.0000   1.0000   1.0000   1.0000
     1.0000   1.0000   1.0000   1.0000   1.0000   1.0000   1.0000   1.0000
     1.0000   1.0000   1.0000   1.0000   1.0000   1.0000   1.0000   1.0000
     1.0000   1.0000   1.0000   1.0000   1.0000   1.0000   1.0000   1.0000
     1.0000   1.0000   1.0000   1.0000   1.0000   1.0000   1.0000   1.0000
     1.0000   1.0000   1.0000   1.0000   1.0000   1.0000   1.0000   1.0000
     1.0000   1.0000   1.0000   1.0000   1.0000   1.0000   1.0000   1.0000
     1.0000   1.0000   1.0000   1.0000   1.0000   1.0000   1.0000   1.0000
     1.0000   1.0000   1.0000   1.0000   1.0000   1.0000   1.0000   1.0000
     1.0000   1.0000   1.0000   1.0000   1.0000   1.0000   1.0000   1.0000
     1.0000   1.0000   1.0000   1.0000   1.0000   1.0000   1.0000   1.0000
     1.0000   1.0000   1.0000   1.0000   1.0000   1.0000   1.0000   1.0000
     1.0000   1.0000   1.0000   1.0000   1.0000   1.0000   1.0000   1.0000
     1.0000   1.0000   1.0000   1.0000   1.0000   1.0000   1.0000   1.0000
     1.0000   1.0000   1.0000   1.0000   1.0000   1.0000   1.0000   1.0000
     1.0000   1.0000   1.0000   1.0000   1.0000   1.0000   1.0000   1.0000
     1.0000   1.0000   1.0000   1.0000   1.0000   1.0000   1.0000   1.0000
     1.0000   1.0000   1.0000   1.0000   1.0000   1.0000   1.0000   1.0000
     1.0000   1.0000   1.0000   1.0000   1.0000   1.0000   1.0000   1.0000
     1.0000   1.0000   1.0000   1.0000   1.0000   1.0000   1.0000   1.0000
     1.0000   1.0000   1.0000   1.0000   1.0000   1.0000   1.0000   1.0000
     1.0000   1.0000   1.0000   1.0000   1.0000   1.0000   1.0000   1.0000
     1.0000   1.0000   1.0000   1.0000   1.0000   1.0000   1.0000   1.0000
     1.0000   1.0000   1.0000   1.0000   1.0000   1.0000   1.0000   1.0000
     1.0000   1.0000   1.0000   1.0000   1.0000   1.0000   1.0000   1.0000
     1.0000   1.0000   1.0000   1.0000   1.0000   1.0000   1.0000   1.0000
     1.0000   1.0000   1.0000   1.0000   1.0000   1.0000   1.0000   1.0000
     1.0000   1.0000   1.0000   1.0000   1.0000   1.0000   1.0000   1.0000
     1.0000   1.0000   1.0000   1.0000   1.0000   1.0000   1.0000   1.0000
     1.0000   1.0000   1.0000   1.0000   1.0000   1.0000   1.0000   1.0000
     1.0000   1.0000   1.0000   1.0000   1.0000   1.0000   1.0000   1.0000
     1.0000   1.0000   1.0000   1.0000   1.0000   1.0000   1.0000   1.0000
     1.0000   1.0000   1.0000   1.0000   1.0000   1.0000   1.0000   1.0000
     1.0000   1.0000   1.0000   1.0000   1.0000   1.0000   1.0000   1.0000
     1.0000   1.0000   1.0000   1.0000   1.0000   1.0000   1.0000   1.0000
     1.0000   1.0000   1.0000   1.0000   1.0000   1.0000   1.0000   1.0000
     1.0000   1.0000   1.0000   1.0000   1.0000   1.0000   1.0000   1.0000
     1.0000   1.0000   1.0000   1.0000   1.0000   1.0000   1.0000   1.0000
     1.0000   1.0000   1.0000   1.0000   1.0000   1.0000   1.0000   1.0000
     1.0000   1.0000   1.0000   1.0000   1.0000   1.0000   1.0000   1.0000
     1.0000   1.0000   1.0000   1.0000   1.0000   1.0000   1.0000   1.0000
     1.0000   1.0000   1.0000   1.0000   1.0000   1.0000   1.0000   1.0000
     1.0000   1.0000   1.0000   1.0000   1.0000   1.0000   1.0000   1.0000
     1.0000   1.0000   1.0000   1.0000   1.0000   1.0000   1.0000   1.0000
     1.0000   1.0000   1.0000   1.0000   1.0000   1.0000   1.0000   1.0000
     1.0000   1.0000   1.0000   1.0000   1.0000   1.0000   1.0000   1.0000
     1.0000   1.0000   1.0000   1.0000   1.0000   1.0000   1.0000   1.0000
     1.0000   1.0000   1.0000   1.0000   1.0000   1.0000   1.0000   1.0000
     1.0000   1.0000   1.0000   1.0000   1.0000   1.0000   1.0000   1.0000
     1.0000   1.0000   1.0000   1.0000   1.0000   1.0000   1.0000   1.0000
     1.0000   1.0000   1.0000   1.0000   1.0000   1.0000   1.0000   1.0000
     1.0001   1.0001   1.0021   1.0294   1.0568   1.0568   1.0711   1.0825
     1.0676   1.0627   0.9998   0.0200   0.0090   0.0005   0.0000   0.0000
     0.0000   0.0000   0.0000   0.0000   0.0000   0.0000   0.0000   0.0000
     0.0000   0.0000   0.0000   0.0000   0.0000   0.0000   0.0000   0.0000
     0.0000   0.0000   0.0000   0.0000   0.0000   0.0000   0.0000   0.0000
     0.0000   0.0000   0.0000   0.0000   0.0000   0.0000   0.0000   0.0000
     0.0000   0.0000   0.0000   0.0000   0.0000   0.0000   0.0000   0.0000
     0.0000   0.0000   0.0000   0.0000   0.0000   0.0000   0.0000   0.0000
     0.0000   0.0000   0.0000   0.0000   0.0000   0.0000   0.0000   0.0000
     0.0000   0.0000   0.0000   0.0000   0.0000   0.0000   0.0000   0.0000
     0.0000   0.0000   0.0000   0.0000   0.0000   0.0000   0.0000   0.0000
     0.0000   0.0000   0.0000   0.0000   0.0000   0.0000   0.0000   0.0000
     0.0000   0.0000   0.0000   0.0000   0.0000   0.0000   0.0000   0.0000

          k = 0.0000 0.3849 0.0000 ( 64840 PWs)   bands (ev):

  -129.2498-129.2490-129.2473-129.2465-129.0646-129.0637-129.0635-129.0630
  -129.0629-129.0622-129.0621-129.0617-127.4532-127.4523-127.4516-127.4509
  -127.4507-127.4505-127.4501-127.4499-127.4494-127.4492-127.4487-127.4486
  -127.3276-127.3272-127.3263-127.3260-127.2148-127.2145-127.2143-127.2141
  -127.2135-127.2133-127.2130-127.2129-126.6358-126.6357-126.6355-126.6353
  -126.6346-126.6344-126.6343-126.6340-125.7242-125.7233-125.7227-125.7217
   -83.5862 -83.5852 -83.5835 -83.5826 -83.5429 -83.5420 -83.5415 -83.5411
   -83.5410 -83.5402 -83.5401 -83.5396 -83.5393 -83.5382 -83.5345 -83.5335
   -83.5217 -83.5207 -83.5170 -83.5160 -83.3346 -83.3330 -83.3321 -83.3305
   -83.3296 -83.3296 -83.3171 -83.3122 -82.3702 -82.3696 -82.3693 -82.3691
   -82.3685 -82.3683 -82.3677 -82.3677 -81.6111 -81.6101 -81.6093 -81.6087
   -81.6086 -81.6083 -81.6079 -81.6079 -81.6074 -81.6070 -81.6068 -81.6062
   -81.6059 -81.6054 -81.6053 -81.6045 -81.6042 -81.6041 -81.6036 -81.6036
   -81.6026 -81.6019 -81.6017 -81.6009 -81.6007 -81.6001 -81.5994 -81.5989
   -81.5984 -81.5979 -81.5917 -81.5914 -81.5906 -81.5872 -81.5868 -81.5860
   -81.4886 -81.4841 -81.4789 -81.4784 -81.4775 -81.4771 -81.4744 -81.4740
   -81.4732 -81.4728 -81.4719 -81.4674 -81.3796 -81.3794 -81.3751 -81.3749
   -81.3663 -81.3661 -81.3658 -81.3657 -81.3650 -81.3648 -81.3645 -81.3644
   -81.3628 -81.3626 -81.3625 -81.3623 -81.3620 -81.3619 -81.3612 -81.3610
   -81.3607 -81.3606 -81.3583 -81.3581 -80.8323 -80.8321 -80.8278 -80.8275
   -80.8154 -80.8151 -80.8108 -80.8106 -80.7876 -80.7875 -80.7872 -80.7870
   -80.7863 -80.7862 -80.7859 -80.7857 -80.7694 -80.7692 -80.7691 -80.7688
   -80.7681 -80.7679 -80.7678 -80.7675 -79.9497 -79.9452 -79.9332 -79.9287
   -79.9051 -79.9043 -79.9036 -79.9026 -79.6862 -79.6853 -79.6846 -79.6836
   -11.4243 -11.0554 -11.0402 -11.0102 -10.8458 -10.8167 -10.8125 -10.7939
   -10.7478 -10.7297 -10.7055 -10.6550 -10.6338 -10.5646 -10.5304 -10.5197
   -10.5144 -10.4753 -10.4692 -10.3500 -10.3235 -10.3121 -10.3049 -10.2925
   -10.2875 -10.2845 -10.2672 -10.2147 -10.2080 -10.1980 -10.1878 -10.1864
   -10.1404 -10.1344 -10.0611 -10.0294  -9.9774  -9.9735  -9.8188  -9.7795
    -9.7302  -9.7261  -9.6673  -9.6532  -9.5976  -9.5842  -9.5666  -9.4674
    -9.4436  -9.4116  -9.4077  -9.3804  -9.3613  -9.3468  -9.3456  -9.3278
    -9.3261  -9.3202  -9.3048  -9.2882  -9.2776  -9.2533  -9.1721  -9.1581
    -9.1528  -9.0493  -9.0043  -8.9943  -8.9942  -8.9722  -8.9277  -8.8883
    -8.8872  -8.8867  -8.8682  -8.8557  -8.8447  -8.8359  -8.8260  -8.8177
    -8.7930  -8.7869  -8.7833  -8.7524  -8.7502  -8.7376  -8.7255  -8.7157
    -8.7098  -8.7010  -8.6790  -8.6601  -8.6532  -8.6361  -8.6349  -8.6252
    -8.6161  -8.6033  -8.5800  -8.5733  -8.5570  -8.5466  -8.5374  -8.5243
    -8.5138  -8.5112  -8.4925  -8.4842  -8.4724  -8.4447  -8.4403  -8.4244
    -8.4195  -8.4133  -8.4070  -8.3920  -8.3618  -8.3538  -8.3537  -8.3363
    -8.3285  -8.3209  -8.3204  -8.3138  -8.3078  -8.2906  -8.2872  -8.2579
    -8.2373  -8.2361  -8.2357  -8.2298  -8.2201  -8.2164  -8.1980  -8.1973
    -8.1946  -8.1905  -8.1696  -8.1552  -8.1541  -8.1520  -8.1497  -8.1469
    -8.1260  -8.1195  -8.1139  -8.1122  -8.1027  -8.1012  -8.0953  -8.0921
    -8.0917  -8.0765  -8.0592  -8.0556  -8.0505  -8.0498  -8.0437  -8.0366
    -8.0252  -8.0220  -8.0208  -8.0149  -8.0020  -8.0018  -7.9967  -7.9853
    -7.9814  -7.9526  -7.9491  -7.9425  -7.9371  -7.9354  -7.9188  -7.9004
    -7.8995  -7.8845  -7.8798  -7.8596  -7.8565  -7.8509  -7.8477  -7.8474
    -7.8270  -7.8128  -7.8078  -7.7834  -7.7624  -7.7609  -7.7497  -7.7200
    -7.6915  -7.6483  -7.6364  -7.6057  -7.5919  -7.5580  -7.5516  -7.5350
    -7.5313  -7.5057  -7.4868  -7.4502  -7.4403  -7.4401  -7.4336  -7.4276
    -7.4202  -7.4000  -7.3964  -7.3954  -7.3904  -7.3883  -7.3778  -7.3710
    -7.3647  -7.3467  -7.3389  -7.3321  -7.3234  -7.3032  -7.2960  -7.2905
    -7.2770  -7.1992  -7.1948  -7.1750  -7.1398  -6.9883  -6.9182  -6.9155
    -6.8961  -6.8508  -6.7941  -6.7585  -6.7199  -6.6589  -6.6378  -6.5570
    -6.5113  -6.4919  -6.4580  -6.4235  -6.4113  -6.3886  -6.3255  -6.3241
    -6.3135  -6.2899  -6.2595  -6.1835  -6.1404  -6.0557  -5.9908  -5.7872
    -5.5320  -5.2241  -5.1898  -5.0296  -4.8793  -4.6257  -4.5423  -4.4865
    -4.1351  -3.8626  -3.6931  -3.5747  -3.5154  -3.4611  -3.2879  -3.2590
    -3.0642  -2.9332  -2.7623  -2.7457  -2.4450  -2.2048  -2.1625  -1.9671
    -1.8252  -1.7588  -1.3483  -1.1422  -1.0143  -0.9918  -0.9211  -0.9136
    -0.9099  -0.9001  -0.5325  -0.4422  -0.4017  -0.3187  -0.1817  -0.0867
     0.0510   0.1009   0.1424   0.2819   0.4048   0.5244   0.6291   0.7023
     0.8484   0.9661   0.9792   0.9941   0.9955   1.0789   1.2376   1.3080
     1.3162   1.4035   1.4640   1.4670   1.7011   1.8137   1.8565   1.8853
     2.0730   2.1074   2.1971   2.4360   2.4957   2.5170   2.5455   2.6732
     2.7569   2.9136   3.0195   3.1702   3.1918   3.2110   3.2953   3.3180
     3.3661   3.3726   3.4228   3.5822   3.5851   3.5868   3.7157   3.8541
     3.9254   3.9571   3.9885   3.9993   4.1861   4.2261   4.2777   4.3632
     4.4295   4.4833   4.5547   4.6930   4.7499   4.7998   4.8558   4.9199
     4.9993   5.0437   5.2477   5.2566   5.3613   5.3750   5.4521   5.6351
     5.6516   5.7399   5.7589   5.7655   5.8454   5.9068   5.9198   6.0352
     6.1328   6.1636   6.2693   6.2813   6.3681   6.3812   6.3907   6.4008

     occupation numbers 
     1.0000   1.0000   1.0000   1.0000   1.0000   1.0000   1.0000   1.0000
     1.0000   1.0000   1.0000   1.0000   1.0000   1.0000   1.0000   1.0000
     1.0000   1.0000   1.0000   1.0000   1.0000   1.0000   1.0000   1.0000
     1.0000   1.0000   1.0000   1.0000   1.0000   1.0000   1.0000   1.0000
     1.0000   1.0000   1.0000   1.0000   1.0000   1.0000   1.0000   1.0000
     1.0000   1.0000   1.0000   1.0000   1.0000   1.0000   1.0000   1.0000
     1.0000   1.0000   1.0000   1.0000   1.0000   1.0000   1.0000   1.0000
     1.0000   1.0000   1.0000   1.0000   1.0000   1.0000   1.0000   1.0000
     1.0000   1.0000   1.0000   1.0000   1.0000   1.0000   1.0000   1.0000
     1.0000   1.0000   1.0000   1.0000   1.0000   1.0000   1.0000   1.0000
     1.0000   1.0000   1.0000   1.0000   1.0000   1.0000   1.0000   1.0000
     1.0000   1.0000   1.0000   1.0000   1.0000   1.0000   1.0000   1.0000
     1.0000   1.0000   1.0000   1.0000   1.0000   1.0000   1.0000   1.0000
     1.0000   1.0000   1.0000   1.0000   1.0000   1.0000   1.0000   1.0000
     1.0000   1.0000   1.0000   1.0000   1.0000   1.0000   1.0000   1.0000
     1.0000   1.0000   1.0000   1.0000   1.0000   1.0000   1.0000   1.0000
     1.0000   1.0000   1.0000   1.0000   1.0000   1.0000   1.0000   1.0000
     1.0000   1.0000   1.0000   1.0000   1.0000   1.0000   1.0000   1.0000
     1.0000   1.0000   1.0000   1.0000   1.0000   1.0000   1.0000   1.0000
     1.0000   1.0000   1.0000   1.0000   1.0000   1.0000   1.0000   1.0000
     1.0000   1.0000   1.0000   1.0000   1.0000   1.0000   1.0000   1.0000
     1.0000   1.0000   1.0000   1.0000   1.0000   1.0000   1.0000   1.0000
     1.0000   1.0000   1.0000   1.0000   1.0000   1.0000   1.0000   1.0000
     1.0000   1.0000   1.0000   1.0000   1.0000   1.0000   1.0000   1.0000
     1.0000   1.0000   1.0000   1.0000   1.0000   1.0000   1.0000   1.0000
     1.0000   1.0000   1.0000   1.0000   1.0000   1.0000   1.0000   1.0000
     1.0000   1.0000   1.0000   1.0000   1.0000   1.0000   1.0000   1.0000
     1.0000   1.0000   1.0000   1.0000   1.0000   1.0000   1.0000   1.0000
     1.0000   1.0000   1.0000   1.0000   1.0000   1.0000   1.0000   1.0000
     1.0000   1.0000   1.0000   1.0000   1.0000   1.0000   1.0000   1.0000
     1.0000   1.0000   1.0000   1.0000   1.0000   1.0000   1.0000   1.0000
     1.0000   1.0000   1.0000   1.0000   1.0000   1.0000   1.0000   1.0000
     1.0000   1.0000   1.0000   1.0000   1.0000   1.0000   1.0000   1.0000
     1.0000   1.0000   1.0000   1.0000   1.0000   1.0000   1.0000   1.0000
     1.0000   1.0000   1.0000   1.0000   1.0000   1.0000   1.0000   1.0000
     1.0000   1.0000   1.0000   1.0000   1.0000   1.0000   1.0000   1.0000
     1.0000   1.0000   1.0000   1.0000   1.0000   1.0000   1.0000   1.0000
     1.0000   1.0000   1.0000   1.0000   1.0000   1.0000   1.0000   1.0000
     1.0000   1.0000   1.0000   1.0000   1.0000   1.0000   1.0000   1.0000
     1.0000   1.0000   1.0000   1.0000   1.0000   1.0000   1.0000   1.0000
     1.0000   1.0000   1.0000   1.0000   1.0000   1.0000   1.0000   1.0000
     1.0000   1.0000   1.0000   1.0000   1.0000   1.0000   1.0000   1.0000
     1.0000   1.0000   1.0000   1.0000   1.0000   1.0000   1.0000   1.0000
     1.0000   1.0000   1.0000   1.0000   1.0000   1.0000   1.0000   1.0000
     1.0000   1.0000   1.0000   1.0000   1.0000   1.0000   1.0000   1.0000
     1.0000   1.0000   1.0000   1.0000   1.0000   1.0000   1.0000   1.0000
     1.0000   1.0000   1.0000   1.0000   1.0000   1.0000   1.0000   1.0000
     1.0000   1.0000   1.0000   1.0000   1.0000   1.0000   1.0000   1.0000
     1.0000   1.0000   1.0000   1.0000   1.0000   1.0000   1.0000   1.0000
     1.0000   1.0000   1.0000   1.0000   1.0000   1.0000   1.0000   1.0000
     1.0000   1.0000   1.0000   1.0000   1.0000   1.0000   1.0000   1.0000
     1.0000   1.0000   1.0000   1.0000   1.0000   1.0000   1.0000   1.0000
     1.0000   1.0000   1.0000   1.0000   1.0000   1.0000   1.0000   1.0000
     1.0000   1.0000   1.0000   1.0000   1.0000   1.0000   1.0000   1.0000
     1.0000   1.0000   1.0000   1.0000   1.0000   1.0000   1.0000   1.0000
     1.0000   1.0000   1.0000   1.0000   1.0000   1.0000   1.0000   1.0000
     1.0000   1.0000   1.0000   1.0000   1.0000   1.0000   1.0000   1.0000
     1.0000   1.0000   1.0000   1.0000   1.0000   1.0000   1.0000   1.0000
     1.0000   1.0000   1.0000   1.0000   1.0000   1.0000   1.0000   1.0000
     1.0001   1.0003   1.0592   1.0405   0.8202   0.7640   0.5722   0.5514
     0.5414   0.5146   0.0144   0.0036   0.0018   0.0004   0.0000   0.0000
     0.0000   0.0000   0.0000   0.0000   0.0000   0.0000   0.0000   0.0000
     0.0000   0.0000   0.0000   0.0000   0.0000   0.0000   0.0000   0.0000
     0.0000   0.0000   0.0000   0.0000   0.0000   0.0000   0.0000   0.0000
     0.0000   0.0000   0.0000   0.0000   0.0000   0.0000   0.0000   0.0000
     0.0000   0.0000   0.0000   0.0000   0.0000   0.0000   0.0000   0.0000
     0.0000   0.0000   0.0000   0.0000   0.0000   0.0000   0.0000   0.0000
     0.0000   0.0000   0.0000   0.0000   0.0000   0.0000   0.0000   0.0000
     0.0000   0.0000   0.0000   0.0000   0.0000   0.0000   0.0000   0.0000
     0.0000   0.0000   0.0000   0.0000   0.0000   0.0000   0.0000   0.0000
     0.0000   0.0000   0.0000   0.0000   0.0000   0.0000   0.0000   0.0000
     0.0000   0.0000   0.0000   0.0000   0.0000   0.0000   0.0000   0.0000

          k = 0.3333 0.1925 0.0000 ( 64840 PWs)   bands (ev):

  -129.2499-129.2490-129.2473-129.2465-129.0646-129.0636-129.0636-129.0630
  -129.0627-129.0626-129.0620-129.0616-127.4532-127.4521-127.4518-127.4509
  -127.4507-127.4506-127.4500-127.4497-127.4496-127.4495-127.4486-127.4486
  -127.3277-127.3268-127.3267-127.3259-127.2148-127.2146-127.2140-127.2138
  -127.2137-127.2137-127.2129-127.2128-126.6359-126.6358-126.6351-126.6350
  -126.6349-126.6348-126.6342-126.6339-125.7242-125.7231-125.7228-125.7216
   -83.5862 -83.5851 -83.5836 -83.5825 -83.5430 -83.5419 -83.5416 -83.5412
[...]

     total energy              =  -22140.73841041 Ry
     estimated scf accuracy    <       6.96112024 Ry

     iteration # 13     ecut=    40.00 Ry     beta= 0.40
     Davidson diagonalization with overlap

---- Real-time Memory Report at c_bands before calling an iterative solver
           622 MiB given to the printing process from OS
             0 MiB allocation reported by mallinfo(arena+hblkhd)
         91597 MiB available memory on the node where the printing process lives
------------------
     ethr =  1.67E-04,  avg # of iterations =  3.0

     negative rho (up, down):  1.288E-02 0.000E+00

     Adding external electric field

     Computed dipole along edir(1) : 
        Elec. dipole         -0.6248 Ry au,         -1.5880 Debye
        Ion. dipole          -0.6923 Ry au,         -1.7598 Debye
        Dipole              -81.5883 Ry au,       -207.3769 Debye
        Dipole field         -0.0676 Ry au, 

        Potential amp.        2.4030 Ry
        Total length         17.7855 bohr


     total cpu time spent up to now is     5708.6 secs

     total energy              =  -22141.38928604 Ry
     estimated scf accuracy    <      21.03401564 Ry

     iteration # 14     ecut=    40.00 Ry     beta= 0.40
     Davidson diagonalization with overlap

---- Real-time Memory Report at c_bands before calling an iterative solver
           622 MiB given to the printing process from OS
             0 MiB allocation reported by mallinfo(arena+hblkhd)
         91599 MiB available memory on the node where the printing process lives
------------------
     ethr =  1.67E-04,  avg # of iterations =  6.4

     negative rho (up, down):  2.062E-01 0.000E+00

     Adding external electric field

     Computed dipole along edir(1) : 
        Elec. dipole         -0.6245 Ry au,         -1.5873 Debye
        Ion. dipole          -0.6923 Ry au,         -1.7598 Debye
        Dipole              -81.9178 Ry au,       -208.2142 Debye
        Dipole field         -0.0678 Ry au, 

        Potential amp.        2.4127 Ry
        Total length         17.7855 bohr


     total cpu time spent up to now is     5786.5 secs

     total energy              =  -22142.67921727 Ry
     estimated scf accuracy    <      32.13218258 Ry

     iteration # 15     ecut=    40.00 Ry     beta= 0.40
     Davidson diagonalization with overlap

---- Real-time Memory Report at c_bands before calling an iterative solver
           622 MiB given to the printing process from OS
             0 MiB allocation reported by mallinfo(arena+hblkhd)
         91689 MiB available memory on the node where the printing process lives
------------------
     ethr =  1.67E-04,  avg # of iterations = 13.8

     negative rho (up, down):  2.931E-01 0.000E+00

     Adding external electric field

     Computed dipole along edir(1) : 
        Elec. dipole         -0.6245 Ry au,         -1.5874 Debye
        Ion. dipole          -0.6923 Ry au,         -1.7598 Debye
        Dipole              -81.9078 Ry au,       -208.1888 Debye
        Dipole field         -0.0678 Ry au, 

        Potential amp.        2.4124 Ry
        Total length         17.7855 bohr


     total cpu time spent up to now is     5879.6 secs

     total energy              =  -22143.39205366 Ry
     estimated scf accuracy    <      83.19760575 Ry

     iteration # 16     ecut=    40.00 Ry     beta= 0.40
     Davidson diagonalization with overlap

---- Real-time Memory Report at c_bands before calling an iterative solver
           622 MiB given to the printing process from OS
             0 MiB allocation reported by mallinfo(arena+hblkhd)
         91686 MiB available memory on the node where the printing process lives
------------------
     ethr =  1.67E-04,  avg # of iterations =  2.0

     negative rho (up, down):  4.809E-01 0.000E+00

     Adding external electric field

     Computed dipole along edir(1) : 
        Elec. dipole         -0.6259 Ry au,         -1.5909 Debye
        Ion. dipole          -0.6923 Ry au,         -1.7598 Debye
        Dipole              -80.2201 Ry au,       -203.8993 Debye
        Dipole field         -0.0664 Ry au, 

        Potential amp.        2.3627 Ry
        Total length         17.7855 bohr


     total cpu time spent up to now is     5951.0 secs

     total energy              =  -22141.97356772 Ry
     estimated scf accuracy    <      94.52686923 Ry

     iteration # 17     ecut=    40.00 Ry     beta= 0.40
     Davidson diagonalization with overlap

---- Real-time Memory Report at c_bands before calling an iterative solver
           622 MiB given to the printing process from OS
             0 MiB allocation reported by mallinfo(arena+hblkhd)
         91686 MiB available memory on the node where the printing process lives
------------------
     ethr =  1.67E-04,  avg # of iterations =  5.6

     negative rho (up, down):  3.598E-02 0.000E+00

     Adding external electric field

     Computed dipole along edir(1) : 
        Elec. dipole         -0.6259 Ry au,         -1.5909 Debye
        Ion. dipole          -0.6923 Ry au,         -1.7598 Debye
        Dipole              -80.2203 Ry au,       -203.8996 Debye
        Dipole field         -0.0664 Ry au, 

        Potential amp.        2.3627 Ry
        Total length         17.7855 bohr


     total cpu time spent up to now is     6027.1 secs

     total energy              =  -22137.49187128 Ry
     estimated scf accuracy    <      45.97326940 Ry

     iteration # 18     ecut=    40.00 Ry     beta= 0.40
     Davidson diagonalization with overlap

---- Real-time Memory Report at c_bands before calling an iterative solver
           622 MiB given to the printing process from OS
             0 MiB allocation reported by mallinfo(arena+hblkhd)
         91680 MiB available memory on the node where the printing process lives
------------------
     c_bands:  3 eigenvalues not converged
     c_bands:  2 eigenvalues not converged
     ethr =  1.67E-04,  avg # of iterations = 18.4

     negative rho (up, down):  5.683E-02 0.000E+00

     Adding external electric field

     Computed dipole along edir(1) : 
        Elec. dipole         -0.6262 Ry au,         -1.5917 Debye
        Ion. dipole          -0.6923 Ry au,         -1.7598 Debye
        Dipole              -79.8408 Ry au,       -202.9351 Debye
        Dipole field         -0.0661 Ry au, 

        Potential amp.        2.3516 Ry
        Total length         17.7855 bohr


     total cpu time spent up to now is     6135.3 secs

     total energy              =  -22140.07960302 Ry
     estimated scf accuracy    <       0.17580123 Ry

     iteration # 19     ecut=    40.00 Ry     beta= 0.40
     Davidson diagonalization with overlap

---- Real-time Memory Report at c_bands before calling an iterative solver
           622 MiB given to the printing process from OS
             0 MiB allocation reported by mallinfo(arena+hblkhd)
         91683 MiB available memory on the node where the printing process lives
------------------
     c_bands:  1 eigenvalues not converged
     ethr =  1.83E-05,  avg # of iterations = 15.0

     negative rho (up, down):  6.409E-02 0.000E+00

     Adding external electric field

     Computed dipole along edir(1) : 
        Elec. dipole         -0.6261 Ry au,         -1.5913 Debye
        Ion. dipole          -0.6923 Ry au,         -1.7598 Debye
        Dipole              -80.0374 Ry au,       -203.4349 Debye
        Dipole field         -0.0663 Ry au, 

        Potential amp.        2.3574 Ry
        Total length         17.7855 bohr


     total cpu time spent up to now is     6222.0 secs

     total energy              =  -22140.06417509 Ry
     estimated scf accuracy    <       0.25319161 Ry

     iteration # 20     ecut=    40.00 Ry     beta= 0.40
     Davidson diagonalization with overlap

---- Real-time Memory Report at c_bands before calling an iterative solver
           622 MiB given to the printing process from OS
             0 MiB allocation reported by mallinfo(arena+hblkhd)
         91673 MiB available memory on the node where the printing process lives
------------------
     ethr =  1.83E-05,  avg # of iterations =  4.4

     negative rho (up, down):  8.347E-02 0.000E+00

     Adding external electric field

     Computed dipole along edir(1) : 
        Elec. dipole         -0.6260 Ry au,         -1.5912 Debye
        Ion. dipole          -0.6923 Ry au,         -1.7598 Debye
        Dipole              -80.0750 Ry au,       -203.5303 Debye
        Dipole field         -0.0663 Ry au, 

        Potential amp.        2.3585 Ry
        Total length         17.7855 bohr


     total cpu time spent up to now is     6295.7 secs

     total energy              =  -22140.06100505 Ry
     estimated scf accuracy    <       0.09286159 Ry

     iteration # 21     ecut=    40.00 Ry     beta= 0.40
     Davidson diagonalization with overlap

---- Real-time Memory Report at c_bands before calling an iterative solver
           622 MiB given to the printing process from OS
             0 MiB allocation reported by mallinfo(arena+hblkhd)
         91672 MiB available memory on the node where the printing process lives
------------------
     ethr =  9.67E-06,  avg # of iterations = 11.8

     negative rho (up, down):  1.204E-01 0.000E+00

     Adding external electric field

     Computed dipole along edir(1) : 
        Elec. dipole         -0.6260 Ry au,         -1.5911 Debye
        Ion. dipole          -0.6923 Ry au,         -1.7598 Debye
        Dipole              -80.1166 Ry au,       -203.6361 Debye
        Dipole field         -0.0663 Ry au, 

        Potential amp.        2.3597 Ry
        Total length         17.7855 bohr


     total cpu time spent up to now is     6382.2 secs

     total energy              =  -22140.06340155 Ry
     estimated scf accuracy    <       0.02781202 Ry

     iteration # 22     ecut=    40.00 Ry     beta= 0.40
     Davidson diagonalization with overlap

---- Real-time Memory Report at c_bands before calling an iterative solver
           622 MiB given to the printing process from OS
             0 MiB allocation reported by mallinfo(arena+hblkhd)
         91666 MiB available memory on the node where the printing process lives
------------------
     ethr =  2.90E-06,  avg # of iterations = 13.4

     negative rho (up, down):  6.923E-02 0.000E+00

     Adding external electric field

     Computed dipole along edir(1) : 
        Elec. dipole         -0.6259 Ry au,         -1.5910 Debye
        Ion. dipole          -0.6923 Ry au,         -1.7598 Debye
        Dipole              -80.1898 Ry au,       -203.8220 Debye
        Dipole field         -0.0664 Ry au, 

        Potential amp.        2.3618 Ry
        Total length         17.7855 bohr


     total cpu time spent up to now is     6479.9 secs

     total energy              =  -22140.04768196 Ry
     estimated scf accuracy    <       0.49051418 Ry

     iteration # 23     ecut=    40.00 Ry     beta= 0.40
     Davidson diagonalization with overlap

---- Real-time Memory Report at c_bands before calling an iterative solver
           622 MiB given to the printing process from OS
             0 MiB allocation reported by mallinfo(arena+hblkhd)
         91606 MiB available memory on the node where the printing process lives
------------------
     c_bands:  1 eigenvalues not converged
     ethr =  2.90E-06,  avg # of iterations = 13.8

     negative rho (up, down):  7.824E-02 0.000E+00

     Adding external electric field

     Computed dipole along edir(1) : 
        Elec. dipole         -0.6261 Ry au,         -1.5914 Debye
        Ion. dipole          -0.6923 Ry au,         -1.7598 Debye
        Dipole              -79.9796 Ry au,       -203.2879 Debye
        Dipole field         -0.0662 Ry au, 

        Potential amp.        2.3557 Ry
        Total length         17.7855 bohr


     total cpu time spent up to now is     6571.6 secs

     total energy              =  -22140.06848850 Ry
     estimated scf accuracy    <       0.05365138 Ry

     iteration # 24     ecut=    40.00 Ry     beta= 0.40
     Davidson diagonalization with overlap

---- Real-time Memory Report at c_bands before calling an iterative solver
           622 MiB given to the printing process from OS
             0 MiB allocation reported by mallinfo(arena+hblkhd)
         91577 MiB available memory on the node where the printing process lives
------------------
     ethr =  2.90E-06,  avg # of iterations =  7.8

     negative rho (up, down):  6.103E-02 0.000E+00

     Adding external electric field

     Computed dipole along edir(1) : 
        Elec. dipole         -0.6260 Ry au,         -1.5912 Debye
        Ion. dipole          -0.6923 Ry au,         -1.7598 Debye
        Dipole              -80.0753 Ry au,       -203.5311 Debye
        Dipole field         -0.0663 Ry au, 

        Potential amp.        2.3585 Ry
        Total length         17.7855 bohr


     total cpu time spent up to now is     6651.8 secs

     total energy              =  -22140.05931400 Ry
     estimated scf accuracy    <       0.16226997 Ry

     iteration # 25     ecut=    40.00 Ry     beta= 0.40
     Davidson diagonalization with overlap

---- Real-time Memory Report at c_bands before calling an iterative solver
           622 MiB given to the printing process from OS
             0 MiB allocation reported by mallinfo(arena+hblkhd)
         91601 MiB available memory on the node where the printing process lives
------------------
     ethr =  2.90E-06,  avg # of iterations =  8.8

     negative rho (up, down):  5.094E-02 0.000E+00

     Adding external electric field

     Computed dipole along edir(1) : 
        Elec. dipole         -0.6261 Ry au,         -1.5913 Debye
        Ion. dipole          -0.6923 Ry au,         -1.7598 Debye
        Dipole              -80.0502 Ry au,       -203.4673 Debye
        Dipole field         -0.0663 Ry au, 

        Potential amp.        2.3577 Ry
        Total length         17.7855 bohr


     total cpu time spent up to now is     6732.5 secs

     total energy              =  -22140.05985658 Ry
     estimated scf accuracy    <       0.03250751 Ry

     iteration # 26     ecut=    40.00 Ry     beta= 0.40
     Davidson diagonalization with overlap

---- Real-time Memory Report at c_bands before calling an iterative solver
           622 MiB given to the printing process from OS
             0 MiB allocation reported by mallinfo(arena+hblkhd)
         91611 MiB available memory on the node where the printing process lives
------------------
     ethr =  2.90E-06,  avg # of iterations =  7.8

     negative rho (up, down):  4.289E-02 0.000E+00

     Adding external electric field

     Computed dipole along edir(1) : 
        Elec. dipole         -0.6261 Ry au,         -1.5913 Debye
        Ion. dipole          -0.6923 Ry au,         -1.7598 Debye
        Dipole              -80.0208 Ry au,       -203.3926 Debye
        Dipole field         -0.0663 Ry au, 

        Potential amp.        2.3569 Ry
        Total length         17.7855 bohr


     total cpu time spent up to now is     6811.2 secs

     total energy              =  -22140.05967232 Ry
     estimated scf accuracy    <       0.01139934 Ry

     iteration # 27     ecut=    40.00 Ry     beta= 0.40
     Davidson diagonalization with overlap

---- Real-time Memory Report at c_bands before calling an iterative solver
           622 MiB given to the printing process from OS
             0 MiB allocation reported by mallinfo(arena+hblkhd)
         91636 MiB available memory on the node where the printing process lives
------------------
     ethr =  1.19E-06,  avg # of iterations =  4.8

     negative rho (up, down):  3.403E-02 0.000E+00

     Adding external electric field

     Computed dipole along edir(1) : 
        Elec. dipole         -0.6261 Ry au,         -1.5913 Debye
        Ion. dipole          -0.6923 Ry au,         -1.7598 Debye
        Dipole              -80.0312 Ry au,       -203.4190 Debye
        Dipole field         -0.0663 Ry au, 

        Potential amp.        2.3572 Ry
        Total length         17.7855 bohr


     total cpu time spent up to now is     6886.3 secs

     total energy              =  -22140.05913082 Ry
     estimated scf accuracy    <       0.00715407 Ry

     iteration # 28     ecut=    40.00 Ry     beta= 0.40
     Davidson diagonalization with overlap

---- Real-time Memory Report at c_bands before calling an iterative solver
           622 MiB given to the printing process from OS
             0 MiB allocation reported by mallinfo(arena+hblkhd)
         91638 MiB available memory on the node where the printing process lives
------------------
     ethr =  7.45E-07,  avg # of iterations =  6.8

     negative rho (up, down):  1.843E-02 0.000E+00

     Adding external electric field

     Computed dipole along edir(1) : 
        Elec. dipole         -0.6261 Ry au,         -1.5913 Debye
        Ion. dipole          -0.6923 Ry au,         -1.7598 Debye
        Dipole              -80.0348 Ry au,       -203.4281 Debye
        Dipole field         -0.0663 Ry au, 

        Potential amp.        2.3573 Ry
        Total length         17.7855 bohr


     total cpu time spent up to now is     6963.0 secs

     total energy              =  -22140.05782366 Ry
     estimated scf accuracy    <       0.00514521 Ry

     iteration # 29     ecut=    40.00 Ry     beta= 0.40
     Davidson diagonalization with overlap

---- Real-time Memory Report at c_bands before calling an iterative solver
           622 MiB given to the printing process from OS
             0 MiB allocation reported by mallinfo(arena+hblkhd)
         91637 MiB available memory on the node where the printing process lives
------------------
     c_bands:  2 eigenvalues not converged
     ethr =  5.36E-07,  avg # of iterations = 11.2

     negative rho (up, down):  1.156E-02 0.000E+00

     Adding external electric field

     Computed dipole along edir(1) : 
        Elec. dipole         -0.6261 Ry au,         -1.5913 Debye
        Ion. dipole          -0.6923 Ry au,         -1.7598 Debye
        Dipole              -80.0194 Ry au,       -203.3890 Debye
        Dipole field         -0.0663 Ry au, 

        Potential amp.        2.3568 Ry
        Total length         17.7855 bohr


     total cpu time spent up to now is     7048.5 secs

     total energy              =  -22140.05762110 Ry
     estimated scf accuracy    <       0.00156127 Ry

     iteration # 30     ecut=    40.00 Ry     beta= 0.40
     Davidson diagonalization with overlap

---- Real-time Memory Report at c_bands before calling an iterative solver
           622 MiB given to the printing process from OS
             0 MiB allocation reported by mallinfo(arena+hblkhd)
         91633 MiB available memory on the node where the printing process lives
------------------
     ethr =  1.63E-07,  avg # of iterations =  5.2

     negative rho (up, down):  3.847E-03 0.000E+00

     Adding external electric field

     Computed dipole along edir(1) : 
        Elec. dipole         -0.6261 Ry au,         -1.5913 Debye
        Ion. dipole          -0.6923 Ry au,         -1.7598 Debye
        Dipole              -80.0267 Ry au,       -203.4076 Debye
        Dipole field         -0.0663 Ry au, 

        Potential amp.        2.3570 Ry
        Total length         17.7855 bohr


     total cpu time spent up to now is     7123.9 secs

     total energy              =  -22140.05724211 Ry
     estimated scf accuracy    <       0.00080387 Ry

     iteration # 31     ecut=    40.00 Ry     beta= 0.40
     Davidson diagonalization with overlap

---- Real-time Memory Report at c_bands before calling an iterative solver
           622 MiB given to the printing process from OS
             0 MiB allocation reported by mallinfo(arena+hblkhd)
         91637 MiB available memory on the node where the printing process lives
------------------
     c_bands:  1 eigenvalues not converged
