
     Program PWSCF v.7.3.1 starts on  6Apr2025 at 15: 1:13 

     This program is part of the open-source Quantum ESPRESSO suite
     for quantum simulation of materials; please cite
         "P. Giannozzi et al., J. Phys.:Condens. Matter 21 395502 (2009);
         "P. Giannozzi et al., J. Phys.:Condens. Matter 29 465901 (2017);
         "P. Giannozzi et al., J. Chem. Phys. 152 154105 (2020);
          URL http://www.quantum-espresso.org", 
     in publications or presentations arising from this work. More details at
     http://www.quantum-espresso.org/quote

     Parallel version (MPI), running on    26 processors

     MPI processes distributed on     1 nodes
     212842 MiB available memory on the printing compute node when the environment starts

     Waiting for input...
     Reading input from standard input
Warning: card &CELL ignored
Warning: card   CELL_DOFREE = 'ALL' ignored
Warning: card / ignored

     Current dimensions of program PWSCF are:
     Max number of different atomic species (ntypx) = 10
     Max number of k-points (npk) =  40000
     Max angular momentum in pseudopotentials (lmaxx) =  4
     file C.pbe-n-kjpaw_psl.1.0.0.UPF: wavefunction(s)  2S 2P renormalized

     R & G space division:  proc/nbgrp/npool/nimage =      26
     Subspace diagonalization in iterative solution of the eigenvalue problem:
     one sub-group per band group will be used
     custom distributed-memory algorithm (size of sub-group:  5*  5 procs)


     Parallelization info
     --------------------
     sticks:   dense  smooth     PW     G-vecs:    dense   smooth      PW
     Min         343     196     54                51262    22144    3213
     Max         344     197     55                51270    22152    3221
     Sum        8941    5109   1411              1332973   575857   83601

     Using Slab Decomposition



     bravais-lattice index     =            0
     lattice parameter (alat)  =      20.9009  a.u.
     unit-cell volume          =   16846.7507 (a.u.)^3
     number of atoms/cell      =           63
     number of atomic types    =            4
     number of electrons       =      1004.00
     number of Kohn-Sham states=          602
     kinetic-energy cutoff     =      40.0000  Ry
     charge density cutoff     =     280.0000  Ry
     scf convergence threshold =      1.0E-06
     mixing beta               =       0.4000
     number of iterations used =            8  plain     mixing
     energy convergence thresh.=      1.0E-05
     force convergence thresh. =      5.0E-04
     Exchange-correlation= PBE
                           (   1   4   3   4   0   0   0)
     nstep                     =          500


     celldm(1)=  20.900943  celldm(2)=   0.000000  celldm(3)=   0.000000
     celldm(4)=   0.000000  celldm(5)=   0.000000  celldm(6)=   0.000000

     crystal axes: (cart. coord. in units of alat)
               a(1) = (   1.000000   0.000000   0.000000 )  
               a(2) = (  -0.223489   0.918700   0.000000 )  
               a(3) = (  -4.200249  -1.021781   2.008375 )  

     reciprocal axes: (cart. coord. in units 2 pi/alat)
               b(1) = (  1.000000  0.243267  2.215131 )  
               b(2) = ( -0.000000  1.088495  0.553783 )  
               b(3) = (  0.000000 -0.000000  0.497915 )  


     PseudoPot. # 1 for Zn read from file:
     /home/yongsang/Research/PSID_server_room/qe/[00]QE/qepseudo/SSSP_1.3.0_PBE_efficiency/Zn_pbe_v1.uspp.F.UPF
     MD5 check sum: df62231357ef9e81f77b2b3087fa5675
     Pseudo is Ultrasoft, Zval = 20.0
     Generated by new atomic code, or converted to UPF format
     Using radial grid of  943 points,  6 beta functions with: 
                l(1) =   0
                l(2) =   0
                l(3) =   1
                l(4) =   1
                l(5) =   2
                l(6) =   2
     Q(r) pseudized with  8 coefficients,  rinner =    1.100   1.100   1.100
                                                       1.100   1.100

     PseudoPot. # 2 for N  read from file:
     /home/yongsang/Research/PSID_server_room/qe/[00]QE/qepseudo/SSSP_1.3.0_PBE_efficiency/N.pbe-n-radius_5.UPF
     MD5 check sum: 16739722b17309cd8fe442a2ace49922
     Pseudo is Ultrasoft + core correction, Zval =  5.0
     Generated using "atomic" code by A. Dal Corso  v.5.1
     Using radial grid of 1085 points,  4 beta functions with: 
                l(1) =   0
                l(2) =   0
                l(3) =   1
                l(4) =   1
     Q(r) pseudized with 0 coefficients 


     PseudoPot. # 3 for C  read from file:
     /home/yongsang/Research/PSID_server_room/qe/[00]QE/qepseudo/SSSP_1.3.0_PBE_efficiency/C.pbe-n-kjpaw_psl.1.0.0.UPF
     MD5 check sum: 5d2aebdfa2cae82b50a7e79e9516da0f
     Pseudo is Projector augmented-wave + core cor, Zval =  4.0
     Generated using "atomic" code by A. Dal Corso  v.5.1
     Shape of augmentation charge: PSQ
     Using radial grid of 1073 points,  4 beta functions with: 
                l(1) =   0
                l(2) =   0
                l(3) =   1
                l(4) =   1
     Q(r) pseudized with 0 coefficients 


     PseudoPot. # 4 for H  read from file:
     /home/yongsang/Research/PSID_server_room/qe/[00]QE/qepseudo/SSSP_1.3.0_PBE_efficiency/H.pbe-rrkjus_psl.1.0.0.UPF
     MD5 check sum: f52b6d4d1c606e5624b1dc7b2218f220
     Pseudo is Ultrasoft, Zval =  1.0
     Generated using "atomic" code by A. Dal Corso  v.5.1
     Using radial grid of  929 points,  2 beta functions with: 
                l(1) =   0
                l(2) =   0
     Q(r) pseudized with 0 coefficients 


     atomic species   valence    mass     pseudopotential
     Zn               20.00    65.38000     Zn( 1.00)
     N                 5.00    14.00674     N ( 1.00)
     C                 4.00    12.01070     C ( 1.00)
     H                 1.00     1.00794     H ( 1.00)

     No symmetry found


                                    s                        frac. trans.

      isym =  1     identity                                     

 cryst.   s( 1) = (     1          0          0      )
                  (     0          1          0      )
                  (     0          0          1      )

 cart.    s( 1) = (  1.0000000  0.0000000  0.0000000 )
                  (  0.0000000  1.0000000  0.0000000 )
                  (  0.0000000  0.0000000  1.0000000 )


   Cartesian axes

     site n.     atom                  positions (alat units)
         1        Zn     tau(   1) = (  -0.0970639   0.0980210   0.1082940  )
         2        Zn     tau(   2) = (  -0.2088085   0.5573710   0.1082940  )
         3        Zn     tau(   3) = (  -0.3883518   0.0272698   0.3875458  )
         4        Zn     tau(   4) = (  -0.5013973   0.4862502   0.3888098  )
         5        Zn     tau(   5) = (  -0.7458465  -0.0624651   0.5271208  )
         6        Zn     tau(   6) = (  -0.8653077   0.3964256   0.5198743  )
         7        Zn     tau(   7) = (  -0.1529361   0.3276960   0.1082940  )
         8        Zn     tau(   8) = (  -0.2646808   0.7870460   0.1082940  )
         9        Zn     tau(   9) = (  -0.4449500   0.2567885   0.3866449  )
        10        Zn     tau(  10) = (  -0.5562261   0.7159161   0.3882964  )
        11        Zn     tau(  11) = (  -0.8083936   0.1655053   0.5196821  )
        12        Zn     tau(  12) = (  -0.9126612   0.6275499   0.5328955  )
        13        Zn     tau(  13) = (   0.4029362   0.0980210   0.1082940  )
        14        Zn     tau(  14) = (   0.2911915   0.5573710   0.1082940  )
        15        Zn     tau(  15) = (   0.0344077   0.0089774   0.3138831  )
        16        Zn     tau(  16) = (  -0.0763827   0.4681760   0.3135451  )
        17        Zn     tau(  17) = (  -0.1971789  -0.0483336   0.5112983  )
        18        Zn     tau(  18) = (  -0.3097990   0.4135753   0.5082877  )
        19        Zn     tau(  19) = (   0.3470638   0.3276960   0.1082940  )
        20        Zn     tau(  20) = (   0.2353192   0.7870460   0.1082940  )
        21        Zn     tau(  21) = (  -0.0176626   0.2393240   0.3124159  )
        22        Zn     tau(  22) = (  -0.1329286   0.6972897   0.3136160  )
        23        Zn     tau(  23) = (  -0.2646255   0.1802056   0.5281268  )
        24        Zn     tau(  24) = (  -0.3637878   0.6420204   0.5123407  )
        25        Zn     tau(  25) = (   0.1529361   0.0372043   0.0773528  )
        26        Zn     tau(  26) = (   0.0411915   0.4965543   0.0773528  )
        27        Zn     tau(  27) = (  -0.2038846  -0.0490488   0.2593701  )
        28        Zn     tau(  28) = (  -0.3165210   0.4095465   0.2582371  )
        29        Zn     tau(  29) = (  -0.5529629  -0.1350989   0.4047519  )
        30        Zn     tau(  30) = (  -0.6660616   0.3236480   0.4041603  )
        31        Zn     tau(  31) = (   0.0970639   0.2668793   0.0773528  )
        32        Zn     tau(  32) = (  -0.0146808   0.7262293   0.0773528  )
        33        Zn     tau(  33) = (  -0.2555641   0.1815377   0.2662674  )
        34        Zn     tau(  34) = (  -0.3714509   0.6396171   0.2596095  )
        35        Zn     tau(  35) = (  -0.6094729   0.0947431   0.4026948  )
        36        Zn     tau(  36) = (  -0.7216830   0.5537757   0.4053907  )
        37        Zn     tau(  37) = (   0.6529362   0.0372043   0.0773528  )
        38        Zn     tau(  38) = (   0.5411915   0.4965543   0.0773528  )
        39        Zn     tau(  39) = (   0.2689259  -0.0569349   0.2651642  )
        40        Zn     tau(  40) = (   0.1606579   0.4044312   0.2614671  )
        41        Zn     tau(  41) = (   0.0296426  -0.1129243   0.5252363  )
        42        Zn     tau(  42) = (  -0.0901814   0.3427098   0.5230606  )
        43        Zn     tau(  43) = (   0.5970639   0.2668793   0.0773528  )
        44        Zn     tau(  44) = (   0.4853193   0.7262293   0.0773528  )
        45        Zn     tau(  45) = (   0.2155610   0.1736641   0.2615839  )
        46        Zn     tau(  46) = (   0.1018383   0.6330753   0.2657439  )
        47        Zn     tau(  47) = (  -0.0345035   0.1166286   0.5230393  )
        48        Zn     tau(  48) = (  -0.1376255   0.5751197   0.5247990  )
        49        C      tau(  49) = (  -0.7844755   0.4374326   0.8097966  )
        50        C      tau(  50) = (  -0.6802451   0.3639982   0.7908205  )
        51        C      tau(  51) = (  -0.6910666   0.2378890   0.7761435  )
        52        C      tau(  52) = (  -0.5651723   0.4177824   0.7832576  )
        53        C      tau(  53) = (  -0.5888900   0.1677108   0.7543468  )
        54        C      tau(  54) = (  -0.4634879   0.3471038   0.7630739  )
        55        C      tau(  55) = (  -0.4739992   0.2212828   0.7489875  )
        56        N      tau(  56) = (  -0.8701790   0.4978577   0.8228097  )
        57        N      tau(  57) = (  -0.3703345   0.1517925   0.7236695  )
        58        H      tau(  58) = (  -0.2962589   0.1748320   0.7733348  )
        59        H      tau(  59) = (  -0.3845726   0.0608940   0.7262250  )
        60        H      tau(  60) = (  -0.5564345   0.5155173   0.7922959  )
        61        H      tau(  61) = (  -0.7799617   0.1955362   0.7818232  )
        62        H      tau(  62) = (  -0.3745965   0.3895880   0.7573459  )
        63        H      tau(  63) = (  -0.5989433   0.0703756   0.7418354  )

     --------------------------------------------
     DFT-D3 Dispersion Correction (3-body terms):
     --------------------------------------------
       Reference C6 values for interpolation: 

         atom   Coordination number   C6
         H          0.912             6.05
         H          0.000            15.18
         C          0.000            98.23
         C          0.987            86.49
         C          1.998            58.72
         C          2.999            51.56
         C          3.984            36.41
         N          0.000            50.54
         N          0.994            44.25
         N          2.014            39.35
         N          2.990            31.16
         Zn         0.000           681.04
         Zn         1.942           306.91

       Values used:

         atom   Coordination number  R0_AB[au]  C6      C8
         Zn         6.244            3.053    306.91  23930.67
         Zn         6.271            3.053    306.91  23930.67
         Zn         7.002            3.053    306.91  23930.67
         Zn         6.997            3.053    306.91  23930.67
         Zn         5.024            3.053    306.91  23930.67
         Zn         5.148            3.053    306.91  23930.67
         Zn         6.244            3.053    306.91  23930.67
         Zn         6.263            3.053    306.91  23930.67
         Zn         7.016            3.053    306.91  23930.67
         Zn         6.998            3.053    306.91  23930.67
         Zn         5.154            3.053    306.91  23930.67
         Zn         4.885            3.053    306.91  23930.67
         Zn         4.863            3.053    306.91  23930.67
         Zn         4.867            3.053    306.91  23930.67
         Zn         7.251            3.053    306.91  23930.67
         Zn         7.234            3.053    306.91  23930.67
         Zn         5.946            3.053    306.91  23930.67
         Zn         6.032            3.053    306.91  23930.67
         Zn         4.924            3.053    306.91  23930.67
         Zn         4.802            3.053    306.91  23930.67
         Zn         7.342            3.053    306.91  23930.67
         Zn         7.255            3.053    306.91  23930.67
         Zn         5.962            3.053    306.91  23930.67
         Zn         5.896            3.053    306.91  23930.67
         Zn         5.600            3.053    306.91  23930.67
         Zn         5.602            3.053    306.91  23930.67
         Zn         8.065            3.053    306.91  23930.67
         Zn         8.095            3.053    306.91  23930.67
         Zn         6.999            3.053    306.91  23930.67
         Zn         7.010            3.053    306.91  23930.67
         Zn         5.657            3.053    306.91  23930.67
         Zn         5.583            3.053    306.91  23930.67
         Zn         7.758            3.053    306.91  23930.67
         Zn         8.044            3.053    306.91  23930.67
         Zn         7.027            3.053    306.91  23930.67
         Zn         7.002            3.053    306.91  23930.67
         Zn         4.890            3.053    306.91  23930.67
         Zn         5.004            3.053    306.91  23930.67
         Zn         8.263            3.053    306.91  23930.67
         Zn         8.416            3.053    306.91  23930.67
         Zn         6.000            3.053    306.91  23930.67
         Zn         6.048            3.053    306.91  23930.67
         Zn         4.913            3.053    306.91  23930.67
         Zn         4.986            3.053    306.91  23930.67
         Zn         8.425            3.053    306.91  23930.67
         Zn         8.193            3.053    306.91  23930.67
         Zn         6.040            3.053    306.91  23930.67
         Zn         6.016            3.053    306.91  23930.67
         C          2.118            2.750     58.53   1692.92
         C          3.159            2.750     50.45   1459.23
         C          3.198            2.750     50.08   1448.43
         C          3.178            2.750     50.28   1454.20
         C          3.176            2.750     50.30   1454.81
         C          3.185            2.750     50.22   1452.41
         C          3.167            2.750     50.39   1457.34
         N          1.036            2.478     44.22    975.54
         N          3.459            2.478     31.17    687.59
         H          1.014            2.062      6.17     74.57
         H          1.012            2.062      6.17     74.59
         H          1.004            2.062      6.18     74.67
         H          1.008            2.062      6.17     74.64
         H          1.009            2.062      6.17     74.62
         H          1.006            2.062      6.18     74.65

         Molecular C6 ( Ry / a.u.^6 ) =    840829.64


   Crystallographic axes

     site n.     atom                  positions (cryst. coord.)
         1        Zn     tau(   1) = (  0.1666667  0.1666667  0.0539212  )
         2        Zn     tau(   2) = (  0.1666668  0.6666667  0.0539212  )
         3        Zn     tau(   3) = (  0.4767469  0.2442992  0.1929649  )
         4        Zn     tau(   4) = (  0.4781560  0.7445969  0.1935942  )
         5        Zn     tau(   5) = (  0.4065996  0.2239175  0.2624613  )
         6        Zn     tau(   6) = (  0.3827194  0.7194046  0.2588532  )
         7        Zn     tau(   7) = (  0.1666668  0.4166667  0.0539212  )
         8        Zn     tau(   8) = (  0.1666667  0.9166667  0.0539212  )
         9        Zn     tau(   9) = (  0.4739875  0.4936303  0.1925163  )
        10        Zn     tau(  10) = (  0.4780602  0.9943027  0.1933386  )
        11        Zn     tau(  11) = (  0.3830325  0.4679426  0.2587575  )
        12        Zn     tau(  12) = (  0.4204344  0.9781930  0.2653366  )
        13        Zn     tau(  13) = (  0.6666668  0.1666667  0.0539212  )
        14        Zn     tau(  14) = (  0.6666667  0.6666667  0.0539212  )
        15        Zn     tau(  15) = (  0.7318840  0.1835949  0.1562871  )
        16        Zn     tau(  16) = (  0.7320527  0.6832430  0.1561188  )
        17        Zn     tau(  17) = (  0.9236560  0.2305373  0.2545831  )
        18        Zn     tau(  18) = (  0.9167341  0.7316555  0.2530841  )
        19        Zn     tau(  19) = (  0.6666668  0.4166667  0.0539212  )
        20        Zn     tau(  20) = (  0.6666668  0.9166667  0.0539212  )
        21        Zn     tau(  21) = (  0.7325992  0.4335134  0.1555565  )
        22        Zn     tau(  22) = (  0.7313995  0.9326713  0.1561541  )
        23        Zn     tau(  23) = (  0.9490827  0.4886204  0.2629622  )
        24        Zn     tau(  24) = (  0.9272964  0.9825612  0.2551021  )
        25        Zn     tau(  25) = (  0.3333333  0.0833333  0.0385151  )
        26        Zn     tau(  26) = (  0.3333333  0.5833333  0.0385151  )
        27        Zn     tau(  27) = (  0.3587223  0.0902454  0.1291443  )
        28        Zn     tau(  28) = (  0.3551371  0.5887964  0.1285801  )
        29        Zn     tau(  29) = (  0.3107506  0.0770902  0.2015320  )
        30        Zn     tau(  30) = (  0.3079394  0.5761061  0.2012375  )
        31        Zn     tau(  31) = (  0.3333333  0.3333333  0.0385151  )
        32        Zn     tau(  32) = (  0.3333333  0.8333333  0.0385151  )
        33        Zn     tau(  33) = (  0.3784152  0.3450570  0.1325785  )
        34        Zn     tau(  34) = (  0.3592159  0.8399871  0.1292635  )
        35        Zn     tau(  35) = (  0.3055969  0.3261328  0.2005078  )
        36        Zn     tau(  36) = (  0.3110259  0.8272802  0.2018501  )
        37        Zn     tau(  37) = (  0.8333333  0.0833333  0.0385151  )
        38        Zn     tau(  38) = (  0.8333333  0.5833333  0.0385151  )
        39        Zn     tau(  39) = (  0.8424490  0.0848700  0.1320292  )
        40        Zn     tau(  40) = (  0.8382267  0.5850172  0.1301884  )
        41        Zn     tau(  41) = (  1.1656392  0.1679493  0.2615230  )
        42        Zn     tau(  42) = (  1.1518364  0.6626997  0.2604397  )
        43        Zn     tau(  43) = (  0.8333333  0.3333333  0.0385151  )
        44        Zn     tau(  44) = (  0.8333333  0.8333333  0.0385151  )
        45        Zn     tau(  45) = (  0.8372504  0.3338931  0.1302465  )
        46        Zn     tau(  46) = (  0.8445022  0.8362634  0.1323179  )
        47        Zn     tau(  47) = (  1.1524692  0.4165998  0.2604291  )
        48        Zn     tau(  48) = (  1.1647807  0.9166393  0.2613053  )
        49        C      tau(  49) = (  1.1157432  0.9245945  0.4032099  )
        50        C      tau(  50) = (  1.1600750  0.8341529  0.3937614  )
        51        C      tau(  51) = (  1.0860638  0.6887558  0.3864535  )
        52        C      tau(  52) = (  1.2714789  0.8885085  0.3899957  )
        53        C      tau(  53) = (  1.1228858  0.6002965  0.3756006  )
        54        C      tau(  54) = (  1.3112598  0.8003978  0.3799459  )
        55        C      tau(  55) = (  1.2389371  0.6556415  0.3729321  )
        56        N      tau(  56) = (  1.0735648  0.9975733  0.4096893  )
        57        N      tau(  57) = (  1.2696145  0.5659810  0.3603259  )
        58        H      tau(  58) = (  1.4593101  0.6185632  0.3850550  )
        59        H      tau(  59) = (  1.2389247  0.4684537  0.3615983  )
        60        H      tau(  60) = (  1.3240132  0.9998976  0.3944960  )
        61        H      tau(  61) = (  0.9994468  0.6458004  0.3892815  )
        62        H      tau(  62) = (  1.3977979  0.8434696  0.3770939  )
        63        H      tau(  63) = (  1.0614396  0.4874191  0.3693710  )

     number of k points=     5  Marzari-Vanderbilt smearing, width (Ry)=  0.0200
                       cart. coord. in units 2pi/alat
        k(    1) = (   0.0000000   0.0000000   0.0000000), wk =   0.2222222
        k(    2) = (   0.0000000   0.3628315   0.1845943), wk =   0.4444444
        k(    3) = (   0.3333333   0.0810890   0.7383771), wk =   0.4444444
        k(    4) = (   0.3333333   0.4439205   0.9229714), wk =   0.4444444
        k(    5) = (   0.3333333  -0.2817426   0.5537829), wk =   0.4444444

                       cryst. coord.
        k(    1) = (   0.0000000   0.0000000   0.0000000), wk =   0.2222222
        k(    2) = (   0.0000000   0.3333333   0.0000000), wk =   0.4444444
        k(    3) = (   0.3333333   0.0000000   0.0000000), wk =   0.4444444
        k(    4) = (   0.3333333   0.3333333   0.0000000), wk =   0.4444444
        k(    5) = (   0.3333333  -0.3333333   0.0000000), wk =   0.4444444

     Dense  grid:  1332973 G-vectors     FFT dimensions: ( 120, 108, 540)

     Smooth grid:   575857 G-vectors     FFT dimensions: (  90,  80, 405)

     Dynamical RAM for                 wfc:      25.43 MB

     Dynamical RAM for     wfc (w. buffer):     152.56 MB

     Dynamical RAM for           str. fact:       3.13 MB

     Dynamical RAM for           local pot:       0.00 MB

     Dynamical RAM for          nlocal pot:      40.04 MB

     Dynamical RAM for                qrad:       5.37 MB

     Dynamical RAM for          rho,v,vnew:       8.58 MB

     Dynamical RAM for               rhoin:       2.86 MB

     Dynamical RAM for            rho*nmix:      12.52 MB

     Dynamical RAM for           G-vectors:       3.10 MB

     Dynamical RAM for          h,s,v(r/c):       2.64 MB

     Dynamical RAM for          <psi|beta>:       8.71 MB

     Dynamical RAM for                 psi:      50.85 MB

     Dynamical RAM for                hpsi:      50.85 MB

     Dynamical RAM for                spsi:      50.85 MB

     Dynamical RAM for      wfcinit/wfcrot:      66.42 MB

     Dynamical RAM for           addusdens:     183.06 MB

     Dynamical RAM for          addusforce:     257.17 MB

     Dynamical RAM for         addusstress:     157.24 MB

     Estimated static dynamical RAM per process >     229.93 MB

     Estimated max dynamical RAM per process >     499.62 MB

     Estimated total dynamical RAM >      12.69 GB

     Initial potential from superposition of free atoms

     starting charge    1003.9929, renormalised to    1004.0000

     negative rho (up, down):  3.419E-03 0.000E+00
     Starting wfcs are  666 randomized atomic wfcs
     Checking if some PAW data can be deallocated... 
       PAW data deallocated on   22 nodes for type:  3

     total cpu time spent up to now is       40.3 secs

     Self-consistent Calculation

     iteration #  1     ecut=    40.00 Ry     beta= 0.40
     Davidson diagonalization with overlap

---- Real-time Memory Report at c_bands before calling an iterative solver
           460 MiB given to the printing process from OS
             0 MiB allocation reported by mallinfo(arena+hblkhd)
        206090 MiB available memory on the node where the printing process lives
------------------
     ethr =  1.00E-02,  avg # of iterations =  7.6

     Threshold (ethr) on eigenvalues was too large:
     Diagonalizing with lowered threshold

     Davidson diagonalization with overlap

---- Real-time Memory Report at c_bands before calling an iterative solver
           607 MiB given to the printing process from OS
             0 MiB allocation reported by mallinfo(arena+hblkhd)
        205085 MiB available memory on the node where the printing process lives
------------------
     ethr =  9.10E-04,  avg # of iterations =  1.8

     negative rho (up, down):  4.221E-03 0.000E+00

     total cpu time spent up to now is      298.8 secs

     total energy              =  -22327.17393370 Ry
     estimated scf accuracy    <       9.21914464 Ry

     iteration #  2     ecut=    40.00 Ry     beta= 0.40
     Davidson diagonalization with overlap

---- Real-time Memory Report at c_bands before calling an iterative solver
           638 MiB given to the printing process from OS
             0 MiB allocation reported by mallinfo(arena+hblkhd)
        205062 MiB available memory on the node where the printing process lives
------------------
     ethr =  9.18E-04,  avg # of iterations =  9.0

     negative rho (up, down):  5.625E-03 0.000E+00

     total cpu time spent up to now is      446.4 secs

     total energy              =  -22313.81352325 Ry
     estimated scf accuracy    <     223.20293902 Ry

     iteration #  3     ecut=    40.00 Ry     beta= 0.40
     Davidson diagonalization with overlap

---- Real-time Memory Report at c_bands before calling an iterative solver
           638 MiB given to the printing process from OS
             0 MiB allocation reported by mallinfo(arena+hblkhd)
        204930 MiB available memory on the node where the printing process lives
------------------
     ethr =  9.18E-04,  avg # of iterations =  6.2

     negative rho (up, down):  5.623E-03 0.000E+00

     total cpu time spent up to now is      614.1 secs

     total energy              =  -22330.11004457 Ry
     estimated scf accuracy    <      13.69274644 Ry

     iteration #  4     ecut=    40.00 Ry     beta= 0.40
     Davidson diagonalization with overlap

---- Real-time Memory Report at c_bands before calling an iterative solver
           644 MiB given to the printing process from OS
             0 MiB allocation reported by mallinfo(arena+hblkhd)
        204908 MiB available memory on the node where the printing process lives
------------------
     ethr =  9.18E-04,  avg # of iterations =  3.6

     negative rho (up, down):  5.493E-03 0.000E+00

     total cpu time spent up to now is      738.3 secs

     total energy              =  -22330.91361668 Ry
     estimated scf accuracy    <       2.10731210 Ry

     iteration #  5     ecut=    40.00 Ry     beta= 0.40
     Davidson diagonalization with overlap

---- Real-time Memory Report at c_bands before calling an iterative solver
           644 MiB given to the printing process from OS
             0 MiB allocation reported by mallinfo(arena+hblkhd)
        204904 MiB available memory on the node where the printing process lives
------------------
     ethr =  2.10E-04,  avg # of iterations =  2.8

     negative rho (up, down):  5.322E-03 0.000E+00

     total cpu time spent up to now is      857.8 secs

     total energy              =  -22331.07357085 Ry
     estimated scf accuracy    <       0.36092952 Ry

     iteration #  6     ecut=    40.00 Ry     beta= 0.40
     Davidson diagonalization with overlap

---- Real-time Memory Report at c_bands before calling an iterative solver
           644 MiB given to the printing process from OS
             0 MiB allocation reported by mallinfo(arena+hblkhd)
        204885 MiB available memory on the node where the printing process lives
------------------
     ethr =  3.59E-05,  avg # of iterations = 12.8

     negative rho (up, down):  5.280E-03 0.000E+00

     total cpu time spent up to now is      999.4 secs

     total energy              =  -22331.07542112 Ry
     estimated scf accuracy    <       0.13253444 Ry

     iteration #  7     ecut=    40.00 Ry     beta= 0.40
     Davidson diagonalization with overlap

---- Real-time Memory Report at c_bands before calling an iterative solver
           649 MiB given to the printing process from OS
             0 MiB allocation reported by mallinfo(arena+hblkhd)
        204854 MiB available memory on the node where the printing process lives
------------------
     ethr =  1.32E-05,  avg # of iterations =  3.0

     negative rho (up, down):  5.315E-03 0.000E+00

     total cpu time spent up to now is     1121.5 secs

     total energy              =  -22331.07823030 Ry
     estimated scf accuracy    <       0.04702412 Ry

     iteration #  8     ecut=    40.00 Ry     beta= 0.40
     Davidson diagonalization with overlap

---- Real-time Memory Report at c_bands before calling an iterative solver
           650 MiB given to the printing process from OS
             0 MiB allocation reported by mallinfo(arena+hblkhd)
        204830 MiB available memory on the node where the printing process lives
------------------
     c_bands:  1 eigenvalues not converged
     ethr =  4.68E-06,  avg # of iterations = 16.0

     negative rho (up, down):  5.347E-03 0.000E+00

     total cpu time spent up to now is     1269.5 secs

     total energy              =  -22331.07989129 Ry
     estimated scf accuracy    <       0.03838545 Ry

     iteration #  9     ecut=    40.00 Ry     beta= 0.40
     Davidson diagonalization with overlap

---- Real-time Memory Report at c_bands before calling an iterative solver
           655 MiB given to the printing process from OS
             0 MiB allocation reported by mallinfo(arena+hblkhd)
        204799 MiB available memory on the node where the printing process lives
------------------
     ethr =  3.82E-06,  avg # of iterations =  2.8

     negative rho (up, down):  5.366E-03 0.000E+00

     total cpu time spent up to now is     1391.5 secs

     total energy              =  -22331.08204099 Ry
     estimated scf accuracy    <       0.00945299 Ry

     iteration # 10     ecut=    40.00 Ry     beta= 0.40
     Davidson diagonalization with overlap

---- Real-time Memory Report at c_bands before calling an iterative solver
           659 MiB given to the printing process from OS
             0 MiB allocation reported by mallinfo(arena+hblkhd)
        204767 MiB available memory on the node where the printing process lives
------------------
     ethr =  9.42E-07,  avg # of iterations =  7.4

     negative rho (up, down):  5.381E-03 0.000E+00

     total cpu time spent up to now is     1515.4 secs

     total energy              =  -22331.08152009 Ry
     estimated scf accuracy    <       0.00642964 Ry

     iteration # 11     ecut=    40.00 Ry     beta= 0.40
     Davidson diagonalization with overlap

---- Real-time Memory Report at c_bands before calling an iterative solver
           660 MiB given to the printing process from OS
             0 MiB allocation reported by mallinfo(arena+hblkhd)
        204744 MiB available memory on the node where the printing process lives
------------------
     ethr =  6.40E-07,  avg # of iterations =  8.0

     negative rho (up, down):  5.410E-03 0.000E+00

     total cpu time spent up to now is     1642.5 secs

     total energy              =  -22331.07990791 Ry
     estimated scf accuracy    <       0.00424600 Ry

     iteration # 12     ecut=    40.00 Ry     beta= 0.40
     Davidson diagonalization with overlap

---- Real-time Memory Report at c_bands before calling an iterative solver
           662 MiB given to the printing process from OS
             0 MiB allocation reported by mallinfo(arena+hblkhd)
        204740 MiB available memory on the node where the printing process lives
------------------
     c_bands:  1 eigenvalues not converged
     c_bands:  1 eigenvalues not converged
     ethr =  4.23E-07,  avg # of iterations = 16.0

     negative rho (up, down):  5.410E-03 0.000E+00

     total cpu time spent up to now is     1792.3 secs

     total energy              =  -22331.08031912 Ry
     estimated scf accuracy    <       0.00079870 Ry

     iteration # 13     ecut=    40.00 Ry     beta= 0.40
     Davidson diagonalization with overlap

---- Real-time Memory Report at c_bands before calling an iterative solver
           662 MiB given to the printing process from OS
             0 MiB allocation reported by mallinfo(arena+hblkhd)
        204725 MiB available memory on the node where the printing process lives
------------------
     c_bands:  1 eigenvalues not converged
     ethr =  7.96E-08,  avg # of iterations =  5.6

     negative rho (up, down):  5.412E-03 0.000E+00

     total cpu time spent up to now is     1914.9 secs

     total energy              =  -22331.08035252 Ry
     estimated scf accuracy    <       0.00012294 Ry

     iteration # 14     ecut=    40.00 Ry     beta= 0.40
     Davidson diagonalization with overlap

---- Real-time Memory Report at c_bands before calling an iterative solver
           662 MiB given to the printing process from OS
             0 MiB allocation reported by mallinfo(arena+hblkhd)
        204724 MiB available memory on the node where the printing process lives
------------------
     ethr =  1.22E-08,  avg # of iterations =  2.2

     negative rho (up, down):  5.413E-03 0.000E+00

     total cpu time spent up to now is     2035.0 secs

     total energy              =  -22331.08035963 Ry
     estimated scf accuracy    <       0.00023967 Ry

     iteration # 15     ecut=    40.00 Ry     beta= 0.40
     Davidson diagonalization with overlap

---- Real-time Memory Report at c_bands before calling an iterative solver
           662 MiB given to the printing process from OS
             0 MiB allocation reported by mallinfo(arena+hblkhd)
        204725 MiB available memory on the node where the printing process lives
------------------
     ethr =  1.22E-08,  avg # of iterations =  2.0

     negative rho (up, down):  5.414E-03 0.000E+00

     total cpu time spent up to now is     2152.5 secs

     total energy              =  -22331.08038094 Ry
     estimated scf accuracy    <       0.00001714 Ry

     iteration # 16     ecut=    40.00 Ry     beta= 0.40
     Davidson diagonalization with overlap

---- Real-time Memory Report at c_bands before calling an iterative solver
           662 MiB given to the printing process from OS
             0 MiB allocation reported by mallinfo(arena+hblkhd)
        204709 MiB available memory on the node where the printing process lives
------------------
     ethr =  1.71E-09,  avg # of iterations =  2.0

     negative rho (up, down):  5.414E-03 0.000E+00

     total cpu time spent up to now is     2269.3 secs

     total energy              =  -22331.08038203 Ry
     estimated scf accuracy    <       0.00000334 Ry

     iteration # 17     ecut=    40.00 Ry     beta= 0.40
     Davidson diagonalization with overlap

---- Real-time Memory Report at c_bands before calling an iterative solver
           662 MiB given to the printing process from OS
             0 MiB allocation reported by mallinfo(arena+hblkhd)
        204708 MiB available memory on the node where the printing process lives
------------------
     ethr =  3.33E-10,  avg # of iterations =  2.0

     negative rho (up, down):  5.415E-03 0.000E+00

     total cpu time spent up to now is     2389.7 secs

     total energy              =  -22331.08038222 Ry
     estimated scf accuracy    <       0.00000186 Ry

     iteration # 18     ecut=    40.00 Ry     beta= 0.40
     Davidson diagonalization with overlap

---- Real-time Memory Report at c_bands before calling an iterative solver
           662 MiB given to the printing process from OS
             0 MiB allocation reported by mallinfo(arena+hblkhd)
        204705 MiB available memory on the node where the printing process lives
------------------
     ethr =  1.85E-10,  avg # of iterations =  2.0

     negative rho (up, down):  5.415E-03 0.000E+00

     total cpu time spent up to now is     2512.1 secs

     End of self-consistent calculation

          k = 0.0000 0.0000 0.0000 ( 71933 PWs)   bands (ev):

  -125.0019-125.0009-124.9985-124.9978-124.9880-124.9840-124.9730-124.9403
  -124.8978-124.8963-124.8951-124.8916-124.8902-124.8843-124.8821-124.8793
  -124.8149-124.8069-124.8063-124.8040-124.8037-124.8010-124.7974-124.7951
  -124.7908-124.7855-124.7808-124.7807-124.7795-124.7745-124.7539-124.7136
  -124.7131-124.7088-124.6981-124.6970-124.6909-124.6882-124.6842-124.6827
  -124.6826-124.6777-124.6727-124.6702-124.6461-124.6428-124.6230-124.5943
   -79.1618 -79.1599 -79.1572 -79.1567 -79.1533 -79.1505 -79.1480 -79.1476
   -79.1447 -79.1443 -79.1436 -79.1427 -79.1425 -79.1410 -79.1338 -79.1316
   -79.1310 -79.1291 -79.1277 -79.1172 -79.1153 -79.1017 -79.0879 -79.0859
   -79.0589 -79.0560 -79.0546 -79.0496 -79.0493 -79.0450 -79.0449 -79.0441
   -79.0428 -79.0415 -79.0397 -79.0376 -79.0371 -79.0363 -79.0330 -79.0326
   -79.0305 -79.0303 -79.0292 -79.0276 -79.0260 -79.0247 -79.0224 -79.0198
   -78.9726 -78.9694 -78.9689 -78.9644 -78.9639 -78.9622 -78.9602 -78.9591
   -78.9586 -78.9575 -78.9568 -78.9560 -78.9546 -78.9540 -78.9532 -78.9528
   -78.9525 -78.9506 -78.9498 -78.9497 -78.9495 -78.9476 -78.9474 -78.9471
   -78.9444 -78.9426 -78.9405 -78.9403 -78.9396 -78.9387 -78.9380 -78.9364
   -78.9335 -78.9324 -78.9312 -78.9306 -78.9294 -78.9277 -78.9250 -78.9199
   -78.9188 -78.9184 -78.9092 -78.9000 -78.8861 -78.8858 -78.8805 -78.8738
   -78.8686 -78.8673 -78.8650 -78.8634 -78.8606 -78.8598 -78.8580 -78.8579
   -78.8576 -78.8558 -78.8553 -78.8536 -78.8506 -78.8503 -78.8453 -78.8445
   -78.8440 -78.8432 -78.8425 -78.8388 -78.8379 -78.8366 -78.8354 -78.8331
   -78.8329 -78.8317 -78.8306 -78.8301 -78.8296 -78.8273 -78.8228 -78.8211
   -78.8209 -78.8205 -78.8170 -78.8158 -78.8112 -78.8053 -78.7940 -78.7932
   -78.7922 -78.7906 -78.7808 -78.7743 -78.7651 -78.7639 -78.7435 -78.7357
   -18.7083 -17.3476 -16.4517 -13.9913 -13.9845 -10.9787 -10.7116  -8.8281
    -8.2755  -8.1056  -7.9726  -7.1980  -6.9333  -6.7679  -6.7645  -6.7461
    -6.7223  -6.6707  -6.6668  -6.6446  -6.6007  -6.5817  -6.5602  -6.5303
    -6.5200  -6.4960  -6.4738  -6.4543  -6.4432  -6.4310  -6.4226  -6.4052
    -6.4014  -6.3829  -6.3561  -6.3483  -6.3451  -6.3413  -6.3271  -6.3150
    -6.3084  -6.3063  -6.2844  -6.2776  -6.2720  -6.2647  -6.2553  -6.2517
    -6.2467  -6.2449  -6.2421  -6.2410  -6.2345  -6.2262  -6.2233  -6.2189
    -6.2086  -6.2052  -6.2009  -6.1969  -6.1937  -6.1706  -6.1677  -6.1623
    -6.1516  -6.1457  -6.1323  -6.1254  -6.1194  -6.1146  -6.1080  -6.1027
    -6.0936  -6.0897  -6.0712  -6.0656  -6.0616  -6.0523  -6.0467  -6.0295
    -6.0284  -6.0205  -6.0161  -6.0095  -6.0062  -6.0043  -5.9816  -5.9759
    -5.9690  -5.9631  -5.9610  -5.9364  -5.9341  -5.9283  -5.9245  -5.9217
    -5.9174  -5.9163  -5.9148  -5.9059  -5.9023  -5.8974  -5.8794  -5.8738
    -5.8703  -5.8694  -5.8663  -5.8570  -5.8383  -5.8262  -5.8224  -5.8150
    -5.7976  -5.7927  -5.7871  -5.7847  -5.7817  -5.7807  -5.7726  -5.7640
    -5.7541  -5.7520  -5.7416  -5.7407  -5.7382  -5.7371  -5.7309  -5.7261
    -5.7253  -5.7220  -5.7118  -5.7086  -5.7029  -5.6996  -5.6982  -5.6949
    -5.6910  -5.6807  -5.6801  -5.6731  -5.6707  -5.6664  -5.6629  -5.6604
    -5.6554  -5.6549  -5.6469  -5.6457  -5.6434  -5.6347  -5.6331  -5.6212
    -5.6178  -5.6115  -5.6090  -5.6072  -5.5919  -5.5853  -5.5827  -5.5820
    -5.5759  -5.5674  -5.5622  -5.5582  -5.5571  -5.5507  -5.5465  -5.5356
    -5.5344  -5.5285  -5.5279  -5.5260  -5.5246  -5.5183  -5.5152  -5.5134
    -5.5069  -5.5039  -5.5025  -5.4931  -5.4889  -5.4869  -5.4814  -5.4782
    -5.4731  -5.4717  -5.4682  -5.4621  -5.4581  -5.4534  -5.4523  -5.4475
    -5.4454  -5.4441  -5.4282  -5.4258  -5.4203  -5.4175  -5.4131  -5.4063
    -5.3993  -5.3974  -5.3937  -5.3927  -5.3895  -5.3832  -5.3794  -5.3778
    -5.3703  -5.3695  -5.3657  -5.3636  -5.3563  -5.3549  -5.3524  -5.3429
    -5.3411  -5.3382  -5.3358  -5.3348  -5.3289  -5.3248  -5.3227  -5.3209
    -5.3113  -5.3110  -5.2979  -5.2952  -5.2937  -5.2895  -5.2837  -5.2828
    -5.2772  -5.2703  -5.2683  -5.2670  -5.2651  -5.2632  -5.2623  -5.2616
    -5.2551  -5.2396  -5.2226  -5.2176  -5.2158  -5.2079  -5.2019  -5.1970
    -5.1860  -5.1795  -5.1784  -5.1639  -5.1488  -5.1401  -5.1313  -5.0981
    -5.0716  -5.0621  -5.0485  -4.9669  -4.9403  -4.9246  -4.8228  -4.5132
    -4.2296  -4.1641  -4.0396  -3.9722  -3.8268  -3.7102  -3.6979  -3.4934
    -3.3785  -3.2831  -2.9072  -2.8555  -2.5144  -2.2349  -2.2161  -2.1138
    -1.9143  -1.8540  -1.6827  -1.6675  -1.4909  -1.4428  -1.4133  -1.2645
    -1.2131  -1.1637  -1.1496  -1.0900  -0.8963  -0.6824  -0.6351  -0.1273
     0.0740   0.1322   0.1597   0.2622   0.3070   0.3388   0.4047   0.4237
     0.7348   0.8573   0.8825   0.9377   1.2079   1.2406   1.7991   2.0354
     2.0436   2.1244   2.1450   2.3133   2.3414   2.4150   2.4653   2.5444
     2.6034   2.6876   2.8620   2.9620   3.0176   3.0838   3.2459   3.4308
     3.4768   3.5264   3.6264   3.7072   4.0054   4.1429   4.2740   4.2825
     4.2961   4.3963   4.4731   4.4850   4.5922   4.8689   4.9066   4.9403
     5.0480   5.1161   5.2648   5.3618   5.5245   5.5544   5.6563   5.6766
     5.7041   5.7205   5.7659   5.7944   5.8671   5.9532   5.9862   6.0831
     6.1651   6.2032   6.2397   6.2530   6.2903   6.3156   6.3489   6.3531
     6.4156   6.4406   6.4637   6.4831   6.5172   6.5685   6.5960   6.6292
     6.6333   6.6802   6.6965   6.8238   6.8596   6.8802   6.9130   6.9606
     7.0988   7.1959   7.2676   7.3182   7.3466   7.3695   7.3947   7.4494
     7.4624   7.5124   7.5482   7.5643   7.6562   7.7239   7.7411   7.7654
     7.7909   7.8211   7.8291   7.8953   7.9481   8.0610   8.0990   8.1305
     8.1944   8.2298

     occupation numbers 
     1.0000   1.0000   1.0000   1.0000   1.0000   1.0000   1.0000   1.0000
     1.0000   1.0000   1.0000   1.0000   1.0000   1.0000   1.0000   1.0000
     1.0000   1.0000   1.0000   1.0000   1.0000   1.0000   1.0000   1.0000
     1.0000   1.0000   1.0000   1.0000   1.0000   1.0000   1.0000   1.0000
     1.0000   1.0000   1.0000   1.0000   1.0000   1.0000   1.0000   1.0000
     1.0000   1.0000   1.0000   1.0000   1.0000   1.0000   1.0000   1.0000
     1.0000   1.0000   1.0000   1.0000   1.0000   1.0000   1.0000   1.0000
     1.0000   1.0000   1.0000   1.0000   1.0000   1.0000   1.0000   1.0000
     1.0000   1.0000   1.0000   1.0000   1.0000   1.0000   1.0000   1.0000
     1.0000   1.0000   1.0000   1.0000   1.0000   1.0000   1.0000   1.0000
     1.0000   1.0000   1.0000   1.0000   1.0000   1.0000   1.0000   1.0000
     1.0000   1.0000   1.0000   1.0000   1.0000   1.0000   1.0000   1.0000
     1.0000   1.0000   1.0000   1.0000   1.0000   1.0000   1.0000   1.0000
     1.0000   1.0000   1.0000   1.0000   1.0000   1.0000   1.0000   1.0000
     1.0000   1.0000   1.0000   1.0000   1.0000   1.0000   1.0000   1.0000
     1.0000   1.0000   1.0000   1.0000   1.0000   1.0000   1.0000   1.0000
     1.0000   1.0000   1.0000   1.0000   1.0000   1.0000   1.0000   1.0000
     1.0000   1.0000   1.0000   1.0000   1.0000   1.0000   1.0000   1.0000
     1.0000   1.0000   1.0000   1.0000   1.0000   1.0000   1.0000   1.0000
     1.0000   1.0000   1.0000   1.0000   1.0000   1.0000   1.0000   1.0000
     1.0000   1.0000   1.0000   1.0000   1.0000   1.0000   1.0000   1.0000
     1.0000   1.0000   1.0000   1.0000   1.0000   1.0000   1.0000   1.0000
     1.0000   1.0000   1.0000   1.0000   1.0000   1.0000   1.0000   1.0000
     1.0000   1.0000   1.0000   1.0000   1.0000   1.0000   1.0000   1.0000
     1.0000   1.0000   1.0000   1.0000   1.0000   1.0000   1.0000   1.0000
     1.0000   1.0000   1.0000   1.0000   1.0000   1.0000   1.0000   1.0000
     1.0000   1.0000   1.0000   1.0000   1.0000   1.0000   1.0000   1.0000
     1.0000   1.0000   1.0000   1.0000   1.0000   1.0000   1.0000   1.0000
     1.0000   1.0000   1.0000   1.0000   1.0000   1.0000   1.0000   1.0000
     1.0000   1.0000   1.0000   1.0000   1.0000   1.0000   1.0000   1.0000
     1.0000   1.0000   1.0000   1.0000   1.0000   1.0000   1.0000   1.0000
     1.0000   1.0000   1.0000   1.0000   1.0000   1.0000   1.0000   1.0000
     1.0000   1.0000   1.0000   1.0000   1.0000   1.0000   1.0000   1.0000
     1.0000   1.0000   1.0000   1.0000   1.0000   1.0000   1.0000   1.0000
     1.0000   1.0000   1.0000   1.0000   1.0000   1.0000   1.0000   1.0000
     1.0000   1.0000   1.0000   1.0000   1.0000   1.0000   1.0000   1.0000
     1.0000   1.0000   1.0000   1.0000   1.0000   1.0000   1.0000   1.0000
     1.0000   1.0000   1.0000   1.0000   1.0000   1.0000   1.0000   1.0000
     1.0000   1.0000   1.0000   1.0000   1.0000   1.0000   1.0000   1.0000
     1.0000   1.0000   1.0000   1.0000   1.0000   1.0000   1.0000   1.0000
     1.0000   1.0000   1.0000   1.0000   1.0000   1.0000   1.0000   1.0000
     1.0000   1.0000   1.0000   1.0000   1.0000   1.0000   1.0000   1.0000
     1.0000   1.0000   1.0000   1.0000   1.0000   1.0000   1.0000   1.0000
     1.0000   1.0000   1.0000   1.0000   1.0000   1.0000   1.0000   1.0000
     1.0000   1.0000   1.0000   1.0000   1.0000   1.0000   1.0000   1.0000
     1.0000   1.0000   1.0000   1.0000   1.0000   1.0000   1.0000   1.0000
     1.0000   1.0000   1.0000   1.0000   1.0000   1.0000   1.0000   1.0000
     1.0000   1.0000   1.0000   1.0000   1.0000   1.0000   1.0000   1.0000
     1.0000   1.0000   1.0000   1.0000   1.0000   1.0000   1.0000   1.0000
     1.0000   1.0000   1.0000   1.0000   1.0000   1.0000   1.0000   1.0000
     1.0000   1.0000   1.0000   1.0000   1.0000   1.0000   1.0000   1.0000
     1.0000   1.0000   1.0000   1.0000   1.0000   1.0000   1.0000   1.0000
     1.0000   1.0000   1.0000   1.0000   1.0000   1.0000   1.0000   1.0000
     1.0000   1.0000   1.0000   1.0000   1.0000   1.0000   1.0000   1.0000
     1.0000   1.0000   1.0000   1.0000   1.0000   1.0000   1.0000   1.0000
     1.0000   1.0000   1.0000   1.0000   1.0000   1.0000   1.0000   1.0000
     1.0000   1.0000   1.0000   1.0000   1.0000   1.0000   1.0000   1.0000
     1.0000   1.0000   1.0000   1.0000   1.0000   1.0000   1.0000   1.0000
     1.0000   1.0000   1.0000   1.0000   1.0000   1.0000   1.0000   1.0000
     1.0000   1.0000   1.0000   1.0000   1.0000   1.0000   1.0000   1.0000
     1.0000   1.0000   1.0000   1.0000   1.0000   1.0000   1.0000   1.0000
     1.0000   1.0000   1.0000   1.0000   1.0000   1.0000   1.0000   1.0000
     1.0022   1.0118   1.0158   1.0279   1.0662   1.0417   0.0296   0.0007
     0.0006   0.0001   0.0001   0.0000   0.0000   0.0000   0.0000   0.0000
     0.0000   0.0000   0.0000   0.0000   0.0000   0.0000   0.0000   0.0000
     0.0000   0.0000   0.0000   0.0000   0.0000   0.0000   0.0000   0.0000
     0.0000   0.0000   0.0000   0.0000   0.0000   0.0000   0.0000   0.0000
     0.0000   0.0000   0.0000   0.0000   0.0000   0.0000   0.0000   0.0000
     0.0000   0.0000   0.0000   0.0000   0.0000   0.0000   0.0000   0.0000
     0.0000   0.0000   0.0000   0.0000   0.0000   0.0000   0.0000   0.0000
     0.0000   0.0000   0.0000   0.0000   0.0000   0.0000   0.0000   0.0000
     0.0000   0.0000   0.0000   0.0000   0.0000   0.0000   0.0000   0.0000
     0.0000   0.0000   0.0000   0.0000   0.0000   0.0000   0.0000   0.0000
     0.0000   0.0000   0.0000   0.0000   0.0000   0.0000   0.0000   0.0000
     0.0000   0.0000   0.0000   0.0000   0.0000   0.0000   0.0000   0.0000
     0.0000   0.0000

          k = 0.0000 0.3628 0.1846 ( 71963 PWs)   bands (ev):

  -125.0019-125.0009-124.9985-124.9978-124.9880-124.9840-124.9730-124.9403
  -124.8978-124.8963-124.8951-124.8916-124.8902-124.8843-124.8821-124.8793
  -124.8149-124.8069-124.8063-124.8039-124.8037-124.8010-124.7974-124.7951
  -124.7908-124.7855-124.7808-124.7807-124.7795-124.7745-124.7539-124.7136
  -124.7131-124.7088-124.6981-124.6970-124.6909-124.6882-124.6842-124.6827
  -124.6826-124.6777-124.6727-124.6702-124.6461-124.6428-124.6230-124.5943
   -79.1618 -79.1599 -79.1572 -79.1567 -79.1528 -79.1500 -79.1480 -79.1476
   -79.1449 -79.1447 -79.1439 -79.1428 -79.1426 -79.1422 -79.1338 -79.1310
   -79.1303 -79.1288 -79.1276 -79.1172 -79.1156 -79.1017 -79.0879 -79.0860
   -79.0584 -79.0556 -79.0538 -79.0505 -79.0498 -79.0484 -79.0449 -79.0434
   -79.0417 -79.0401 -79.0388 -79.0376 -79.0372 -79.0365 -79.0335 -79.0331
   -79.0318 -79.0292 -79.0278 -79.0275 -79.0259 -79.0247 -79.0224 -79.0206
   -78.9725 -78.9688 -78.9686 -78.9645 -78.9640 -78.9622 -78.9605 -78.9597
   -78.9591 -78.9586 -78.9572 -78.9562 -78.9547 -78.9543 -78.9536 -78.9527
   -78.9511 -78.9502 -78.9497 -78.9493 -78.9485 -78.9476 -78.9473 -78.9470
   -78.9435 -78.9423 -78.9414 -78.9402 -78.9401 -78.9395 -78.9387 -78.9364
   -78.9335 -78.9324 -78.9315 -78.9295 -78.9286 -78.9278 -78.9250 -78.9199
   -78.9190 -78.9187 -78.9095 -78.9000 -78.8861 -78.8856 -78.8805 -78.8738
   -78.8686 -78.8673 -78.8650 -78.8631 -78.8606 -78.8598 -78.8580 -78.8576
   -78.8571 -78.8558 -78.8550 -78.8536 -78.8512 -78.8503 -78.8493 -78.8445
   -78.8440 -78.8432 -78.8388 -78.8386 -78.8379 -78.8366 -78.8354 -78.8325
   -78.8320 -78.8317 -78.8312 -78.8305 -78.8296 -78.8273 -78.8245 -78.8228
   -78.8213 -78.8205 -78.8158 -78.8134 -78.8112 -78.8064 -78.7940 -78.7932
   -78.7921 -78.7906 -78.7812 -78.7743 -78.7648 -78.7639 -78.7435 -78.7357
   -18.7083 -17.3476 -16.4517 -13.9913 -13.9845 -10.9786 -10.7115  -8.8280
    -8.2755  -8.1057  -7.8094  -7.3460  -7.0987  -6.8328  -6.8045  -6.6691
    -6.6566  -6.6470  -6.6284  -6.6187  -6.5683  -6.5401  -6.5339  -6.5276
    -6.4876  -6.4797  -6.4641  -6.4597  -6.4379  -6.4333  -6.4251  -6.4198
    -6.4166  -6.4127  -6.3875  -6.3777  -6.3675  -6.3561  -6.3478  -6.3432
    -6.3363  -6.3259  -6.3134  -6.3084  -6.3049  -6.3001  -6.2808  -6.2732
    -6.2630  -6.2605  -6.2573  -6.2480  -6.2390  -6.2250  -6.2179  -6.2129
    -6.2029  -6.1962  -6.1870  -6.1820  -6.1761  -6.1639  -6.1617  -6.1570
    -6.1529  -6.1451  -6.1398  -6.1348  -6.1160  -6.1122  -6.0995  -6.0944
    -6.0907  -6.0870  -6.0763  -6.0700  -6.0542  -6.0507  -6.0448  -6.0355
    -6.0286  -6.0240  -6.0165  -6.0139  -6.0075  -6.0005  -5.9896  -5.9833
    -5.9757  -5.9682  -5.9656  -5.9591  -5.9501  -5.9461  -5.9402  -5.9346
    -5.9277  -5.9196  -5.9169  -5.9097  -5.9025  -5.8985  -5.8922  -5.8773
    -5.8740  -5.8714  -5.8643  -5.8584  -5.8541  -5.8495  -5.8397  -5.8379
    -5.8339  -5.8323  -5.8231  -5.8134  -5.8084  -5.7977  -5.7929  -5.7905
    -5.7865  -5.7791  -5.7723  -5.7695  -5.7593  -5.7510  -5.7437  -5.7424
    -5.7394  -5.7266  -5.7244  -5.7226  -5.7169  -5.7083  -5.7046  -5.7014
    -5.6943  -5.6904  -5.6858  -5.6778  -5.6746  -5.6717  -5.6658  -5.6591
    -5.6556  -5.6532  -5.6512  -5.6440  -5.6368  -5.6298  -5.6272  -5.6222
    -5.6169  -5.6065  -5.6014  -5.5916  -5.5854  -5.5792  -5.5725  -5.5617
    -5.5536  -5.5491  -5.5461  -5.5414  -5.5374  -5.5338  -5.5304  -5.5253
    -5.5223  -5.5193  -5.5138  -5.5043  -5.5011  -5.4998  -5.4962  -5.4901
    -5.4830  -5.4773  -5.4752  -5.4695  -5.4665  -5.4651  -5.4584  -5.4551
    -5.4506  -5.4483  -5.4441  -5.4404  -5.4376  -5.4354  -5.4303  -5.4253
    -5.4202  -5.4182  -5.4161  -5.4114  -5.4084  -5.4051  -5.3970  -5.3945
    -5.3931  -5.3921  -5.3843  -5.3801  -5.3706  -5.3664  -5.3624  -5.3600
    -5.3576  -5.3548  -5.3503  -5.3469  -5.3449  -5.3437  -5.3406  -5.3369
    -5.3295  -5.3273  -5.3222  -5.3215  -5.3174  -5.3160  -5.3087  -5.3026
    -5.3019  -5.2984  -5.2965  -5.2947  -5.2930  -5.2917  -5.2900  -5.2882
    -5.2809  -5.2776  -5.2714  -5.2701  -5.2634  -5.2590  -5.2566  -5.2533
    -5.2503  -5.2466  -5.2440  -5.2324  -5.2310  -5.2180  -5.2116  -5.2017
    -5.1974  -5.1951  -5.1819  -5.1640  -5.1554  -5.1536  -5.1381  -5.1102
    -5.1085  -5.0316  -5.0258  -5.0060  -4.8507  -4.7031  -4.6056  -4.5468
    -4.4338  -4.1997  -4.1295  -3.9142  -3.8258  -3.7420  -3.3037  -3.1894
    -3.1681  -3.1341  -2.9557  -2.8999  -2.8270  -2.5701  -2.4103  -2.3437
    -2.1879  -2.1107  -1.9976  -1.8126  -1.6728  -1.5489  -1.3017  -1.2595
    -1.2396  -1.0837  -0.9777  -0.8704  -0.8261  -0.7628  -0.4906  -0.2246
    -0.1938  -0.0334  -0.0024   0.1569   0.3289   0.5192   0.5528   0.6970
     0.7326   0.8973   1.0807   1.1416   1.2050   1.3542   1.5707   1.8834
     2.0720   2.1373   2.2327   2.4439   2.4846   2.6221   2.6918   2.7595
     2.8152   2.9007   2.9686   3.2375   3.2996   3.3239   3.3755   3.5881
     3.7030   3.7609   3.7819   4.1024   4.1367   4.2001   4.2249   4.2905
     4.3645   4.4017   4.4488   4.5372   4.5990   4.7696   4.8184   4.8586
     4.8897   4.9488   4.9633   5.0307   5.0798   5.2283   5.2778   5.3598
     5.4108   5.4528   5.4937   5.5418   5.6394   5.7077   5.7497   5.7901
     5.8263   5.9004   5.9299   5.9717   6.0418   6.0871   6.1921   6.2604
     6.2886   6.3406   6.3847   6.4231   6.5285   6.5541   6.5906   6.6591
     6.6754   6.7124   6.7462   6.7839   6.8373   6.9260   6.9547   7.0195
     7.0926   7.1299   7.1741   7.2221   7.2791   7.3461   7.3845   7.4192
     7.4415   7.4991   7.5634   7.5919   7.6502   7.6991   7.7608   7.7863
     7.8341   7.8738   7.9107   8.0086   8.0710   8.1058   8.1440   8.1514
     8.2089   8.2525

     occupation numbers 
     1.0000   1.0000   1.0000   1.0000   1.0000   1.0000   1.0000   1.0000
     1.0000   1.0000   1.0000   1.0000   1.0000   1.0000   1.0000   1.0000
     1.0000   1.0000   1.0000   1.0000   1.0000   1.0000   1.0000   1.0000
     1.0000   1.0000   1.0000   1.0000   1.0000   1.0000   1.0000   1.0000
     1.0000   1.0000   1.0000   1.0000   1.0000   1.0000   1.0000   1.0000
     1.0000   1.0000   1.0000   1.0000   1.0000   1.0000   1.0000   1.0000
     1.0000   1.0000   1.0000   1.0000   1.0000   1.0000   1.0000   1.0000
     1.0000   1.0000   1.0000   1.0000   1.0000   1.0000   1.0000   1.0000
     1.0000   1.0000   1.0000   1.0000   1.0000   1.0000   1.0000   1.0000
     1.0000   1.0000   1.0000   1.0000   1.0000   1.0000   1.0000   1.0000
     1.0000   1.0000   1.0000   1.0000   1.0000   1.0000   1.0000   1.0000
     1.0000   1.0000   1.0000   1.0000   1.0000   1.0000   1.0000   1.0000
     1.0000   1.0000   1.0000   1.0000   1.0000   1.0000   1.0000   1.0000
     1.0000   1.0000   1.0000   1.0000   1.0000   1.0000   1.0000   1.0000
     1.0000   1.0000   1.0000   1.0000   1.0000   1.0000   1.0000   1.0000
     1.0000   1.0000   1.0000   1.0000   1.0000   1.0000   1.0000   1.0000
     1.0000   1.0000   1.0000   1.0000   1.0000   1.0000   1.0000   1.0000
     1.0000   1.0000   1.0000   1.0000   1.0000   1.0000   1.0000   1.0000
     1.0000   1.0000   1.0000   1.0000   1.0000   1.0000   1.0000   1.0000
     1.0000   1.0000   1.0000   1.0000   1.0000   1.0000   1.0000   1.0000
     1.0000   1.0000   1.0000   1.0000   1.0000   1.0000   1.0000   1.0000
     1.0000   1.0000   1.0000   1.0000   1.0000   1.0000   1.0000   1.0000
     1.0000   1.0000   1.0000   1.0000   1.0000   1.0000   1.0000   1.0000
     1.0000   1.0000   1.0000   1.0000   1.0000   1.0000   1.0000   1.0000
     1.0000   1.0000   1.0000   1.0000   1.0000   1.0000   1.0000   1.0000
     1.0000   1.0000   1.0000   1.0000   1.0000   1.0000   1.0000   1.0000
     1.0000   1.0000   1.0000   1.0000   1.0000   1.0000   1.0000   1.0000
     1.0000   1.0000   1.0000   1.0000   1.0000   1.0000   1.0000   1.0000
     1.0000   1.0000   1.0000   1.0000   1.0000   1.0000   1.0000   1.0000
     1.0000   1.0000   1.0000   1.0000   1.0000   1.0000   1.0000   1.0000
     1.0000   1.0000   1.0000   1.0000   1.0000   1.0000   1.0000   1.0000
     1.0000   1.0000   1.0000   1.0000   1.0000   1.0000   1.0000   1.0000
     1.0000   1.0000   1.0000   1.0000   1.0000   1.0000   1.0000   1.0000
     1.0000   1.0000   1.0000   1.0000   1.0000   1.0000   1.0000   1.0000
     1.0000   1.0000   1.0000   1.0000   1.0000   1.0000   1.0000   1.0000
     1.0000   1.0000   1.0000   1.0000   1.0000   1.0000   1.0000   1.0000
     1.0000   1.0000   1.0000   1.0000   1.0000   1.0000   1.0000   1.0000
     1.0000   1.0000   1.0000   1.0000   1.0000   1.0000   1.0000   1.0000
     1.0000   1.0000   1.0000   1.0000   1.0000   1.0000   1.0000   1.0000
     1.0000   1.0000   1.0000   1.0000   1.0000   1.0000   1.0000   1.0000
     1.0000   1.0000   1.0000   1.0000   1.0000   1.0000   1.0000   1.0000
     1.0000   1.0000   1.0000   1.0000   1.0000   1.0000   1.0000   1.0000
     1.0000   1.0000   1.0000   1.0000   1.0000   1.0000   1.0000   1.0000
     1.0000   1.0000   1.0000   1.0000   1.0000   1.0000   1.0000   1.0000
     1.0000   1.0000   1.0000   1.0000   1.0000   1.0000   1.0000   1.0000
     1.0000   1.0000   1.0000   1.0000   1.0000   1.0000   1.0000   1.0000
     1.0000   1.0000   1.0000   1.0000   1.0000   1.0000   1.0000   1.0000
     1.0000   1.0000   1.0000   1.0000   1.0000   1.0000   1.0000   1.0000
     1.0000   1.0000   1.0000   1.0000   1.0000   1.0000   1.0000   1.0000
     1.0000   1.0000   1.0000   1.0000   1.0000   1.0000   1.0000   1.0000
     1.0000   1.0000   1.0000   1.0000   1.0000   1.0000   1.0000   1.0000
     1.0000   1.0000   1.0000   1.0000   1.0000   1.0000   1.0000   1.0000
     1.0000   1.0000   1.0000   1.0000   1.0000   1.0000   1.0000   1.0000
     1.0000   1.0000   1.0000   1.0000   1.0000   1.0000   1.0000   1.0000
     1.0000   1.0000   1.0000   1.0000   1.0000   1.0000   1.0000   1.0000
     1.0000   1.0000   1.0000   1.0000   1.0000   1.0000   1.0000   1.0000
     1.0000   1.0000   1.0000   1.0000   1.0000   1.0000   1.0000   1.0000
     1.0000   1.0000   1.0000   1.0000   1.0000   1.0000   1.0000   1.0000
     1.0000   1.0000   1.0000   1.0000   1.0000   1.0000   1.0000   1.0000
     1.0000   1.0000   1.0000   1.0000   1.0000   1.0000   1.0000   1.0000
     1.0000   1.0000   1.0000   1.0000   1.0000   1.0000   1.0000   1.0000
     1.0000   1.0000   1.0000   1.0000   1.0000   1.0000   1.0001   1.0012
     1.0021   1.0186   1.0735   1.0833   1.0678   0.8570   0.2983   0.0090
     0.0003   0.0001   0.0000   0.0000   0.0000   0.0000   0.0000   0.0000
     0.0000   0.0000   0.0000   0.0000   0.0000   0.0000   0.0000   0.0000
     0.0000   0.0000   0.0000   0.0000   0.0000   0.0000   0.0000   0.0000
     0.0000   0.0000   0.0000   0.0000   0.0000   0.0000   0.0000   0.0000
     0.0000   0.0000   0.0000   0.0000   0.0000   0.0000   0.0000   0.0000
     0.0000   0.0000   0.0000   0.0000   0.0000   0.0000   0.0000   0.0000
     0.0000   0.0000   0.0000   0.0000   0.0000   0.0000   0.0000   0.0000
     0.0000   0.0000   0.0000   0.0000   0.0000   0.0000   0.0000   0.0000
     0.0000   0.0000   0.0000   0.0000   0.0000   0.0000   0.0000   0.0000
     0.0000   0.0000   0.0000   0.0000   0.0000   0.0000   0.0000   0.0000
     0.0000   0.0000   0.0000   0.0000   0.0000   0.0000   0.0000   0.0000
     0.0000   0.0000   0.0000   0.0000   0.0000   0.0000   0.0000   0.0000
     0.0000   0.0000

          k = 0.3333 0.0811 0.7384 ( 72005 PWs)   bands (ev):

  -125.0019-125.0009-124.9985-124.9978-124.9880-124.9840-124.9730-124.9403
  -124.8978-124.8963-124.8951-124.8916-124.8902-124.8843-124.8821-124.8793
  -124.8149-124.8069-124.8063-124.8040-124.8037-124.8010-124.7974-124.7951
  -124.7908-124.7855-124.7808-124.7807-124.7795-124.7745-124.7539-124.7136
  -124.7131-124.7088-124.6981-124.6970-124.6909-124.6882-124.6842-124.6827
  -124.6826-124.6777-124.6727-124.6702-124.6461-124.6428-124.6230-124.5943
   -79.1618 -79.1599 -79.1572 -79.1567 -79.1533 -79.1505 -79.1480 -79.1476
   -79.1447 -79.1443 -79.1436 -79.1427 -79.1425 -79.1410 -79.1338 -79.1316
   -79.1310 -79.1291 -79.1277 -79.1172 -79.1153 -79.1017 -79.0879 -79.0859
   -79.0589 -79.0560 -79.0546 -79.0496 -79.0493 -79.0450 -79.0449 -79.0441
   -79.0428 -79.0415 -79.0397 -79.0376 -79.0371 -79.0363 -79.0330 -79.0326
   -79.0305 -79.0303 -79.0292 -79.0276 -79.0260 -79.0247 -79.0224 -79.0198
   -78.9726 -78.9694 -78.9689 -78.9644 -78.9639 -78.9622 -78.9602 -78.9591
   -78.9586 -78.9575 -78.9568 -78.9560 -78.9546 -78.9540 -78.9532 -78.9528
   -78.9525 -78.9506 -78.9498 -78.9497 -78.9495 -78.9476 -78.9474 -78.9471
   -78.9444 -78.9426 -78.9405 -78.9403 -78.9396 -78.9387 -78.9380 -78.9364
   -78.9335 -78.9324 -78.9312 -78.9306 -78.9294 -78.9277 -78.9250 -78.9199
   -78.9188 -78.9184 -78.9092 -78.9000 -78.8861 -78.8858 -78.8805 -78.8738
   -78.8686 -78.8673 -78.8650 -78.8634 -78.8606 -78.8598 -78.8580 -78.8579
   -78.8576 -78.8558 -78.8553 -78.8536 -78.8506 -78.8503 -78.8453 -78.8445
   -78.8440 -78.8432 -78.8425 -78.8388 -78.8379 -78.8366 -78.8354 -78.8331
   -78.8329 -78.8317 -78.8306 -78.8301 -78.8296 -78.8273 -78.8228 -78.8211
   -78.8209 -78.8205 -78.8170 -78.8158 -78.8112 -78.8053 -78.7940 -78.7932
   -78.7922 -78.7906 -78.7808 -78.7743 -78.7651 -78.7639 -78.7435 -78.7357
   -18.7083 -17.3476 -16.4517 -13.9913 -13.9845 -10.9786 -10.7115  -8.8280
    -8.2757  -8.1060  -7.8547  -7.4950  -6.8187  -6.7773  -6.7558  -6.7284
    -6.7029  -6.6674  -6.6636  -6.6363  -6.6127  -6.5792  -6.5628  -6.5423
    -6.5233  -6.4953  -6.4799  -6.4619  -6.4445  -6.4410  -6.4342  -6.4079
    -6.3902  -6.3841  -6.3633  -6.3564  -6.3514  -6.3385  -6.3123  -6.3105
    -6.3068  -6.3048  -6.2828  -6.2766  -6.2725  -6.2649  -6.2607  -6.2539
    -6.2505  -6.2476  -6.2432  -6.2401  -6.2356  -6.2300  -6.2228  -6.2155
    -6.2065  -6.2046  -6.2008  -6.1941  -6.1846  -6.1704  -6.1648  -6.1596
    -6.1545  -6.1416  -6.1283  -6.1246  -6.1185  -6.1153  -6.1074  -6.1039
    -6.0979  -6.0917  -6.0794  -6.0681  -6.0638  -6.0516  -6.0380  -6.0309
    -6.0217  -6.0176  -6.0129  -6.0093  -6.0031  -5.9979  -5.9935  -5.9840
    -5.9747  -5.9709  -5.9559  -5.9413  -5.9329  -5.9282  -5.9258  -5.9224
    -5.9189  -5.9137  -5.9038  -5.8955  -5.8934  -5.8859  -5.8800  -5.8737
    -5.8676  -5.8644  -5.8500  -5.8440  -5.8388  -5.8302  -5.8157  -5.8150
    -5.8086  -5.8025  -5.7946  -5.7922  -5.7875  -5.7854  -5.7815  -5.7751
    -5.7604  -5.7549  -5.7507  -5.7461  -5.7413  -5.7377  -5.7344  -5.7325
    -5.7256  -5.7222  -5.7184  -5.7112  -5.7079  -5.7017  -5.6990  -5.6940
    -5.6911  -5.6862  -5.6822  -5.6708  -5.6665  -5.6652  -5.6630  -5.6587
    -5.6510  -5.6423  -5.6385  -5.6373  -5.6344  -5.6323  -5.6267  -5.6219
    -5.6167  -5.6114  -5.6059  -5.6004  -5.5933  -5.5885  -5.5855  -5.5822
    -5.5771  -5.5716  -5.5689  -5.5614  -5.5563  -5.5546  -5.5528  -5.5502
    -5.5465  -5.5332  -5.5308  -5.5287  -5.5226  -5.5203  -5.5178  -5.5127
    -5.5097  -5.5006  -5.4986  -5.4960  -5.4906  -5.4864  -5.4851  -5.4794
    -5.4763  -5.4711  -5.4694  -5.4642  -5.4566  -5.4548  -5.4523  -5.4489
    -5.4466  -5.4397  -5.4347  -5.4267  -5.4230  -5.4186  -5.4122  -5.4115
    -5.4093  -5.4041  -5.4020  -5.3981  -5.3946  -5.3932  -5.3842  -5.3799
    -5.3744  -5.3709  -5.3664  -5.3624  -5.3573  -5.3554  -5.3538  -5.3488
    -5.3424  -5.3351  -5.3314  -5.3303  -5.3271  -5.3239  -5.3181  -5.3134
    -5.3116  -5.3072  -5.3015  -5.2975  -5.2919  -5.2830  -5.2806  -5.2794
    -5.2747  -5.2686  -5.2658  -5.2617  -5.2580  -5.2575  -5.2514  -5.2416
    -5.2353  -5.2284  -5.2208  -5.2092  -5.2068  -5.2044  -5.2022  -5.1878
    -5.1841  -5.1689  -5.1594  -5.1545  -5.1466  -5.1353  -5.1037  -5.0894
    -5.0828  -5.0477  -5.0419  -4.9793  -4.8770  -4.7137  -4.6930  -4.6389
    -4.3489  -4.1612  -4.0978  -4.0095  -3.8329  -3.6289  -3.5287  -3.3385
    -3.2792  -3.2018  -3.1618  -2.9037  -2.8406  -2.6139  -2.4623  -2.3673
    -2.2366  -1.8709  -1.7343  -1.5666  -1.5356  -1.3254  -1.2926  -1.2397
    -1.0734  -0.9486  -0.8821  -0.7819  -0.7558  -0.3685  -0.2513  -0.2073
    -0.0780  -0.0212   0.0021   0.0713   0.0883   0.2101   0.4009   0.4791
     0.8039   0.8325   1.0023   1.2674   1.4107   1.6596   1.6765   1.7253
     1.7777   1.9697   2.0292   2.1439   2.1764   2.2607   2.6454   2.7642
     2.9050   2.9516   3.0213   3.0718   3.1414   3.1563   3.2031   3.3253
     3.4432   3.6781   3.7127   3.8271   3.8400   3.9803   4.0547   4.1324
     4.2201   4.4900   4.5915   4.6339   4.6973   4.8264   4.8854   4.9192
     4.9676   5.0028   5.0685   5.2007   5.2822   5.3223   5.4029   5.4392
     5.5043   5.5296   5.5505   5.6068   5.6813   5.7077   5.7364   5.7763
     5.8763   5.9518   6.1108   6.1365   6.2126   6.3103   6.4104   6.4602
     6.4755   6.5192   6.6373   6.6695   6.6900   6.7211   6.7517   6.7996
     6.8404   6.9017   6.9505   6.9845   7.0069   7.0605   7.1477   7.1771
     7.2104   7.2408   7.2712   7.2902   7.3199   7.3583   7.4225   7.4536
     7.4603   7.5236   7.5538   7.5757   7.6198   7.6790   7.7065   7.7394
     7.7676   7.8068   7.8693   7.8779   7.9586   8.0379   8.0891   8.1449
     8.1869   8.2670

     occupation numbers 
     1.0000   1.0000   1.0000   1.0000   1.0000   1.0000   1.0000   1.0000
     1.0000   1.0000   1.0000   1.0000   1.0000   1.0000   1.0000   1.0000
     1.0000   1.0000   1.0000   1.0000   1.0000   1.0000   1.0000   1.0000
     1.0000   1.0000   1.0000   1.0000   1.0000   1.0000   1.0000   1.0000
     1.0000   1.0000   1.0000   1.0000   1.0000   1.0000   1.0000   1.0000
     1.0000   1.0000   1.0000   1.0000   1.0000   1.0000   1.0000   1.0000
     1.0000   1.0000   1.0000   1.0000   1.0000   1.0000   1.0000   1.0000
     1.0000   1.0000   1.0000   1.0000   1.0000   1.0000   1.0000   1.0000
     1.0000   1.0000   1.0000   1.0000   1.0000   1.0000   1.0000   1.0000
     1.0000   1.0000   1.0000   1.0000   1.0000   1.0000   1.0000   1.0000
     1.0000   1.0000   1.0000   1.0000   1.0000   1.0000   1.0000   1.0000
     1.0000   1.0000   1.0000   1.0000   1.0000   1.0000   1.0000   1.0000
     1.0000   1.0000   1.0000   1.0000   1.0000   1.0000   1.0000   1.0000
     1.0000   1.0000   1.0000   1.0000   1.0000   1.0000   1.0000   1.0000
     1.0000   1.0000   1.0000   1.0000   1.0000   1.0000   1.0000   1.0000
     1.0000   1.0000   1.0000   1.0000   1.0000   1.0000   1.0000   1.0000
     1.0000   1.0000   1.0000   1.0000   1.0000   1.0000   1.0000   1.0000
     1.0000   1.0000   1.0000   1.0000   1.0000   1.0000   1.0000   1.0000
     1.0000   1.0000   1.0000   1.0000   1.0000   1.0000   1.0000   1.0000
     1.0000   1.0000   1.0000   1.0000   1.0000   1.0000   1.0000   1.0000
     1.0000   1.0000   1.0000   1.0000   1.0000   1.0000   1.0000   1.0000
     1.0000   1.0000   1.0000   1.0000   1.0000   1.0000   1.0000   1.0000
     1.0000   1.0000   1.0000   1.0000   1.0000   1.0000   1.0000   1.0000
     1.0000   1.0000   1.0000   1.0000   1.0000   1.0000   1.0000   1.0000
     1.0000   1.0000   1.0000   1.0000   1.0000   1.0000   1.0000   1.0000
     1.0000   1.0000   1.0000   1.0000   1.0000   1.0000   1.0000   1.0000
     1.0000   1.0000   1.0000   1.0000   1.0000   1.0000   1.0000   1.0000
     1.0000   1.0000   1.0000   1.0000   1.0000   1.0000   1.0000   1.0000
     1.0000   1.0000   1.0000   1.0000   1.0000   1.0000   1.0000   1.0000
     1.0000   1.0000   1.0000   1.0000   1.0000   1.0000   1.0000   1.0000
     1.0000   1.0000   1.0000   1.0000   1.0000   1.0000   1.0000   1.0000
     1.0000   1.0000   1.0000   1.0000   1.0000   1.0000   1.0000   1.0000
     1.0000   1.0000   1.0000   1.0000   1.0000   1.0000   1.0000   1.0000
     1.0000   1.0000   1.0000   1.0000   1.0000   1.0000   1.0000   1.0000
     1.0000   1.0000   1.0000   1.0000   1.0000   1.0000   1.0000   1.0000
     1.0000   1.0000   1.0000   1.0000   1.0000   1.0000   1.0000   1.0000
     1.0000   1.0000   1.0000   1.0000   1.0000   1.0000   1.0000   1.0000
     1.0000   1.0000   1.0000   1.0000   1.0000   1.0000   1.0000   1.0000
     1.0000   1.0000   1.0000   1.0000   1.0000   1.0000   1.0000   1.0000
     1.0000   1.0000   1.0000   1.0000   1.0000   1.0000   1.0000   1.0000
     1.0000   1.0000   1.0000   1.0000   1.0000   1.0000   1.0000   1.0000
     1.0000   1.0000   1.0000   1.0000   1.0000   1.0000   1.0000   1.0000
     1.0000   1.0000   1.0000   1.0000   1.0000   1.0000   1.0000   1.0000
     1.0000   1.0000   1.0000   1.0000   1.0000   1.0000   1.0000   1.0000
     1.0000   1.0000   1.0000   1.0000   1.0000   1.0000   1.0000   1.0000
     1.0000   1.0000   1.0000   1.0000   1.0000   1.0000   1.0000   1.0000
     1.0000   1.0000   1.0000   1.0000   1.0000   1.0000   1.0000   1.0000
     1.0000   1.0000   1.0000   1.0000   1.0000   1.0000   1.0000   1.0000
     1.0000   1.0000   1.0000   1.0000   1.0000   1.0000   1.0000   1.0000
     1.0000   1.0000   1.0000   1.0000   1.0000   1.0000   1.0000   1.0000
     1.0000   1.0000   1.0000   1.0000   1.0000   1.0000   1.0000   1.0000
     1.0000   1.0000   1.0000   1.0000   1.0000   1.0000   1.0000   1.0000
     1.0000   1.0000   1.0000   1.0000   1.0000   1.0000   1.0000   1.0000
     1.0000   1.0000   1.0000   1.0000   1.0000   1.0000   1.0000   1.0000
     1.0000   1.0000   1.0000   1.0000   1.0000   1.0000   1.0000   1.0000
     1.0000   1.0000   1.0000   1.0000   1.0000   1.0000   1.0000   1.0000
     1.0000   1.0000   1.0000   1.0000   1.0000   1.0000   1.0000   1.0000
     1.0000   1.0000   1.0000   1.0000   1.0000   1.0000   1.0000   1.0000
     1.0000   1.0000   1.0000   1.0000   1.0000   1.0000   1.0000   1.0000
     1.0000   1.0000   1.0000   1.0000   1.0000   1.0000   1.0000   1.0000
     1.0000   1.0000   1.0000   1.0000   1.0000   1.0000   1.0000   1.0000
     1.0000   1.0000   1.0000   1.0000   1.0000   1.0000   1.0000   1.0000
     1.0060   1.0087   1.0476   1.0121   0.7159   0.1417   0.1203   0.0721
     0.0389   0.0022   0.0007   0.0001   0.0000   0.0000   0.0000   0.0000
     0.0000   0.0000   0.0000   0.0000   0.0000   0.0000   0.0000   0.0000
     0.0000   0.0000   0.0000   0.0000   0.0000   0.0000   0.0000   0.0000
     0.0000   0.0000   0.0000   0.0000   0.0000   0.0000   0.0000   0.0000
     0.0000   0.0000   0.0000   0.0000   0.0000   0.0000   0.0000   0.0000
     0.0000   0.0000   0.0000   0.0000   0.0000   0.0000   0.0000   0.0000
     0.0000   0.0000   0.0000   0.0000   0.0000   0.0000   0.0000   0.0000
     0.0000   0.0000   0.0000   0.0000   0.0000   0.0000   0.0000   0.0000
     0.0000   0.0000   0.0000   0.0000   0.0000   0.0000   0.0000   0.0000
     0.0000   0.0000   0.0000   0.0000   0.0000   0.0000   0.0000   0.0000
     0.0000   0.0000   0.0000   0.0000   0.0000   0.0000   0.0000   0.0000
     0.0000   0.0000   0.0000   0.0000   0.0000   0.0000   0.0000   0.0000
     0.0000   0.0000

          k = 0.3333 0.4439 0.9230 ( 71974 PWs)   bands (ev):

  -125.0019-125.0009-124.9985-124.9978-124.9880-124.9840-124.9730-124.9403
  -124.8978-124.8963-124.8951-124.8916-124.8902-124.8843-124.8821-124.8793
  -124.8149-124.8069-124.8063-124.8039-124.8037-124.8010-124.7974-124.7951
  -124.7908-124.7855-124.7808-124.7807-124.7795-124.7745-124.7539-124.7136
  -124.7131-124.7088-124.6981-124.6970-124.6909-124.6882-124.6842-124.6827
  -124.6826-124.6777-124.6727-124.6702-124.6461-124.6428-124.6230-124.5943
   -79.1618 -79.1599 -79.1572 -79.1567 -79.1528 -79.1500 -79.1480 -79.1476
   -79.1449 -79.1447 -79.1439 -79.1428 -79.1426 -79.1422 -79.1338 -79.1310
   -79.1303 -79.1288 -79.1276 -79.1172 -79.1156 -79.1017 -79.0879 -79.0860
   -79.0584 -79.0556 -79.0538 -79.0505 -79.0498 -79.0484 -79.0449 -79.0434
   -79.0417 -79.0401 -79.0388 -79.0376 -79.0372 -79.0365 -79.0335 -79.0331
   -79.0318 -79.0292 -79.0278 -79.0275 -79.0259 -79.0247 -79.0224 -79.0206
   -78.9725 -78.9688 -78.9686 -78.9645 -78.9640 -78.9622 -78.9605 -78.9597
   -78.9591 -78.9586 -78.9572 -78.9562 -78.9547 -78.9543 -78.9536 -78.9527
   -78.9511 -78.9502 -78.9497 -78.9493 -78.9485 -78.9476 -78.9473 -78.9470
   -78.9435 -78.9423 -78.9414 -78.9402 -78.9401 -78.9395 -78.9387 -78.9364
   -78.9335 -78.9324 -78.9315 -78.9295 -78.9286 -78.9278 -78.9250 -78.9199
   -78.9190 -78.9187 -78.9095 -78.9000 -78.8861 -78.8856 -78.8805 -78.8738
   -78.8686 -78.8673 -78.8650 -78.8631 -78.8606 -78.8598 -78.8580 -78.8576
   -78.8571 -78.8558 -78.8550 -78.8536 -78.8512 -78.8503 -78.8493 -78.8445
   -78.8440 -78.8432 -78.8388 -78.8386 -78.8379 -78.8366 -78.8354 -78.8325
   -78.8320 -78.8317 -78.8312 -78.8305 -78.8296 -78.8273 -78.8245 -78.8228
   -78.8213 -78.8205 -78.8158 -78.8134 -78.8112 -78.8064 -78.7940 -78.7932
   -78.7921 -78.7906 -78.7812 -78.7743 -78.7648 -78.7639 -78.7435 -78.7357
   -18.7083 -17.3476 -16.4517 -13.9913 -13.9845 -10.9786 -10.7115  -8.8280
    -8.2758  -8.1061  -7.6449  -7.4383  -7.3417  -6.8338  -6.7054  -6.6743
    -6.6513  -6.6295  -6.6197  -6.6172  -6.5454  -6.5383  -6.5334  -6.5257
    -6.4910  -6.4811  -6.4746  -6.4605  -6.4437  -6.4379  -6.4349  -6.4278
    -6.4173  -6.4035  -6.3936  -6.3852  -6.3767  -6.3587  -6.3542  -6.3429
    -6.3417  -6.3344  -6.3101  -6.3060  -6.2954  -6.2915  -6.2793  -6.2738
    -6.2635  -6.2569  -6.2540  -6.2523  -6.2448  -6.2308  -6.2201  -6.2165
    -6.2028  -6.1914  -6.1854  -6.1792  -6.1730  -6.1636  -6.1576  -6.1517
    -6.1468  -6.1424  -6.1372  -6.1299  -6.1179  -6.1154  -6.0988  -6.0965
    -6.0939  -6.0886  -6.0841  -6.0715  -6.0575  -6.0503  -6.0473  -6.0410
    -6.0330  -6.0229  -6.0153  -6.0104  -6.0020  -5.9971  -5.9915  -5.9854
    -5.9770  -5.9755  -5.9699  -5.9609  -5.9485  -5.9447  -5.9409  -5.9342
    -5.9205  -5.9138  -5.9131  -5.9089  -5.9002  -5.8922  -5.8851  -5.8751
    -5.8706  -5.8672  -5.8582  -5.8521  -5.8437  -5.8397  -5.8368  -5.8335
    -5.8292  -5.8266  -5.8205  -5.8138  -5.8067  -5.8043  -5.7948  -5.7925
    -5.7875  -5.7849  -5.7791  -5.7725  -5.7651  -5.7573  -5.7495  -5.7424
    -5.7412  -5.7307  -5.7243  -5.7217  -5.7160  -5.7115  -5.7102  -5.7024
    -5.6981  -5.6905  -5.6888  -5.6819  -5.6735  -5.6694  -5.6610  -5.6580
    -5.6571  -5.6488  -5.6459  -5.6415  -5.6359  -5.6318  -5.6268  -5.6221
    -5.6127  -5.6054  -5.6033  -5.5981  -5.5933  -5.5856  -5.5810  -5.5685
    -5.5626  -5.5593  -5.5521  -5.5456  -5.5417  -5.5349  -5.5305  -5.5259
    -5.5206  -5.5188  -5.5147  -5.5107  -5.5043  -5.5019  -5.4981  -5.4945
    -5.4901  -5.4836  -5.4770  -5.4757  -5.4716  -5.4673  -5.4637  -5.4616
    -5.4590  -5.4553  -5.4458  -5.4443  -5.4406  -5.4375  -5.4342  -5.4318
    -5.4299  -5.4209  -5.4177  -5.4116  -5.4101  -5.4057  -5.3985  -5.3931
    -5.3907  -5.3865  -5.3831  -5.3767  -5.3717  -5.3674  -5.3654  -5.3623
    -5.3602  -5.3548  -5.3544  -5.3508  -5.3452  -5.3422  -5.3400  -5.3381
    -5.3354  -5.3254  -5.3196  -5.3176  -5.3155  -5.3142  -5.3124  -5.3058
    -5.3021  -5.3000  -5.2957  -5.2941  -5.2921  -5.2887  -5.2854  -5.2821
    -5.2801  -5.2706  -5.2687  -5.2645  -5.2622  -5.2571  -5.2540  -5.2488
    -5.2469  -5.2457  -5.2408  -5.2317  -5.2304  -5.2214  -5.2145  -5.1916
    -5.1873  -5.1834  -5.1688  -5.1570  -5.1521  -5.1463  -5.1396  -5.1023
    -5.0957  -5.0296  -5.0068  -4.8719  -4.7801  -4.6084  -4.5784  -4.5464
    -4.3253  -4.2179  -4.1048  -3.9699  -3.8287  -3.6391  -3.3340  -3.3023
    -3.2150  -3.1397  -2.9640  -2.8955  -2.7975  -2.5957  -2.4137  -2.3926
    -2.3642  -2.2364  -2.1028  -1.9529  -1.8703  -1.7606  -1.6780  -1.2841
    -1.2074  -1.0866  -1.0126  -0.8115  -0.6433  -0.5038  -0.2356  -0.2325
    -0.1853   0.1524   0.1737   0.3201   0.3784   0.5255   0.7597   0.7928
     0.8673   1.0847   1.1320   1.2076   1.3707   1.5720   1.7511   1.8038
     2.1381   2.1606   2.2339   2.3397   2.4669   2.5644   2.6859   2.7980
     2.8617   2.8924   2.8966   2.9873   3.2379   3.2612   3.3077   3.3252
     3.4059   3.5815   3.5895   3.7768   3.8169   4.0222   4.1031   4.1935
     4.2486   4.2860   4.3548   4.4479   4.6049   4.6658   4.7669   4.8043
     4.8367   4.8788   4.9776   5.0360   5.0735   5.2566   5.2923   5.4338
     5.4893   5.4987   5.5177   5.5768   5.7256   5.7517   5.7815   5.8395
     5.8829   5.9241   5.9759   6.0374   6.0685   6.1400   6.1826   6.2807
     6.3133   6.3763   6.4060   6.4841   6.5381   6.5526   6.6161   6.6629
     6.7126   6.7339   6.8242   6.8558   6.8862   6.8981   6.9638   7.0082
     7.0964   7.1799   7.2356   7.2601   7.3207   7.3938   7.4302   7.4800
     7.5184   7.5628   7.6006   7.6471   7.7154   7.7866   7.8603   7.9112
     7.9482   7.9686   8.0078   8.0994   8.1279   8.1450   8.1859   8.2292
     8.3135   8.3320

     occupation numbers 
     1.0000   1.0000   1.0000   1.0000   1.0000   1.0000   1.0000   1.0000
     1.0000   1.0000   1.0000   1.0000   1.0000   1.0000   1.0000   1.0000
     1.0000   1.0000   1.0000   1.0000   1.0000   1.0000   1.0000   1.0000
     1.0000   1.0000   1.0000   1.0000   1.0000   1.0000   1.0000   1.0000
     1.0000   1.0000   1.0000   1.0000   1.0000   1.0000   1.0000   1.0000
     1.0000   1.0000   1.0000   1.0000   1.0000   1.0000   1.0000   1.0000
     1.0000   1.0000   1.0000   1.0000   1.0000   1.0000   1.0000   1.0000
     1.0000   1.0000   1.0000   1.0000   1.0000   1.0000   1.0000   1.0000
     1.0000   1.0000   1.0000   1.0000   1.0000   1.0000   1.0000   1.0000
     1.0000   1.0000   1.0000   1.0000   1.0000   1.0000   1.0000   1.0000
     1.0000   1.0000   1.0000   1.0000   1.0000   1.0000   1.0000   1.0000
     1.0000   1.0000   1.0000   1.0000   1.0000   1.0000   1.0000   1.0000
     1.0000   1.0000   1.0000   1.0000   1.0000   1.0000   1.0000   1.0000
     1.0000   1.0000   1.0000   1.0000   1.0000   1.0000   1.0000   1.0000
     1.0000   1.0000   1.0000   1.0000   1.0000   1.0000   1.0000   1.0000
     1.0000   1.0000   1.0000   1.0000   1.0000   1.0000   1.0000   1.0000
     1.0000   1.0000   1.0000   1.0000   1.0000   1.0000   1.0000   1.0000
     1.0000   1.0000   1.0000   1.0000   1.0000   1.0000   1.0000   1.0000
     1.0000   1.0000   1.0000   1.0000   1.0000   1.0000   1.0000   1.0000
     1.0000   1.0000   1.0000   1.0000   1.0000   1.0000   1.0000   1.0000
     1.0000   1.0000   1.0000   1.0000   1.0000   1.0000   1.0000   1.0000
     1.0000   1.0000   1.0000   1.0000   1.0000   1.0000   1.0000   1.0000
     1.0000   1.0000   1.0000   1.0000   1.0000   1.0000   1.0000   1.0000
     1.0000   1.0000   1.0000   1.0000   1.0000   1.0000   1.0000   1.0000
     1.0000   1.0000   1.0000   1.0000   1.0000   1.0000   1.0000   1.0000
     1.0000   1.0000   1.0000   1.0000   1.0000   1.0000   1.0000   1.0000
     1.0000   1.0000   1.0000   1.0000   1.0000   1.0000   1.0000   1.0000
     1.0000   1.0000   1.0000   1.0000   1.0000   1.0000   1.0000   1.0000
     1.0000   1.0000   1.0000   1.0000   1.0000   1.0000   1.0000   1.0000
     1.0000   1.0000   1.0000   1.0000   1.0000   1.0000   1.0000   1.0000
     1.0000   1.0000   1.0000   1.0000   1.0000   1.0000   1.0000   1.0000
     1.0000   1.0000   1.0000   1.0000   1.0000   1.0000   1.0000   1.0000
     1.0000   1.0000   1.0000   1.0000   1.0000   1.0000   1.0000   1.0000
     1.0000   1.0000   1.0000   1.0000   1.0000   1.0000   1.0000   1.0000
     1.0000   1.0000   1.0000   1.0000   1.0000   1.0000   1.0000   1.0000
     1.0000   1.0000   1.0000   1.0000   1.0000   1.0000   1.0000   1.0000
     1.0000   1.0000   1.0000   1.0000   1.0000   1.0000   1.0000   1.0000
     1.0000   1.0000   1.0000   1.0000   1.0000   1.0000   1.0000   1.0000
     1.0000   1.0000   1.0000   1.0000   1.0000   1.0000   1.0000   1.0000
     1.0000   1.0000   1.0000   1.0000   1.0000   1.0000   1.0000   1.0000
     1.0000   1.0000   1.0000   1.0000   1.0000   1.0000   1.0000   1.0000
     1.0000   1.0000   1.0000   1.0000   1.0000   1.0000   1.0000   1.0000
     1.0000   1.0000   1.0000   1.0000   1.0000   1.0000   1.0000   1.0000
     1.0000   1.0000   1.0000   1.0000   1.0000   1.0000   1.0000   1.0000
     1.0000   1.0000   1.0000   1.0000   1.0000   1.0000   1.0000   1.0000
     1.0000   1.0000   1.0000   1.0000   1.0000   1.0000   1.0000   1.0000
     1.0000   1.0000   1.0000   1.0000   1.0000   1.0000   1.0000   1.0000
     1.0000   1.0000   1.0000   1.0000   1.0000   1.0000   1.0000   1.0000
     1.0000   1.0000   1.0000   1.0000   1.0000   1.0000   1.0000   1.0000
[...]
     atom   45 type  1   force =     0.00000000    0.00000000    0.00000000
     atom   46 type  1   force =     0.00000000    0.00000000    0.00000000
     atom   47 type  1   force =     0.00000000    0.00000000    0.00000000
     atom   48 type  1   force =     0.00000000    0.00000000    0.00000000
     atom   49 type  3   force =     0.00000000    0.00000000    0.00000000
     atom   50 type  3   force =     0.00000000    0.00000000    0.00000000
     atom   51 type  3   force =     0.00000000    0.00000000    0.00000000
     atom   52 type  3   force =     0.00000000    0.00000000    0.00000000
     atom   53 type  3   force =     0.00000000    0.00000000    0.00000000
     atom   54 type  3   force =     0.00000000    0.00000000    0.00000000
     atom   55 type  3   force =     0.00000000    0.00000000    0.00000000
     atom   56 type  2   force =     0.00000000    0.00000000    0.00000000
     atom   57 type  2   force =     0.00000000    0.00000000    0.00000000
     atom   58 type  4   force =     0.00000000    0.00000000    0.00000000
     atom   59 type  4   force =     0.00000000    0.00000000    0.00000000
     atom   60 type  4   force =     0.00000000    0.00000000    0.00000000
     atom   61 type  4   force =     0.00000000    0.00000000    0.00000000
     atom   62 type  4   force =     0.00000000    0.00000000    0.00000000
     atom   63 type  4   force =     0.00000000    0.00000000    0.00000000
     The SCF correction term to forces
     atom    1 type  1   force =    -0.00000000   -0.00000000   -0.00000000
     atom    2 type  1   force =    -0.00000000   -0.00000000   -0.00000000
     atom    3 type  1   force =    -0.00013146   -0.00014987   -0.00011580
     atom    4 type  1   force =    -0.00024674    0.00005289   -0.00007713
     atom    5 type  1   force =     0.00013423   -0.00004916    0.00010622
     atom    6 type  1   force =     0.00014156    0.00009290    0.00011536
     atom    7 type  1   force =    -0.00000000   -0.00000000   -0.00000000
     atom    8 type  1   force =    -0.00000000    0.00000000   -0.00000000
     atom    9 type  1   force =    -0.00016012   -0.00008850   -0.00012031
     atom   10 type  1   force =    -0.00022468    0.00000307   -0.00007980
     atom   11 type  1   force =     0.00011462    0.00001001    0.00020566
     atom   12 type  1   force =     0.00014451    0.00006215    0.00001974
     atom   13 type  1   force =     0.00000000    0.00000000   -0.00000000
     atom   14 type  1   force =     0.00000000    0.00000000    0.00000000
     atom   15 type  1   force =     0.00001585    0.00002047    0.00011009
     atom   16 type  1   force =     0.00012739    0.00002244    0.00006254
     atom   17 type  1   force =    -0.00002152   -0.00001933    0.00002591
     atom   18 type  1   force =     0.00003279    0.00003258    0.00002140
     atom   19 type  1   force =     0.00000000    0.00000000   -0.00000000
     atom   20 type  1   force =     0.00000000   -0.00000000    0.00000000
     atom   21 type  1   force =     0.00005824    0.00000574    0.00002780
     atom   22 type  1   force =     0.00008602    0.00003090    0.00015187
     atom   23 type  1   force =     0.00002207   -0.00007861   -0.00007481
     atom   24 type  1   force =    -0.00002495    0.00008569    0.00006778
     atom   25 type  1   force =    -0.00000000    0.00000000   -0.00000000
     atom   26 type  1   force =     0.00000000   -0.00000000   -0.00000000
     atom   27 type  1   force =    -0.00018243   -0.00002058   -0.00019963
     atom   28 type  1   force =    -0.00011138   -0.00005435   -0.00026187
     atom   29 type  1   force =    -0.00004398   -0.00008520    0.00008727
     atom   30 type  1   force =    -0.00011628    0.00004708    0.00007202
     atom   31 type  1   force =     0.00000000    0.00000000   -0.00000000
     atom   32 type  1   force =     0.00000000   -0.00000000   -0.00000000
     atom   33 type  1   force =    -0.00008991   -0.00011427   -0.00025371
     atom   34 type  1   force =    -0.00020057    0.00004357   -0.00019438
     atom   35 type  1   force =    -0.00006313   -0.00010581    0.00006197
     atom   36 type  1   force =    -0.00009932    0.00005498    0.00009272
     atom   37 type  1   force =     0.00000000   -0.00000000   -0.00000000
     atom   38 type  1   force =    -0.00000000    0.00000000   -0.00000000
     atom   39 type  1   force =     0.00018993   -0.00000758    0.00026338
     atom   40 type  1   force =     0.00012963    0.00008486    0.00014478
     atom   41 type  1   force =     0.00016696    0.00005586    0.00010894
     atom   42 type  1   force =     0.00015875    0.00000985    0.00009438
     atom   43 type  1   force =    -0.00000000   -0.00000000   -0.00000000
     atom   44 type  1   force =    -0.00000000    0.00000000   -0.00000000
     atom   45 type  1   force =     0.00009608    0.00005919    0.00016793
     atom   46 type  1   force =     0.00021981    0.00001682    0.00024018
     atom   47 type  1   force =     0.00010050    0.00000895    0.00008173
     atom   48 type  1   force =     0.00022027    0.00009696    0.00012331
     atom   49 type  3   force =     0.00001342   -0.00004351   -0.00001022
     atom   50 type  3   force =    -0.00002971   -0.00001428    0.00000227
     atom   51 type  3   force =    -0.00004647    0.00001249    0.00000853
     atom   52 type  3   force =    -0.00005459   -0.00000537    0.00000364
     atom   53 type  3   force =    -0.00005681   -0.00001973    0.00000354
     atom   54 type  3   force =    -0.00004562    0.00002519    0.00001235
     atom   55 type  3   force =    -0.00003222   -0.00002336   -0.00000019
     atom   56 type  2   force =    -0.00000799   -0.00004411   -0.00000911
     atom   57 type  2   force =     0.00000065   -0.00006407    0.00000539
     atom   58 type  4   force =     0.00000345   -0.00000659    0.00000513
     atom   59 type  4   force =    -0.00000362   -0.00000674    0.00000036
     atom   60 type  4   force =    -0.00000372   -0.00000420    0.00000007
     atom   61 type  4   force =     0.00000447    0.00000489   -0.00000214
     atom   62 type  4   force =     0.00000142    0.00000506    0.00000506
     atom   63 type  4   force =    -0.00000548   -0.00000356   -0.00000162

     DFT-D3 dispersion contribution to forces:
     atom    1 type  1   force =    -0.00069190   -0.00018202    0.00286837
     atom    2 type  1   force =    -0.00070423   -0.00019757    0.00287234
     atom    3 type  1   force =    -0.00124656    0.00013949   -0.00147621
     atom    4 type  1   force =    -0.00138266   -0.00067379   -0.00140106
     atom    5 type  1   force =     0.00124943    0.00118392   -0.00075842
     atom    6 type  1   force =     0.00184509   -0.00012706   -0.00035545
     atom    7 type  1   force =    -0.00070134   -0.00017965    0.00286290
     atom    8 type  1   force =    -0.00070904   -0.00017987    0.00287514
     atom    9 type  1   force =    -0.00130801   -0.00036888   -0.00099588
     atom   10 type  1   force =    -0.00129530   -0.00036118   -0.00216571
     atom   11 type  1   force =     0.00198550    0.00091535   -0.00023644
     atom   12 type  1   force =     0.00085302   -0.00031871   -0.00100616
     atom   13 type  1   force =     0.00053975    0.00017592    0.00298011
     atom   14 type  1   force =     0.00063865    0.00011451    0.00297441
     atom   15 type  1   force =    -0.00058273   -0.00033087   -0.00100421
     atom   16 type  1   force =    -0.00035533    0.00019085   -0.00088636
     atom   17 type  1   force =    -0.00065355    0.00044576   -0.00183887
     atom   18 type  1   force =    -0.00066802   -0.00050934   -0.00163528
     atom   19 type  1   force =     0.00058069    0.00012028    0.00300663
     atom   20 type  1   force =     0.00062776    0.00017014    0.00294961
     atom   21 type  1   force =    -0.00144591   -0.00030310   -0.00055925
     atom   22 type  1   force =    -0.00039374   -0.00025991   -0.00076200
     atom   23 type  1   force =     0.00000140    0.00038760   -0.00292700
     atom   24 type  1   force =    -0.00046709   -0.00073002   -0.00184581
     atom   25 type  1   force =     0.00057128    0.00014963    0.00284721
     atom   26 type  1   force =     0.00059977    0.00012789    0.00279735
     atom   27 type  1   force =     0.00064590    0.00029315    0.00198312
     atom   28 type  1   force =     0.00064170    0.00001304    0.00215807
     atom   29 type  1   force =     0.00075570    0.00040142   -0.00148852
     atom   30 type  1   force =     0.00095306    0.00009720   -0.00045821
     atom   31 type  1   force =     0.00055044    0.00013380    0.00293686
     atom   32 type  1   force =     0.00057318    0.00015531    0.00278162
     atom   33 type  1   force =     0.00057535    0.00011888    0.00152086
     atom   34 type  1   force =     0.00068493    0.00027511    0.00173485
     atom   35 type  1   force =     0.00099341    0.00056098   -0.00052206
     atom   36 type  1   force =     0.00077206   -0.00017854   -0.00114382
     atom   37 type  1   force =     0.00040767    0.00006729    0.00242583
     atom   38 type  1   force =     0.00048098    0.00009438    0.00250060
     atom   39 type  1   force =    -0.00085101   -0.00028916    0.00159771
     atom   40 type  1   force =    -0.00084697   -0.00014405    0.00163480
     atom   41 type  1   force =    -0.00043456   -0.00034663   -0.00428358
     atom   42 type  1   force =    -0.00078047   -0.00011809   -0.00330984
     atom   43 type  1   force =     0.00041061    0.00015373    0.00243464
     atom   44 type  1   force =     0.00045375    0.00007997    0.00256633
     atom   45 type  1   force =    -0.00071656   -0.00017769    0.00170779
     atom   46 type  1   force =    -0.00096828   -0.00024085    0.00152777
     atom   47 type  1   force =    -0.00045683   -0.00000068   -0.00360950
     atom   48 type  1   force =    -0.00076982   -0.00045253   -0.00390210
     atom   49 type  3   force =    -0.00026140    0.00015248   -0.00104304
     atom   50 type  3   force =    -0.00022715    0.00006577   -0.00154059
     atom   51 type  3   force =    -0.00023773   -0.00013890   -0.00118137
     atom   52 type  3   force =     0.00014570    0.00040746   -0.00158253
     atom   53 type  3   force =    -0.00036846   -0.00036421   -0.00181924
     atom   54 type  3   force =     0.00015477    0.00029589   -0.00113318
     atom   55 type  3   force =    -0.00001698   -0.00004336   -0.00140126
     atom   56 type  2   force =    -0.00016222   -0.00014719   -0.00173761
     atom   57 type  2   force =     0.00030314   -0.00010894   -0.00155250
     atom   58 type  4   force =     0.00031861    0.00002435   -0.00085730
     atom   59 type  4   force =     0.00045181   -0.00005016   -0.00128058
     atom   60 type  4   force =     0.00019831    0.00014395   -0.00085483
     atom   61 type  4   force =    -0.00036183   -0.00009536   -0.00126560
     atom   62 type  4   force =     0.00041719    0.00007567   -0.00129232
     atom   63 type  4   force =    -0.00031494   -0.00011284   -0.00143123

     Total force =     0.009565     Total SCF correction =     0.001170

     DFT-D3 dispersion Force =     0.017726
     SCF correction compared to forces is large: reduce conv_thr to get better values


     Computing stress (Cartesian axis) and pressure


     negative rho (up, down):  5.447E-03 0.000E+00
          total   stress  (Ry/bohr**3)                   (kbar)     P=      -10.79
  -0.00012419  -0.00000310   0.00000831          -18.27       -0.46        1.22
  -0.00000310  -0.00009366   0.00000195           -0.46      -13.78        0.29
   0.00000831   0.00000195  -0.00000222            1.22        0.29       -0.33

     kinetic stress (kbar)  11676.54     12.31      6.63
                               12.31  11670.45     -7.44
                                6.63     -7.44  11782.82

     local   stress (kbar)-873992.87   3710.21   1426.04
                             3710.21-885188.98    -19.62
                             1426.04    -19.62 882165.80

     nonloc. stress (kbar)  -1079.99     -5.06     -3.05
                               -5.06  -1067.58      0.28
                               -3.05      0.28  -1112.23

     hartree stress (kbar) 461704.15  -1651.41   -598.57
                            -1651.41 466777.27     -2.31
                             -598.57     -2.31-409414.42

     exc-cor stress (kbar)  -5696.90     -1.00     -0.71
                               -1.00  -5695.46      0.37
                               -0.71      0.37  -5705.86

     corecor stress (kbar)    -75.57      0.14      0.14
                                0.14    -75.45     -0.14
                                0.14     -0.14    -74.42

     ewald   stress (kbar) 407454.29  -2065.81   -829.16
                            -2065.81 413574.40     29.17
                             -829.16     29.17-477637.27

     hubbard stress (kbar)      0.00      0.00      0.00
                                0.00      0.00      0.00
                                0.00      0.00      0.00

     DFT-D   stress (kbar)     -7.91      0.17     -0.09
                                0.17     -8.43     -0.01
                               -0.09     -0.01     -4.73

     XDM     stress (kbar)      0.00      0.00      0.00
                                0.00      0.00      0.00
                                0.00      0.00      0.00

     dft-nl  stress (kbar)      0.00      0.00      0.00
                                0.00      0.00      0.00
                                0.00      0.00      0.00

     TS-vdW  stress (kbar)      0.00      0.00      0.00
                                0.00      0.00      0.00
                                0.00      0.00      0.00

     MDB     stress (kbar)      0.00      0.00      0.00
                                0.00      0.00      0.00
                                0.00      0.00      0.00

     3D-RISM stress (kbar)      0.00      0.00      0.00
                                0.00      0.00      0.00
                                0.00      0.00      0.00

     Energy error            =      1.3E-04 Ry
     Gradient error          =      2.8E-03 Ry/Bohr

     number of scf cycles    =  30
     number of bfgs steps    =  28

     energy             old  =  -22331.0829100704 Ry
     energy             new  =  -22331.0830362080 Ry

     CASE: energy            _new < energy            _old

     new trust radius        =       0.0423533277 bohr
     new conv_thr            =       0.0000000560 Ry


ATOMIC_POSITIONS (angstrom)
Zn              -1.0735560000        1.0841420000        1.1977640000    0   0   0
Zn              -2.3094850000        6.1646920000        1.1977640000    0   0   0
Zn              -4.2932366318        0.3077945848        4.3188216787
Zn              -5.5553204995        5.3805266324        4.3018633898
Zn              -8.2748513643       -0.6861622280        5.8281193962
Zn              -9.5706067819        4.3978055559        5.7944513314
Zn              -1.6915200000        3.6244170000        1.1977640000    0   0   0
Zn              -2.9274500000        8.7049670000        1.1977640000    0   0   0
Zn              -4.9270436160        2.8396311066        4.3078749462
Zn              -6.1599720104        7.9153106369        4.3224954763
Zn              -8.9617375758        1.8484550257        5.7434699228
Zn             -10.1117495097        6.9370242709        5.8974687384
Zn               4.4565960000        1.0841420000        1.1977640000    0   0   0
Zn               3.2206660000        6.1646920000        1.1977640000    0   0   0
Zn               0.4206105494        0.1030260464        3.4313929799
Zn              -0.8309399864        5.1909245426        3.4389419314
Zn              -2.1831083766       -0.5484531638        5.6454856336
Zn              -3.4164190229        4.5746855189        5.5995957457
Zn               3.8386310000        3.6244170000        1.1977640000    0   0   0
Zn               2.6027020000        8.7049670000        1.1977640000    0   0   0
Zn              -0.1771370310        2.6508357257        3.4134791221
Zn              -1.4419337548        7.7245555293        3.4396547236
Zn              -2.8918911332        1.9988669536        5.8273349010
Zn              -4.0226731059        7.0929616666        5.6726264064
Zn               1.6915200000        0.4114910000        0.8555450000    0   0   0
Zn               0.4555910000        5.4920410000        0.8555450000    0   0   0
Zn              -2.2619524244       -0.5448554356        2.8686579477
Zn              -3.5175535391        4.5267145539        2.8514466861
Zn              -6.1218431878       -1.4908683126        4.5100860566
Zn              -7.3731943708        3.5912683151        4.5051904496
Zn               1.0735560000        2.9517660000        0.8555450000    0   0   0
Zn              -0.1623740000        8.0323160000        0.8555450000    0   0   0
Zn              -2.8551610560        2.0010124675        2.9243136767
Zn              -4.1205516283        7.0751312971        2.8715369363
Zn              -6.7404993811        1.0503706446        4.4990790148
Zn              -7.9907928278        6.1251903045        4.5180709251
Zn               7.2216720000        0.4114910000        0.8555450000    0   0   0
Zn               5.9857420000        5.4920410000        0.8555450000    0   0   0
Zn               3.0235528202       -0.6143603589        2.9208240887
Zn               1.7853581739        4.4780723154        2.8988183550
Zn               0.3130865715       -1.2461964124        5.7664698623
Zn              -0.9867916714        3.7913057949        5.7237180473
Zn               6.6037070000        2.9517660000        0.8555450000    0   0   0
Zn               5.3677780000        8.0323160000        0.8555450000    0   0   0
Zn               2.4208258533        1.9324484982        2.8953332036
Zn               1.1567623843        7.0087531449        2.9311850436
Zn              -0.3918813897        1.2803365938        5.7049128545
Zn              -1.5278435476        6.3654288397        5.7782918936
C               -8.3759024706        4.8436951659        8.9189563439
C               -7.2100887260        4.0606182798        8.6839188310
C               -7.3154898945        2.6670112784        8.5104978250
C               -5.9437848427        4.6727031588        8.6175097210
C               -6.1741655173        1.9048359505        8.2932722748
C               -4.8050896766        3.9012051740        8.4284045095
C               -4.9085120093        2.5076260320        8.2789033994
N               -9.3239653816        5.5020680031        9.1014281291
N               -3.7477678793        1.7453963458        8.0357366782
H               -2.9244426052        2.0527394781        8.5534887322
H               -3.8804660639        0.7402975023        8.1379597187
H               -5.8630401496        5.7556251502        8.7131582500
H               -8.2935678925        2.1835881130        8.5465571307
H               -3.8272111088        4.3837065356        8.3784553821
H               -6.2654731540        0.8303716226        8.1320726385



     Writing config-only to output data dir ./tmp/04_Zn101_ABN_lean.save/ :
     XML data file
     NEW-OLD atomic charge density approx. for the potential

     negative rho (up, down):  5.437E-03 0.000E+00

     total cpu time spent up to now is    46304.5 secs

     Self-consistent Calculation

     iteration #  1     ecut=    40.00 Ry     beta= 0.40
     Davidson diagonalization with overlap

---- Real-time Memory Report at c_bands before calling an iterative solver
           747 MiB given to the printing process from OS
             0 MiB allocation reported by mallinfo(arena+hblkhd)
        204476 MiB available memory on the node where the printing process lives
------------------
