--------------------------------------------------------------------------
WARNING: There was an error initializing an OpenFabrics device.

  Local host:   ga00
  Local device: mlx5_0
--------------------------------------------------------------------------

     Program PWSCF v.7.3.1 starts on  8Apr2025 at 21:51:51 

     This program is part of the open-source Quantum ESPRESSO suite
     for quantum simulation of materials; please cite
         "P. Giannozzi et al., J. Phys.:Condens. Matter 21 395502 (2009);
         "P. Giannozzi et al., J. Phys.:Condens. Matter 29 465901 (2017);
         "P. Giannozzi et al., J. Chem. Phys. 152 154105 (2020);
          URL http://www.quantum-espresso.org", 
     in publications or presentations arising from this work. More details at
     http://www.quantum-espresso.org/quote

     Parallel version (MPI), running on    29 processors

     MPI processes distributed on     1 nodes
     64345 MiB available memory on the printing compute node when the environment starts

     Waiting for input...
     Reading input from standard input
Warning: card &CELL ignored
Warning: card   CELL_DOFREE = 'ALL' ignored
Warning: card / ignored

     Current dimensions of program PWSCF are:
     Max number of different atomic species (ntypx) = 10
     Max number of k-points (npk) =  40000
     Max angular momentum in pseudopotentials (lmaxx) =  4
     file C.pbe-n-kjpaw_psl.1.0.0.UPF: wavefunction(s)  2S 2P renormalized

     R & G space division:  proc/nbgrp/npool/nimage =      29
     Subspace diagonalization in iterative solution of the eigenvalue problem:
     a serial algorithm will be used


     Parallelization info
     --------------------
     sticks:   dense  smooth     PW     G-vecs:    dense   smooth      PW
     Min        1714     979    249               287676   124263   15993
     Max        1715     980    251               287679   124268   15995
     Sum       49717   28417   7237              8342671  3603727  463837

     Using Slab Decomposition



     bravais-lattice index     =            1
     lattice parameter (alat)  =      47.2432  a.u.
     unit-cell volume          =  105442.7265 (a.u.)^3
     number of atoms/cell      =           17
     number of atomic types    =            3
     number of electrons       =        42.00
     number of Kohn-Sham states=           25
     kinetic-energy cutoff     =      40.0000  Ry
     charge density cutoff     =     280.0000  Ry
     scf convergence threshold =      1.0E-06
     mixing beta               =       0.4000
     number of iterations used =            8  plain     mixing
     energy convergence thresh.=      1.0E-05
     force convergence thresh. =      5.0E-04
     Exchange-correlation= PBE
                           (   1   4   3   4   0   0   0)
     nstep                     =          100


     celldm(1)=  47.243153  celldm(2)=   0.000000  celldm(3)=   0.000000
     celldm(4)=   0.000000  celldm(5)=   0.000000  celldm(6)=   0.000000

     crystal axes: (cart. coord. in units of alat)
               a(1) = (   1.000000   0.000000   0.000000 )  
               a(2) = (   0.000000   1.000000   0.000000 )  
               a(3) = (   0.000000   0.000000   1.000000 )  

     reciprocal axes: (cart. coord. in units 2 pi/alat)
               b(1) = (  1.000000  0.000000  0.000000 )  
               b(2) = (  0.000000  1.000000  0.000000 )  
               b(3) = (  0.000000  0.000000  1.000000 )  


     PseudoPot. # 1 for N  read from file:
     /home/yongsang/Research/PSID_server_room/qe/[00]QE/qepseudo/SSSP_1.3.0_PBE_efficiency/N.pbe-n-radius_5.UPF
     MD5 check sum: 16739722b17309cd8fe442a2ace49922
     Pseudo is Ultrasoft + core correction, Zval =  5.0
     Generated using "atomic" code by A. Dal Corso  v.5.1
     Using radial grid of 1085 points,  4 beta functions with: 
                l(1) =   0
                l(2) =   0
                l(3) =   1
                l(4) =   1
     Q(r) pseudized with 0 coefficients 


     PseudoPot. # 2 for C  read from file:
     /home/yongsang/Research/PSID_server_room/qe/[00]QE/qepseudo/SSSP_1.3.0_PBE_efficiency/C.pbe-n-kjpaw_psl.1.0.0.UPF
     MD5 check sum: 5d2aebdfa2cae82b50a7e79e9516da0f
     Pseudo is Projector augmented-wave + core cor, Zval =  4.0
     Generated using "atomic" code by A. Dal Corso  v.5.1
     Shape of augmentation charge: PSQ
     Using radial grid of 1073 points,  4 beta functions with: 
                l(1) =   0
                l(2) =   0
                l(3) =   1
                l(4) =   1
     Q(r) pseudized with 0 coefficients 


     PseudoPot. # 3 for H  read from file:
     /home/yongsang/Research/PSID_server_room/qe/[00]QE/qepseudo/SSSP_1.3.0_PBE_efficiency/H.pbe-rrkjus_psl.1.0.0.UPF
     MD5 check sum: f52b6d4d1c606e5624b1dc7b2218f220
     Pseudo is Ultrasoft, Zval =  1.0
     Generated using "atomic" code by A. Dal Corso  v.5.1
     Using radial grid of  929 points,  2 beta functions with: 
                l(1) =   0
                l(2) =   0
     Q(r) pseudized with 0 coefficients 


     atomic species   valence    mass     pseudopotential
     N                 5.00    14.00674     N ( 1.00)
     C                 4.00    12.01070     C ( 1.00)
     H                 1.00     1.00794     H ( 1.00)

     No symmetry found


                                    s                        frac. trans.

      isym =  1     identity                                     

 cryst.   s( 1) = (     1          0          0      )
                  (     0          1          0      )
                  (     0          0          1      )

 cart.    s( 1) = (  1.0000000  0.0000000  0.0000000 )
                  (  0.0000000  1.0000000  0.0000000 )
                  (  0.0000000  0.0000000  1.0000000 )


     point group C_1 (1)    
     there are  1 classes
     the character table:

       E    
A      1.00

     the symmetry operations in each class and the name of the first element:

     E        1
          identity                                               

   Cartesian axes

     site n.     atom                  positions (alat units)
         1        N      tau(   1) = (  -0.1123805   0.0061252   0.0023901  )
         2        C      tau(   2) = (   0.0566872   0.0004167   0.0003203  )
         3        C      tau(   3) = (  -0.0557541   0.0042065   0.0017033  )
         4        C      tau(   4) = (   0.0267584  -0.0470936   0.0014007  )
         5        C      tau(   5) = (   0.0300152   0.0497809  -0.0000571  )
         6        C      tau(   6) = (  -0.0291406  -0.0451731   0.0020873  )
         7        C      tau(   7) = (  -0.0258786   0.0516704   0.0006306  )
         8        C      tau(   8) = (   0.1166684  -0.0010114  -0.0004373  )
         9        H      tau(   9) = (   0.0465743  -0.0856121   0.0017094  )
        10        H      tau(  10) = (   0.0525338   0.0867873  -0.0008867  )
        11        H      tau(  11) = (  -0.0516834  -0.0821496   0.0029152  )
        12        H      tau(  12) = (  -0.0458700   0.0900934   0.0003244  )
        13        H      tau(  13) = (   0.1325561   0.0201527   0.0352321  )
        14        H      tau(  14) = (   0.1320293  -0.0427034  -0.0000259  )
        15        H      tau(  15) = (   0.1316109   0.0190877  -0.0371173  )
        16        H      tau(  16) = (  -0.1322239   0.0422564   0.0021079  )
        17        H      tau(  17) = (  -0.1346114  -0.0285803   0.0031705  )

     --------------------------------------------
     DFT-D3 Dispersion Correction (3-body terms):
     --------------------------------------------
       Reference C6 values for interpolation: 

         atom   Coordination number   C6
         H          0.912             6.05
         H          0.000            15.18
         C          0.000            98.23
         C          0.987            86.49
         C          1.998            58.72
         C          2.999            51.56
         C          3.984            36.41
         N          0.000            50.54
         N          0.994            44.25
         N          2.014            39.35
         N          2.990            31.16

       Values used:

         atom   Coordination number  R0_AB[au]  C6      C8
         N          3.064            2.478     31.26    689.57
         C          3.137            2.750     50.64   1464.55
         C          3.136            2.750     50.64   1464.69
         C          3.156            2.750     50.48   1460.05
         C          3.159            2.750     50.46   1459.38
         C          3.159            2.750     50.46   1459.45
         C          3.159            2.750     50.46   1459.43
         C          4.038            2.750     36.59   1058.27
         H          1.003            2.062      6.18     74.68
         H          1.004            2.062      6.18     74.68
         H          1.003            2.062      6.18     74.68
         H          1.003            2.062      6.18     74.68
         H          0.995            2.062      6.19     74.77
         H          0.995            2.062      6.19     74.78
         H          0.995            2.062      6.19     74.77
         H          1.001            2.062      6.18     74.71
         H          1.001            2.062      6.18     74.71

         Molecular C6 ( Ry / a.u.^6 ) =      5862.22


   Crystallographic axes

     site n.     atom                  positions (cryst. coord.)
         1        N      tau(   1) = ( -0.1123805  0.0061252  0.0023901  )
         2        C      tau(   2) = (  0.0566872  0.0004167  0.0003203  )
         3        C      tau(   3) = ( -0.0557541  0.0042065  0.0017033  )
         4        C      tau(   4) = (  0.0267584 -0.0470936  0.0014007  )
         5        C      tau(   5) = (  0.0300152  0.0497809 -0.0000571  )
         6        C      tau(   6) = ( -0.0291406 -0.0451731  0.0020873  )
         7        C      tau(   7) = ( -0.0258786  0.0516704  0.0006306  )
         8        C      tau(   8) = (  0.1166684 -0.0010114 -0.0004373  )
         9        H      tau(   9) = (  0.0465743 -0.0856121  0.0017094  )
        10        H      tau(  10) = (  0.0525338  0.0867873 -0.0008867  )
        11        H      tau(  11) = ( -0.0516834 -0.0821496  0.0029152  )
        12        H      tau(  12) = ( -0.0458700  0.0900934  0.0003244  )
        13        H      tau(  13) = (  0.1325561  0.0201527  0.0352321  )
        14        H      tau(  14) = (  0.1320293 -0.0427034 -0.0000259  )
        15        H      tau(  15) = (  0.1316109  0.0190877 -0.0371173  )
        16        H      tau(  16) = ( -0.1322239  0.0422564  0.0021079  )
        17        H      tau(  17) = ( -0.1346114 -0.0285803  0.0031705  )

     number of k points=     5  Marzari-Vanderbilt smearing, width (Ry)=  0.0200
                       cart. coord. in units 2pi/alat
        k(    1) = (   0.0000000   0.0000000   0.0000000), wk =   0.2222222
        k(    2) = (   0.0000000   0.3333333   0.0000000), wk =   0.4444444
        k(    3) = (   0.3333333   0.0000000   0.0000000), wk =   0.4444444
        k(    4) = (   0.3333333   0.3333333   0.0000000), wk =   0.4444444
        k(    5) = (   0.3333333  -0.3333333   0.0000000), wk =   0.4444444

                       cryst. coord.
        k(    1) = (   0.0000000   0.0000000   0.0000000), wk =   0.2222222
        k(    2) = (   0.0000000   0.3333333   0.0000000), wk =   0.4444444
        k(    3) = (   0.3333333   0.0000000   0.0000000), wk =   0.4444444
        k(    4) = (   0.3333333   0.3333333   0.0000000), wk =   0.4444444
        k(    5) = (   0.3333333  -0.3333333   0.0000000), wk =   0.4444444

     Dense  grid:  8342671 G-vectors     FFT dimensions: ( 256, 256, 256)

     Smooth grid:  3603727 G-vectors     FFT dimensions: ( 192, 192, 192)

     Dynamical RAM for                 wfc:       5.93 MB

     Dynamical RAM for     wfc (w. buffer):      35.55 MB

     Dynamical RAM for           str. fact:      13.17 MB

     Dynamical RAM for           local pot:       0.00 MB

     Dynamical RAM for          nlocal pot:      19.44 MB

     Dynamical RAM for                qrad:       1.15 MB

     Dynamical RAM for          rho,v,vnew:      26.67 MB

     Dynamical RAM for               rhoin:       8.89 MB

     Dynamical RAM for            rho*nmix:      70.23 MB

     Dynamical RAM for           G-vectors:      17.41 MB

     Dynamical RAM for          h,s,v(r/c):       0.11 MB

     Dynamical RAM for          <psi|beta>:       0.03 MB

     Dynamical RAM for                 psi:      11.85 MB

     Dynamical RAM for                hpsi:      11.85 MB

     Dynamical RAM for                spsi:      11.85 MB

     Dynamical RAM for      wfcinit/wfcrot:      19.47 MB

     Dynamical RAM for           addusdens:     228.26 MB

     Dynamical RAM for          addusforce:     300.70 MB

     Dynamical RAM for         addusstress:     219.48 MB

     Estimated static dynamical RAM per process >     162.33 MB

     Estimated max dynamical RAM per process >     533.26 MB

     Estimated total dynamical RAM >      15.10 GB
[ga00:830679] 28 more processes have sent help message help-mpi-btl-openib.txt / error in device init
[ga00:830679] Set MCA parameter "orte_base_help_aggregate" to 0 to see all help / error messages

     Initial potential from superposition of free atoms

     starting charge      41.9996, renormalised to      42.0000

     negative rho (up, down):  9.607E-03 0.000E+00
     Starting wfcs are   41 randomized atomic wfcs
     Checking if some PAW data can be deallocated... 
       PAW data deallocated on   15 nodes for type:  2

     total cpu time spent up to now is       10.9 secs

     Self-consistent Calculation

     iteration #  1     ecut=    40.00 Ry     beta= 0.40
     Davidson diagonalization with overlap

---- Real-time Memory Report at c_bands before calling an iterative solver
           490 MiB given to the printing process from OS
             0 MiB allocation reported by mallinfo(arena+hblkhd)
         58281 MiB available memory on the node where the printing process lives
------------------
     ethr =  1.00E-02,  avg # of iterations =  3.0

     negative rho (up, down):  1.075E-02 0.000E+00

     total cpu time spent up to now is       22.5 secs

     total energy              =    -159.73152539 Ry
     estimated scf accuracy    <       2.06212522 Ry

     iteration #  2     ecut=    40.00 Ry     beta= 0.40
     Davidson diagonalization with overlap

---- Real-time Memory Report at c_bands before calling an iterative solver
           572 MiB given to the printing process from OS
             0 MiB allocation reported by mallinfo(arena+hblkhd)
         56990 MiB available memory on the node where the printing process lives
------------------
     ethr =  4.91E-03,  avg # of iterations =  2.0

     negative rho (up, down):  1.152E-02 0.000E+00

     total cpu time spent up to now is       32.5 secs

     total energy              =    -159.87994534 Ry
     estimated scf accuracy    <       0.22002186 Ry

     iteration #  3     ecut=    40.00 Ry     beta= 0.40
     Davidson diagonalization with overlap

---- Real-time Memory Report at c_bands before calling an iterative solver
           576 MiB given to the printing process from OS
             0 MiB allocation reported by mallinfo(arena+hblkhd)
         56879 MiB available memory on the node where the printing process lives
------------------
     ethr =  5.24E-04,  avg # of iterations = 10.8

     negative rho (up, down):  1.222E-02 0.000E+00

     total cpu time spent up to now is       44.9 secs

     total energy              =    -159.89077210 Ry
     estimated scf accuracy    <       0.04088072 Ry

     iteration #  4     ecut=    40.00 Ry     beta= 0.40
     Davidson diagonalization with overlap

---- Real-time Memory Report at c_bands before calling an iterative solver
           578 MiB given to the printing process from OS
             0 MiB allocation reported by mallinfo(arena+hblkhd)
         56775 MiB available memory on the node where the printing process lives
------------------
     ethr =  9.73E-05,  avg # of iterations = 10.8

     negative rho (up, down):  1.223E-02 0.000E+00

     total cpu time spent up to now is       56.9 secs

     total energy              =    -159.89346428 Ry
     estimated scf accuracy    <       0.00425353 Ry

     iteration #  5     ecut=    40.00 Ry     beta= 0.40
     Davidson diagonalization with overlap

---- Real-time Memory Report at c_bands before calling an iterative solver
           582 MiB given to the printing process from OS
             0 MiB allocation reported by mallinfo(arena+hblkhd)
         56646 MiB available memory on the node where the printing process lives
------------------
     ethr =  1.01E-05,  avg # of iterations =  7.4

     negative rho (up, down):  1.217E-02 0.000E+00

     total cpu time spent up to now is       67.8 secs

     total energy              =    -159.89373031 Ry
     estimated scf accuracy    <       0.00063537 Ry

     iteration #  6     ecut=    40.00 Ry     beta= 0.40
     Davidson diagonalization with overlap

---- Real-time Memory Report at c_bands before calling an iterative solver
           586 MiB given to the printing process from OS
             0 MiB allocation reported by mallinfo(arena+hblkhd)
         56274 MiB available memory on the node where the printing process lives
------------------
     ethr =  1.51E-06,  avg # of iterations =  5.0

     negative rho (up, down):  1.215E-02 0.000E+00

     total cpu time spent up to now is       79.2 secs

     total energy              =    -159.89387508 Ry
     estimated scf accuracy    <       0.00011194 Ry

     iteration #  7     ecut=    40.00 Ry     beta= 0.40
     Davidson diagonalization with overlap

---- Real-time Memory Report at c_bands before calling an iterative solver
           590 MiB given to the printing process from OS
             0 MiB allocation reported by mallinfo(arena+hblkhd)
         56158 MiB available memory on the node where the printing process lives
------------------
     ethr =  2.67E-07,  avg # of iterations =  2.0

     negative rho (up, down):  1.215E-02 0.000E+00

     total cpu time spent up to now is       88.6 secs

     total energy              =    -159.89388506 Ry
     estimated scf accuracy    <       0.00000900 Ry

     iteration #  8     ecut=    40.00 Ry     beta= 0.40
     Davidson diagonalization with overlap

---- Real-time Memory Report at c_bands before calling an iterative solver
           594 MiB given to the printing process from OS
             0 MiB allocation reported by mallinfo(arena+hblkhd)
         56044 MiB available memory on the node where the printing process lives
------------------
     ethr =  2.14E-08,  avg # of iterations =  3.0

     negative rho (up, down):  1.215E-02 0.000E+00

     total cpu time spent up to now is       99.4 secs

     total energy              =    -159.89388704 Ry
     estimated scf accuracy    <       0.00000305 Ry

     iteration #  9     ecut=    40.00 Ry     beta= 0.40
     Davidson diagonalization with overlap

---- Real-time Memory Report at c_bands before calling an iterative solver
           598 MiB given to the printing process from OS
             0 MiB allocation reported by mallinfo(arena+hblkhd)
         55906 MiB available memory on the node where the printing process lives
------------------
     ethr =  7.26E-09,  avg # of iterations =  2.0

     negative rho (up, down):  1.216E-02 0.000E+00

     total cpu time spent up to now is      109.4 secs

     End of self-consistent calculation

          k = 0.0000 0.0000 0.0000 (450991 PWs)   bands (ev):

   -22.4201 -20.6020 -18.4587 -18.1402 -16.3063 -14.9123 -14.0715 -12.6244
   -12.4705 -11.0156 -10.5923 -10.1035  -9.9728  -9.9630  -8.9398  -8.8722
    -8.1328  -7.8948  -6.9782  -5.9807  -4.5433  -0.9960  -0.6229  -0.4932
    -0.2947

     occupation numbers 
     1.0000   1.0000   1.0000   1.0000   1.0000   1.0000   1.0000   1.0000
     1.0000   1.0000   1.0000   1.0000   1.0000   1.0000   1.0000   1.0000
     1.0000   1.0000   1.0000   1.0000   1.0000   0.0000   0.0000   0.0000
     0.0000

          k = 0.0000 0.3333 0.0000 (450515 PWs)   bands (ev):

   -22.4201 -20.6019 -18.4587 -18.1402 -16.3063 -14.9123 -14.0714 -12.6244
   -12.4705 -11.0156 -10.5923 -10.1034  -9.9728  -9.9630  -8.9398  -8.8721
    -8.1328  -7.8948  -6.9782  -5.9807  -4.5433  -0.9960  -0.6226  -0.4932
    -0.2921

     occupation numbers 
     1.0000   1.0000   1.0000   1.0000   1.0000   1.0000   1.0000   1.0000
     1.0000   1.0000   1.0000   1.0000   1.0000   1.0000   1.0000   1.0000
     1.0000   1.0000   1.0000   1.0000   1.0000   0.0000   0.0000   0.0000
     0.0000

          k = 0.3333 0.0000 0.0000 (450515 PWs)   bands (ev):

   -22.4201 -20.6019 -18.4587 -18.1402 -16.3063 -14.9123 -14.0714 -12.6244
   -12.4705 -11.0156 -10.5923 -10.1034  -9.9728  -9.9630  -8.9398  -8.8721
    -8.1328  -7.8948  -6.9782  -5.9807  -4.5433  -0.9960  -0.6227  -0.4932
    -0.2985

     occupation numbers 
     1.0000   1.0000   1.0000   1.0000   1.0000   1.0000   1.0000   1.0000
     1.0000   1.0000   1.0000   1.0000   1.0000   1.0000   1.0000   1.0000
     1.0000   1.0000   1.0000   1.0000   1.0000   0.0000   0.0000   0.0000
     0.0000

          k = 0.3333 0.3333 0.0000 (450333 PWs)   bands (ev):

   -22.4201 -20.6019 -18.4587 -18.1402 -16.3063 -14.9123 -14.0714 -12.6244
   -12.4705 -11.0156 -10.5923 -10.1034  -9.9728  -9.9630  -8.9398  -8.8721
    -8.1328  -7.8948  -6.9782  -5.9807  -4.5433  -0.9960  -0.6223  -0.4931
    -0.2957

     occupation numbers 
     1.0000   1.0000   1.0000   1.0000   1.0000   1.0000   1.0000   1.0000
     1.0000   1.0000   1.0000   1.0000   1.0000   1.0000   1.0000   1.0000
     1.0000   1.0000   1.0000   1.0000   1.0000   0.0000   0.0000   0.0000
     0.0000

          k = 0.3333-0.3333 0.0000 (450333 PWs)   bands (ev):

   -22.4201 -20.6019 -18.4587 -18.1402 -16.3063 -14.9123 -14.0714 -12.6244
   -12.4705 -11.0156 -10.5923 -10.1034  -9.9728  -9.9630  -8.9398  -8.8721
    -8.1328  -7.8948  -6.9782  -5.9807  -4.5433  -0.9960  -0.6223  -0.4931
    -0.2957

     occupation numbers 
     1.0000   1.0000   1.0000   1.0000   1.0000   1.0000   1.0000   1.0000
     1.0000   1.0000   1.0000   1.0000   1.0000   1.0000   1.0000   1.0000
     1.0000   1.0000   1.0000   1.0000   1.0000   0.0000   0.0000   0.0000
     0.0000

     the Fermi energy is    -2.7403 ev

!    total energy              =    -159.89388762 Ry
     estimated scf accuracy    <       0.00000017 Ry
     smearing contrib. (-TS)   =       0.00000000 Ry
     internal energy E=F+TS    =    -159.89388762 Ry

     The total energy is F=E-TS. E is the sum of the following terms:
     one-electron contribution =    -654.46851280 Ry
     hartree contribution      =     332.86130124 Ry
     xc contribution           =     -44.16901544 Ry
     ewald contribution        =     249.05795938 Ry
     DFT-D3 Dispersion         =      -0.01177639 Ry
     one-center paw contrib.   =     -43.16384361 Ry
      -> PAW hartree energy AE =       0.00000000 Ry
      -> PAW hartree energy PS =       0.00000000 Ry
      -> PAW xc energy AE      =       0.00000000 Ry
      -> PAW xc energy PS      =       0.00000000 Ry
      -> total E_H with PAW    =     332.86130124 Ry
      -> total E_XC with PAW   =     -44.16901544 Ry

     convergence has been achieved in   9 iterations

     negative rho (up, down):  1.216E-02 0.000E+00

     Forces acting on atoms (cartesian axes, Ry/au):

     atom    1 type  1   force =     0.01055943    0.00001573   -0.00009224
     atom    2 type  2   force =     0.00714335   -0.00852366   -0.00006964
     atom    3 type  2   force =    -0.05858559   -0.00054979    0.00065463
     atom    4 type  2   force =    -0.02014953    0.02864116   -0.00034069
     atom    5 type  2   force =    -0.02586814   -0.02330923    0.00072929
     atom    6 type  2   force =     0.01581772    0.00518479   -0.00018522
     atom    7 type  2   force =     0.01973495   -0.00434983   -0.00039044
     atom    8 type  2   force =     0.01232200   -0.00200437   -0.00004155
     atom    9 type  3   force =     0.00755288   -0.00856446    0.00005887
     atom   10 type  3   force =     0.00702210    0.00893541   -0.00018797
     atom   11 type  3   force =    -0.00880917   -0.00910191    0.00027873
     atom   12 type  3   force =    -0.00814178    0.00974110   -0.00000871
     atom   13 type  3   force =     0.00384206   -0.00545846   -0.01317995
     atom   14 type  3   force =    -0.00343028    0.01567891   -0.00014815
     atom   15 type  3   force =     0.00419500   -0.00507164    0.01330210
     atom   16 type  3   force =     0.01726036   -0.03340942    0.00030132
     atom   17 type  3   force =     0.01953464    0.03214566   -0.00068039
     The non-local contrib.  to forces
     atom    1 type  1   force =     0.03629416   -0.00061254   -0.00083284
     atom    2 type  2   force =     0.07156795   -0.00397300   -0.00089586
     atom    3 type  2   force =    -0.41195609    0.01495122    0.00497772
     atom    4 type  2   force =    -0.03321167   -0.01610038    0.00056774
     atom    5 type  2   force =    -0.02739115    0.02473248    0.00002292
     atom    6 type  2   force =    -0.04952757    0.02109704    0.00036957
     atom    7 type  2   force =    -0.04646934   -0.01629306    0.00076074
     atom    8 type  2   force =    -0.01326052    0.00802777    0.00003326
     atom    9 type  3   force =    -0.03597294    0.07049470   -0.00056950
     atom   10 type  3   force =    -0.04092987   -0.06766991    0.00151488
     atom   11 type  3   force =     0.03979319    0.06760840   -0.00149450
     atom   12 type  3   force =     0.03514130   -0.07020290    0.00057615
     atom   13 type  3   force =    -0.02535020   -0.03401023   -0.05811259
     atom   14 type  3   force =    -0.02546506    0.06744264   -0.00065659
     atom   15 type  3   force =    -0.02380861   -0.03227310    0.05973070
     atom   16 type  3   force =     0.04553811   -0.08232551    0.00063786
     atom   17 type  3   force =     0.05097950    0.07906521   -0.00178225
     The ionic contribution  to forces
     atom    1 type  1   force =    -9.45088895    0.31899989    0.11603350
     atom    2 type  2   force =     4.25440170   -0.21577855   -0.05085993
     atom    3 type  2   force =    -2.98304472    0.09723092    0.03742995
     atom    4 type  2   force =     2.58582154   -6.96166817    0.06947136
     atom    5 type  2   force =     3.01018226    6.77743148   -0.13691506
     atom    6 type  2   force =    -2.76340425   -6.91394837    0.13716233
     atom    7 type  2   force =    -2.30159696    7.08171223   -0.07324405
     atom    8 type  2   force =     7.14557741   -0.24295467   -0.08887968
     atom    9 type  3   force =     1.40186096   -3.31726230    0.03061432
     atom   10 type  3   force =     1.63129138    3.21553370   -0.06784251
     atom   11 type  3   force =    -1.61088277   -3.24818357    0.06815326
     atom   12 type  3   force =    -1.38941810    3.34993165   -0.03110373
     atom   13 type  3   force =     2.03460245    1.18433739    2.17302199
     atom   14 type  3   force =     2.04346215   -2.43355940    0.00914109
     atom   15 type  3   force =     1.97695648    1.11913747   -2.25922991
     atom   16 type  3   force =    -2.69882898    2.87875099   -0.00823549
     atom   17 type  3   force =    -2.88609159   -2.68971071    0.07528257
     The local contribution  to forces
     atom    1 type  1   force =     9.42557705   -0.31837988   -0.11533090
     atom    2 type  2   force =    -4.31481361    0.21096946    0.05176132
     atom    3 type  2   force =     3.32652239   -0.11238639   -0.04154871
     atom    4 type  2   force =    -2.57233537    7.00484462   -0.07018171
     atom    5 type  2   force =    -3.00834957   -6.82378259    0.13753432
     atom    6 type  2   force =     2.82705544    6.89726760   -0.13777866
     atom    7 type  2   force =     2.36608693   -7.06878179    0.07231173
     atom    8 type  2   force =    -7.12045755    0.23294963    0.08870109
     atom    9 type  3   force =    -1.35833007    3.23814729   -0.03001567
     atom   10 type  3   force =    -1.58339153   -3.13886081    0.06610880
     atom   11 type  3   force =     1.56224105    3.17144976   -0.06640953
     atom   12 type  3   force =     1.34609383   -3.26995732    0.03048855
     atom   13 type  3   force =    -2.00527487   -1.15580198   -2.12818998
     atom   14 type  3   force =    -2.02156131    2.38181771   -0.00866178
     atom   15 type  3   force =    -1.94881583   -1.09195040    2.21283792
     atom   16 type  3   force =     2.67055755   -2.82980231    0.00786794
     atom   17 type  3   force =     2.85465082    2.64276069   -0.07421073
     The core correction contribution to forces
     atom    1 type  1   force =    -0.00051548    0.00001271    0.00000758
     atom    2 type  2   force =    -0.00373345    0.00023809   -0.00010926
     atom    3 type  2   force =     0.00972616   -0.00034112   -0.00023218
     atom    4 type  2   force =    -0.00032070    0.00152650   -0.00022973
     atom    5 type  2   force =    -0.00031712   -0.00166491    0.00005581
     atom    6 type  2   force =     0.00139194    0.00081211    0.00003470
     atom    7 type  2   force =     0.00140120   -0.00100771   -0.00024507
     atom    8 type  2   force =     0.00054597   -0.00000604    0.00007130
     atom    9 type  3   force =     0.00000000    0.00000000    0.00000000
     atom   10 type  3   force =     0.00000000    0.00000000    0.00000000
     atom   11 type  3   force =     0.00000000    0.00000000    0.00000000
     atom   12 type  3   force =     0.00000000    0.00000000    0.00000000
     atom   13 type  3   force =     0.00000000    0.00000000    0.00000000
     atom   14 type  3   force =     0.00000000    0.00000000    0.00000000
     atom   15 type  3   force =     0.00000000    0.00000000    0.00000000
     atom   16 type  3   force =     0.00000000    0.00000000    0.00000000
     atom   17 type  3   force =     0.00000000    0.00000000    0.00000000
     The Hubbard contrib.    to forces
     atom    1 type  1   force =     0.00000000    0.00000000    0.00000000
     atom    2 type  2   force =     0.00000000    0.00000000    0.00000000
     atom    3 type  2   force =     0.00000000    0.00000000    0.00000000
     atom    4 type  2   force =     0.00000000    0.00000000    0.00000000
     atom    5 type  2   force =     0.00000000    0.00000000    0.00000000
     atom    6 type  2   force =     0.00000000    0.00000000    0.00000000
     atom    7 type  2   force =     0.00000000    0.00000000    0.00000000
     atom    8 type  2   force =     0.00000000    0.00000000    0.00000000
     atom    9 type  3   force =     0.00000000    0.00000000    0.00000000
     atom   10 type  3   force =     0.00000000    0.00000000    0.00000000
     atom   11 type  3   force =     0.00000000    0.00000000    0.00000000
     atom   12 type  3   force =     0.00000000    0.00000000    0.00000000
     atom   13 type  3   force =     0.00000000    0.00000000    0.00000000
     atom   14 type  3   force =     0.00000000    0.00000000    0.00000000
     atom   15 type  3   force =     0.00000000    0.00000000    0.00000000
     atom   16 type  3   force =     0.00000000    0.00000000    0.00000000
     atom   17 type  3   force =     0.00000000    0.00000000    0.00000000
     The SCF correction term to forces
     atom    1 type  1   force =     0.00012503   -0.00000435   -0.00000039
     atom    2 type  2   force =    -0.00011483    0.00001579    0.00000157
     atom    3 type  2   force =     0.00008954   -0.00000101   -0.00000168
     atom    4 type  2   force =    -0.00008410    0.00012854   -0.00000034
     atom    5 type  2   force =    -0.00008541   -0.00012054    0.00000344
     atom    6 type  2   force =     0.00012114    0.00012617   -0.00000378
     atom    7 type  2   force =     0.00011641   -0.00013385    0.00000054
     atom    8 type  2   force =    -0.00012190   -0.00000128    0.00000226
     atom    9 type  3   force =    -0.00001108    0.00002020   -0.00000010
     atom   10 type  3   force =    -0.00001319   -0.00002219    0.00000060
     atom   11 type  3   force =     0.00000024    0.00000948   -0.00000023
     atom   12 type  3   force =     0.00000026   -0.00001044    0.00000011
     atom   13 type  3   force =    -0.00003019   -0.00000650   -0.00000915
     atom   14 type  3   force =    -0.00003175    0.00001221    0.00000034
     atom   15 type  3   force =    -0.00002980   -0.00000611    0.00001019
     atom   16 type  3   force =     0.00002404   -0.00001212   -0.00000008
     atom   17 type  3   force =     0.00002500    0.00001055   -0.00000047

     DFT-D3 dispersion contribution to forces:
     atom    1 type  1   force =    -0.00005682    0.00000203    0.00000066
     atom    2 type  2   force =    -0.00018884    0.00000669    0.00000236
     atom    3 type  2   force =     0.00005270   -0.00000127   -0.00000062
     atom    4 type  2   force =    -0.00004368   -0.00008782    0.00000184
     atom    5 type  2   force =     0.00006841    0.00009698   -0.00000229
     atom    6 type  2   force =     0.00015658   -0.00016762    0.00000046
     atom    7 type  2   force =     0.00017226    0.00015649   -0.00000448
     atom    8 type  2   force =     0.00001414   -0.00001765    0.00000006
     atom    9 type  3   force =    -0.00001843    0.00003777   -0.00000032
     atom   10 type  3   force =     0.00004088   -0.00004325    0.00000010
     atom   11 type  3   force =     0.00001468    0.00001615   -0.00000042
     atom   12 type  3   force =     0.00001648   -0.00001776    0.00000005
     atom   13 type  3   force =    -0.00012958    0.00002500    0.00007964
     atom   14 type  3   force =     0.00014124   -0.00003212   -0.00000136
     atom   15 type  3   force =    -0.00013168    0.00002264   -0.00007695
     atom   16 type  3   force =    -0.00005480   -0.00001833    0.00000095
     atom   17 type  3   force =    -0.00005353    0.00002205    0.00000033

     Total force =     0.105148     Total SCF correction =     0.000407

     DFT-D3 dispersion Force =     0.000504


     Computing stress (Cartesian axis) and pressure


     negative rho (up, down):  1.216E-02 0.000E+00
          total   stress  (Ry/bohr**3)                   (kbar)     P=       -0.18
  -0.00000093   0.00000009  -0.00000000           -0.14        0.01       -0.00
   0.00000009  -0.00000177   0.00000001            0.01       -0.26        0.00
  -0.00000000   0.00000001  -0.00000089           -0.00        0.00       -0.13

     kinetic stress (kbar)     64.85      0.01      0.11
                                0.01     63.75      0.15
                                0.11      0.15     73.83

     local   stress (kbar)   -564.28      6.37      5.86
                                6.37   -356.84      3.84
                                5.86      3.84    -85.03

     nonloc. stress (kbar)     14.47     -0.00     -0.01
                               -0.00     14.40     -0.01
                               -0.01     -0.01     13.71

     hartree stress (kbar)    252.78     -2.88     -2.41
                               -2.88    157.58     -1.45
                               -2.41     -1.45     54.02

     exc-cor stress (kbar)     -5.43     -0.00     -0.01
                               -0.00     -5.44     -0.01
                               -0.01     -0.01     -5.93

     corecor stress (kbar)    -11.51     -0.00      0.00
                               -0.00    -11.53      0.00
                                0.00      0.00    -11.39

     ewald   stress (kbar)    248.99     -3.49     -3.54
                               -3.49    137.83     -2.52
                               -3.54     -2.52    -39.35

     hubbard stress (kbar)      0.00      0.00      0.00
                                0.00      0.00      0.00
                                0.00      0.00      0.00

     DFT-D   stress (kbar)     -0.00      0.00      0.00
                                0.00      0.00     -0.00
                                0.00     -0.00      0.00

     XDM     stress (kbar)      0.00      0.00      0.00
                                0.00      0.00      0.00
                                0.00      0.00      0.00

     dft-nl  stress (kbar)      0.00      0.00      0.00
                                0.00      0.00      0.00
                                0.00      0.00      0.00

     TS-vdW  stress (kbar)      0.00      0.00      0.00
                                0.00      0.00      0.00
                                0.00      0.00      0.00

     MDB     stress (kbar)      0.00      0.00      0.00
                                0.00      0.00      0.00
                                0.00      0.00      0.00

     3D-RISM stress (kbar)      0.00      0.00      0.00
                                0.00      0.00      0.00
                                0.00      0.00      0.00


     BFGS Geometry Optimization
     Energy error            =      0.0E+00 Ry
     Gradient error          =      5.9E-02 Ry/Bohr

     number of scf cycles    =   1
     number of bfgs steps    =   0

     energy             new  =    -159.8938876203 Ry

     new trust radius        =       0.0585918274 bohr
     new conv_thr            =       0.0000010000 Ry


ATOMIC_POSITIONS (angstrom)
N               -2.8039252779        0.1531395356        0.0597029264
C                1.4209602277        0.0059065030        0.0079709541
C               -1.4248550052        0.1048713672        0.0429299446
C                0.6582977258       -1.1621836972        0.0348373298
C                0.7366903952        1.2321876935       -0.0010415379
C               -0.7201452210       -1.1265839131        0.0520854110
C               -0.6365223177        1.2894587346        0.0155592731
C                2.9232307095       -0.0263463378       -0.0109542058
H                1.1683539441       -2.1448346689        0.0427663366
H                1.3170598291        2.1744112613       -0.0222671462
H               -1.2967470362       -2.0585561858        0.0730270682
H               -1.1510586493        2.2574888949        0.0081062592
H                3.3159362942        0.5009282447        0.8738278386
H                3.2989170121       -1.0592885091       -0.0007270369
H                3.2924917634        0.4745074891       -0.9208927571
H               -3.2964627665        1.0387300679        0.0528579307
H               -3.3549474806       -0.6974965902        0.0789017970



     Writing config-only to output data dir ./tmp/ptoluidine.save/ :
     XML data file
     NEW-OLD atomic charge density approx. for the potential

     negative rho (up, down):  1.212E-02 0.000E+00

     total cpu time spent up to now is      124.5 secs

     Self-consistent Calculation

     iteration #  1     ecut=    40.00 Ry     beta= 0.40
     Davidson diagonalization with overlap

---- Real-time Memory Report at c_bands before calling an iterative solver
           603 MiB given to the printing process from OS
             0 MiB allocation reported by mallinfo(arena+hblkhd)
         57625 MiB available memory on the node where the printing process lives
------------------
     ethr =  1.00E-06,  avg # of iterations =  7.0

     negative rho (up, down):  1.217E-02 0.000E+00

     total cpu time spent up to now is      143.0 secs

     total energy              =    -159.89698287 Ry
     estimated scf accuracy    <       0.00255792 Ry

     iteration #  2     ecut=    40.00 Ry     beta= 0.40
     Davidson diagonalization with overlap

---- Real-time Memory Report at c_bands before calling an iterative solver
           603 MiB given to the printing process from OS
             0 MiB allocation reported by mallinfo(arena+hblkhd)
         56260 MiB available memory on the node where the printing process lives
------------------
     ethr =  6.09E-06,  avg # of iterations =  2.0

     negative rho (up, down):  1.220E-02 0.000E+00

     total cpu time spent up to now is      152.0 secs

     total energy              =    -159.89708167 Ry
     estimated scf accuracy    <       0.00043494 Ry

     iteration #  3     ecut=    40.00 Ry     beta= 0.40
     Davidson diagonalization with overlap

---- Real-time Memory Report at c_bands before calling an iterative solver
           603 MiB given to the printing process from OS
             0 MiB allocation reported by mallinfo(arena+hblkhd)
         56147 MiB available memory on the node where the printing process lives
------------------
     ethr =  1.04E-06,  avg # of iterations =  2.0

     negative rho (up, down):  1.222E-02 0.000E+00

     total cpu time spent up to now is      161.7 secs

     total energy              =    -159.89711537 Ry
     estimated scf accuracy    <       0.00007680 Ry

     iteration #  4     ecut=    40.00 Ry     beta= 0.40
     Davidson diagonalization with overlap

---- Real-time Memory Report at c_bands before calling an iterative solver
           603 MiB given to the printing process from OS
             0 MiB allocation reported by mallinfo(arena+hblkhd)
         56047 MiB available memory on the node where the printing process lives
------------------
     ethr =  1.83E-07,  avg # of iterations =  2.0

     negative rho (up, down):  1.222E-02 0.000E+00

     total cpu time spent up to now is      170.8 secs

     total energy              =    -159.89712355 Ry
     estimated scf accuracy    <       0.00001186 Ry

     iteration #  5     ecut=    40.00 Ry     beta= 0.40
     Davidson diagonalization with overlap

---- Real-time Memory Report at c_bands before calling an iterative solver
           603 MiB given to the printing process from OS
             0 MiB allocation reported by mallinfo(arena+hblkhd)
         55923 MiB available memory on the node where the printing process lives
------------------
     ethr =  2.82E-08,  avg # of iterations =  2.0

     negative rho (up, down):  1.223E-02 0.000E+00

     total cpu time spent up to now is      180.1 secs

     total energy              =    -159.89712466 Ry
     estimated scf accuracy    <       0.00000130 Ry

     iteration #  6     ecut=    40.00 Ry     beta= 0.40
     Davidson diagonalization with overlap

---- Real-time Memory Report at c_bands before calling an iterative solver
           603 MiB given to the printing process from OS
             0 MiB allocation reported by mallinfo(arena+hblkhd)
         55816 MiB available memory on the node where the printing process lives
------------------
     ethr =  3.09E-09,  avg # of iterations =  2.0

     negative rho (up, down):  1.223E-02 0.000E+00

     total cpu time spent up to now is      189.4 secs

     End of self-consistent calculation

          k = 0.0000 0.0000 0.0000 (450991 PWs)   bands (ev):

   -22.7799 -20.6554 -18.4336 -18.1165 -16.3596 -14.8129 -14.1680 -12.7134
   -12.6828 -10.9871 -10.5996 -10.0353  -9.9710  -9.8192  -9.0198  -8.8754
    -8.2168  -7.6522  -7.1304  -5.9985  -4.4985  -0.8382  -0.6346  -0.4697
    -0.2788

     occupation numbers 
     1.0000   1.0000   1.0000   1.0000   1.0000   1.0000   1.0000   1.0000
     1.0000   1.0000   1.0000   1.0000   1.0000   1.0000   1.0000   1.0000
     1.0000   1.0000   1.0000   1.0000   1.0000   0.0000   0.0000   0.0000
     0.0000

          k = 0.0000 0.3333 0.0000 (450515 PWs)   bands (ev):

   -22.7799 -20.6554 -18.4336 -18.1165 -16.3596 -14.8129 -14.1680 -12.7134
   -12.6828 -10.9870 -10.5996 -10.0353  -9.9710  -9.8192  -9.0197  -8.8754
    -8.2167  -7.6521  -7.1304  -5.9985  -4.4985  -0.8382  -0.6343  -0.4696
    -0.2758

     occupation numbers 
     1.0000   1.0000   1.0000   1.0000   1.0000   1.0000   1.0000   1.0000
     1.0000   1.0000   1.0000   1.0000   1.0000   1.0000   1.0000   1.0000
     1.0000   1.0000   1.0000   1.0000   1.0000   0.0000   0.0000   0.0000
     0.0000

          k = 0.3333 0.0000 0.0000 (450515 PWs)   bands (ev):

   -22.7799 -20.6554 -18.4336 -18.1165 -16.3596 -14.8129 -14.1680 -12.7134
   -12.6828 -10.9870 -10.5996 -10.0353  -9.9710  -9.8192  -9.0197  -8.8754
    -8.2167  -7.6521  -7.1304  -5.9985  -4.4985  -0.8382  -0.6344  -0.4696
    -0.2830

     occupation numbers 
     1.0000   1.0000   1.0000   1.0000   1.0000   1.0000   1.0000   1.0000
     1.0000   1.0000   1.0000   1.0000   1.0000   1.0000   1.0000   1.0000
     1.0000   1.0000   1.0000   1.0000   1.0000   0.0000   0.0000   0.0000
     0.0000

          k = 0.3333 0.3333 0.0000 (450333 PWs)   bands (ev):

   -22.7799 -20.6554 -18.4336 -18.1165 -16.3595 -14.8129 -14.1680 -12.7133
   -12.6828 -10.9870 -10.5996 -10.0353  -9.9710  -9.8192  -9.0197  -8.8754
    -8.2167  -7.6521  -7.1304  -5.9985  -4.4984  -0.8382  -0.6341  -0.4696
    -0.2799

     occupation numbers 
     1.0000   1.0000   1.0000   1.0000   1.0000   1.0000   1.0000   1.0000
     1.0000   1.0000   1.0000   1.0000   1.0000   1.0000   1.0000   1.0000
     1.0000   1.0000   1.0000   1.0000   1.0000   0.0000   0.0000   0.0000
     0.0000

          k = 0.3333-0.3333 0.0000 (450333 PWs)   bands (ev):

   -22.7799 -20.6554 -18.4336 -18.1165 -16.3595 -14.8129 -14.1680 -12.7134
   -12.6828 -10.9870 -10.5996 -10.0353  -9.9710  -9.8192  -9.0197  -8.8754
    -8.2167  -7.6521  -7.1304  -5.9985  -4.4984  -0.8382  -0.6341  -0.4696
    -0.2800

     occupation numbers 
     1.0000   1.0000   1.0000   1.0000   1.0000   1.0000   1.0000   1.0000
     1.0000   1.0000   1.0000   1.0000   1.0000   1.0000   1.0000   1.0000
     1.0000   1.0000   1.0000   1.0000   1.0000   0.0000   0.0000   0.0000
     0.0000

     the Fermi energy is    -2.7946 ev

!    total energy              =    -159.89712483 Ry
     estimated scf accuracy    <       0.00000019 Ry
     smearing contrib. (-TS)   =       0.00000000 Ry
     internal energy E=F+TS    =    -159.89712483 Ry

     The total energy is F=E-TS. E is the sum of the following terms:
     one-electron contribution =    -655.74741556 Ry
     hartree contribution      =     333.49323350 Ry
     xc contribution           =     -44.21376059 Ry
     ewald contribution        =     249.74649450 Ry
     DFT-D3 Dispersion         =      -0.01176700 Ry
     one-center paw contrib.   =     -43.16390967 Ry
      -> PAW hartree energy AE =       0.00000000 Ry
      -> PAW hartree energy PS =       0.00000000 Ry
      -> PAW xc energy AE      =       0.00000000 Ry
      -> PAW xc energy PS      =       0.00000000 Ry
      -> total E_H with PAW    =     333.49323350 Ry
      -> total E_XC with PAW   =     -44.21376059 Ry

     convergence has been achieved in   6 iterations

     negative rho (up, down):  1.223E-02 0.000E+00

     Forces acting on atoms (cartesian axes, Ry/au):

     atom    1 type  1   force =    -0.00251620   -0.00013857    0.00007868
     atom    2 type  2   force =     0.00428668    0.00371673   -0.00018005
     atom    3 type  2   force =     0.02620929   -0.00068144   -0.00040503
     atom    4 type  2   force =     0.02465779   -0.01672043   -0.00022076
     atom    5 type  2   force =     0.03052684    0.00709288   -0.00048105
     atom    6 type  2   force =    -0.04582892    0.00786866    0.00051581
     atom    7 type  2   force =    -0.04799934   -0.00502631    0.00052145
     atom    8 type  2   force =    -0.00396080    0.00178067    0.00003884
     atom    9 type  3   force =    -0.00748765    0.01590361   -0.00011780
     atom   10 type  3   force =    -0.00914222   -0.01429471    0.00036945
     atom   11 type  3   force =     0.00318324    0.00207041   -0.00002646
     atom   12 type  3   force =     0.00311618   -0.00229633    0.00001225
     atom   13 type  3   force =     0.00679831   -0.00127775   -0.00524217
     atom   14 type  3   force =     0.00181498    0.00293297   -0.00002375
     atom   15 type  3   force =     0.00694056   -0.00114773    0.00521983
     atom   16 type  3   force =     0.00441031   -0.00759320    0.00008463
     atom   17 type  3   force =     0.00499096    0.00781052   -0.00014387
     The non-local contrib.  to forces
     atom    1 type  1   force =     0.03920759   -0.00162658   -0.00095700
     atom    2 type  2   force =     0.06857835    0.01148774   -0.00106319
     atom    3 type  2   force =    -0.34323022    0.01864959    0.00407136
     atom    4 type  2   force =     0.00554877   -0.06917939    0.00088704
     atom    5 type  2   force =     0.02581908    0.06228965   -0.00128423
     atom    6 type  2   force =    -0.11079491    0.02136993    0.00103693
     atom    7 type  2   force =    -0.11783899   -0.01584159    0.00173407
     atom    8 type  2   force =    -0.03598545    0.01248348    0.00017337
     atom    9 type  3   force =    -0.03398801    0.06559651   -0.00053175
     atom   10 type  3   force =    -0.03877320   -0.06300622    0.00142070
     atom   11 type  3   force =     0.03894432    0.06460111   -0.00143695
     atom   12 type  3   force =     0.03462880   -0.06704163    0.00052708
     atom   13 type  3   force =    -0.02579266   -0.03493327   -0.05931468
     atom   14 type  3   force =    -0.02588110    0.06974363   -0.00068252
     atom   15 type  3   force =    -0.02421335   -0.03315382    0.06096452
     atom   16 type  3   force =     0.04877880   -0.08693179    0.00066540
     atom   17 type  3   force =     0.05442421    0.08338118   -0.00188736
     The ionic contribution  to forces
     atom    1 type  1   force =    -9.64961814    0.33317171    0.11881366
     atom    2 type  2   force =     4.38603439   -0.18065572   -0.05358711
     atom    3 type  2   force =    -2.67840487    0.10309701    0.03295175
     atom    4 type  2   force =     2.67026612   -7.03002692    0.06830969
     atom    5 type  2   force =     3.17082077    6.78867648   -0.13824333
     atom    6 type  2   force =    -2.87637090   -6.87251184    0.13907305
     atom    7 type  2   force =    -2.45546554    7.02773329   -0.07167077
     atom    8 type  2   force =     7.09576063   -0.22450096   -0.08815218
     atom    9 type  3   force =     1.36855144   -3.24005086    0.03010936
     atom   10 type  3   force =     1.59771575    3.13720111   -0.06623965
     atom   11 type  3   force =    -1.58933614   -3.20483283    0.06724187
     atom   12 type  3   force =    -1.37483337    3.30199620   -0.03036514
     atom   13 type  3   force =     2.04366834    1.20387348    2.19401917
     atom   14 type  3   force =     2.05365430   -2.47734157    0.00963751
     atom   15 type  3   force =     1.98543850    1.13794606   -2.28088793
     atom   16 type  3   force =    -2.77767501    2.96563832   -0.00850954
     atom   17 type  3   force =    -2.97020627   -2.76941295    0.07749959
     The local contribution  to forces
     atom    1 type  1   force =     9.60820191   -0.33177179   -0.11781472
     atom    2 type  2   force =    -4.44609876    0.17304500    0.05453102
     atom    3 type  2   force =     3.04076436   -0.12209267   -0.03725690
     atom    4 type  2   force =    -2.64969839    7.07962041   -0.06920449
     atom    5 type  2   force =    -3.16415787   -6.84150659    0.13892965
     atom    6 type  2   force =     2.93815525    6.85848625   -0.13964127
     atom    7 type  2   force =     2.52173149   -7.01629958    0.07070624
     atom    8 type  2   force =    -7.06502317    0.21396488    0.08792879
     atom    9 type  3   force =    -1.34207328    3.19035857   -0.02972678
     atom   10 type  3   force =    -1.56814143   -3.08847698    0.06515720
     atom   11 type  3   force =     1.55354482    3.14231708   -0.06586296
     atom   12 type  3   force =     1.34326266   -3.23724715    0.02981938
     atom   13 type  3   force =    -2.01099801   -1.17025201   -2.14005822
     atom   14 type  3   force =    -2.02614859    2.41056090   -0.00900844
     atom   15 type  3   force =    -1.95420310   -1.10597170    2.22519024
     atom   16 type  3   force =     2.73326418   -2.88621223    0.00789628
     atom   17 type  3   force =     2.92073420    2.69374160   -0.07578587
     The core correction contribution to forces
     atom    1 type  1   force =    -0.00041673    0.00001791    0.00000695
     atom    2 type  2   force =    -0.00400201   -0.00022740   -0.00009432
     atom    3 type  2   force =     0.00737390   -0.00045556   -0.00020493
     atom    4 type  2   force =    -0.00138917    0.00292402   -0.00024600
     atom    5 type  2   force =    -0.00188379   -0.00254744    0.00008668
     atom    6 type  2   force =     0.00307054    0.00069171    0.00001420
     atom    7 type  2   force =     0.00337300   -0.00087350   -0.00027334
     atom    8 type  2   force =     0.00108206   -0.00016229    0.00005933
     atom    9 type  3   force =     0.00000000    0.00000000    0.00000000
     atom   10 type  3   force =     0.00000000    0.00000000    0.00000000
     atom   11 type  3   force =     0.00000000    0.00000000    0.00000000
     atom   12 type  3   force =     0.00000000    0.00000000    0.00000000
     atom   13 type  3   force =     0.00000000    0.00000000    0.00000000
     atom   14 type  3   force =     0.00000000    0.00000000    0.00000000
     atom   15 type  3   force =     0.00000000    0.00000000    0.00000000
     atom   16 type  3   force =     0.00000000    0.00000000    0.00000000
     atom   17 type  3   force =     0.00000000    0.00000000    0.00000000
     The Hubbard contrib.    to forces
     atom    1 type  1   force =     0.00000000    0.00000000    0.00000000
     atom    2 type  2   force =     0.00000000    0.00000000    0.00000000
     atom    3 type  2   force =     0.00000000    0.00000000    0.00000000
     atom    4 type  2   force =     0.00000000    0.00000000    0.00000000
     atom    5 type  2   force =     0.00000000    0.00000000    0.00000000
     atom    6 type  2   force =     0.00000000    0.00000000    0.00000000
     atom    7 type  2   force =     0.00000000    0.00000000    0.00000000
     atom    8 type  2   force =     0.00000000    0.00000000    0.00000000
     atom    9 type  3   force =     0.00000000    0.00000000    0.00000000
     atom   10 type  3   force =     0.00000000    0.00000000    0.00000000
     atom   11 type  3   force =     0.00000000    0.00000000    0.00000000
     atom   12 type  3   force =     0.00000000    0.00000000    0.00000000
     atom   13 type  3   force =     0.00000000    0.00000000    0.00000000
     atom   14 type  3   force =     0.00000000    0.00000000    0.00000000
     atom   15 type  3   force =     0.00000000    0.00000000    0.00000000
     atom   16 type  3   force =     0.00000000    0.00000000    0.00000000
     atom   17 type  3   force =     0.00000000    0.00000000    0.00000000
     The SCF correction term to forces
     atom    1 type  1   force =     0.00013982    0.00006671   -0.00000220
     atom    2 type  2   force =    -0.00007773    0.00006497   -0.00000001
     atom    3 type  2   force =    -0.00033704    0.00011959    0.00000254
     atom    4 type  2   force =    -0.00005352    0.00001413    0.00000007
     atom    5 type  2   force =    -0.00016988    0.00009633    0.00000097
     atom    6 type  2   force =    -0.00008606   -0.00000792    0.00000136
     atom    7 type  2   force =    -0.00001234    0.00010326   -0.00000149
     atom    8 type  2   force =     0.00015836    0.00001074   -0.00000176
     atom    9 type  3   force =     0.00001039   -0.00003502    0.00000035
     atom   10 type  3   force =    -0.00001467    0.00002219   -0.00000007
     atom   11 type  3   force =    -0.00002100   -0.00002522    0.00000069
     atom   12 type  3   force =     0.00000369    0.00000451   -0.00000018
     atom   13 type  3   force =     0.00002754    0.00000839    0.00000912
     atom   14 type  3   force =     0.00003073   -0.00000838   -0.00000024
     atom   15 type  3   force =     0.00002732    0.00000816   -0.00001001
     atom   16 type  3   force =     0.00004508   -0.00005436    0.00000029
     atom   17 type  3   force =     0.00004096    0.00006086   -0.00000134

     DFT-D3 dispersion contribution to forces:
     atom    1 type  1   force =    -0.00006196    0.00000164    0.00000074
     atom    2 type  2   force =    -0.00017887    0.00000031    0.00000229
     atom    3 type  2   force =     0.00001184   -0.00000122   -0.00000012
     atom    4 type  2   force =    -0.00004732   -0.00007451    0.00000167
     atom    5 type  2   force =     0.00006721    0.00008262   -0.00000206
     atom    6 type  2   force =     0.00016585   -0.00016129    0.00000027
     atom    7 type  2   force =     0.00018174    0.00014999   -0.00000453
     atom    8 type  2   force =     0.00001546   -0.00001701    0.00000004
     atom    9 type  3   force =    -0.00001949    0.00003259   -0.00000023
     atom   10 type  3   force =     0.00004002   -0.00003665    0.00000002
     atom   11 type  3   force =     0.00001994    0.00000845   -0.00000037
     atom   12 type  3   force =     0.00002310   -0.00001008   -0.00000014
     atom   13 type  3   force =    -0.00013821    0.00002384    0.00007118
     atom   14 type  3   force =     0.00012833   -0.00002344   -0.00000131
     atom   15 type  3   force =    -0.00014011    0.00002174   -0.00006824
     atom   16 type  3   force =    -0.00003405   -0.00003497    0.00000094
     atom   17 type  3   force =    -0.00003345    0.00003800   -0.00000015

     Total force =     0.089780     Total SCF correction =     0.000513

     DFT-D3 dispersion Force =     0.000492


     Computing stress (Cartesian axis) and pressure


     negative rho (up, down):  1.223E-02 0.000E+00
          total   stress  (Ry/bohr**3)                   (kbar)     P=       -0.09
   0.00000061   0.00000006  -0.00000002            0.09        0.01       -0.00
   0.00000006  -0.00000184   0.00000002            0.01       -0.27        0.00
  -0.00000002   0.00000002  -0.00000062           -0.00        0.00       -0.09

     kinetic stress (kbar)     64.74      0.02      0.12
                                0.02     64.12      0.14
                                0.12      0.14     73.99

     local   stress (kbar)   -567.41      6.46      5.89
                                6.46   -355.34      3.81
                                5.89      3.81    -85.36

     nonloc. stress (kbar)     14.55     -0.00     -0.01
                               -0.00     14.34     -0.01
                               -0.01     -0.01     13.70

     hartree stress (kbar)    253.58     -2.91     -2.42
                               -2.91    157.43     -1.44
                               -2.42     -1.44     54.25

     exc-cor stress (kbar)     -5.44     -0.00     -0.01
                               -0.00     -5.47     -0.01
                               -0.01     -0.01     -5.95

     corecor stress (kbar)    -11.52     -0.00      0.00
                               -0.00    -11.52      0.00
                                0.00      0.00    -11.39

     ewald   stress (kbar)    251.59     -3.55     -3.58
                               -3.55    136.17     -2.49
                               -3.58     -2.49    -39.34

     hubbard stress (kbar)      0.00      0.00      0.00
                                0.00      0.00      0.00
                                0.00      0.00      0.00

     DFT-D   stress (kbar)     -0.00      0.00      0.00
                                0.00      0.00     -0.00
                                0.00     -0.00      0.00

     XDM     stress (kbar)      0.00      0.00      0.00
                                0.00      0.00      0.00
                                0.00      0.00      0.00

     dft-nl  stress (kbar)      0.00      0.00      0.00
                                0.00      0.00      0.00
                                0.00      0.00      0.00

     TS-vdW  stress (kbar)      0.00      0.00      0.00
                                0.00      0.00      0.00
                                0.00      0.00      0.00

     MDB     stress (kbar)      0.00      0.00      0.00
                                0.00      0.00      0.00
                                0.00      0.00      0.00

     3D-RISM stress (kbar)      0.00      0.00      0.00
                                0.00      0.00      0.00
                                0.00      0.00      0.00

     Energy error            =      3.2E-03 Ry
     Gradient error          =      4.8E-02 Ry/Bohr

     number of scf cycles    =   2
     number of bfgs steps    =   1

     energy             old  =    -159.8938876203 Ry
     energy             new  =    -159.8971248263 Ry

     CASE: energy            _new < energy            _old

     new trust radius        =       0.0287328378 bohr
     new conv_thr            =       0.0000009600 Ry


ATOMIC_POSITIONS (angstrom)
N               -2.8033546368        0.1530903590        0.0597189796
C                1.4235685636        0.0060713684        0.0078942209
C               -1.4234757776        0.1045401787        0.0428729089
C                0.6645769733       -1.1643078646        0.0347068750
C                0.7443327910        1.2314989479       -0.0011161466
C               -0.7348976171       -1.1229254260        0.0522504287
C               -0.6515220343        1.2869739183        0.0156971455
C                2.9235164031       -0.0259711310       -0.0109457120
H                1.1666514956       -2.1401534014        0.0427310110
H                1.3146677979        2.1703798601       -0.0221568313
H               -1.2968208112       -2.0590846027        0.0730569578
H               -1.1510622288        2.2580245431        0.0081095648
H                3.3190063139        0.4996764772        0.8700049519
H                3.2991018131       -1.0559664918       -0.0007569563
H                3.2956648480        0.4733590745       -0.9170607560
H               -3.2923672480        1.0311528146        0.0529322623
H               -3.3503124992       -0.6900187345        0.0787514812



     Writing config-only to output data dir ./tmp/ptoluidine.save/ :
     XML data file
     NEW-OLD atomic charge density approx. for the potential

     negative rho (up, down):  1.223E-02 0.000E+00

     total cpu time spent up to now is      204.8 secs

     Self-consistent Calculation

     iteration #  1     ecut=    40.00 Ry     beta= 0.40
     Davidson diagonalization with overlap

---- Real-time Memory Report at c_bands before calling an iterative solver
           604 MiB given to the printing process from OS
             0 MiB allocation reported by mallinfo(arena+hblkhd)
         57597 MiB available memory on the node where the printing process lives
------------------
     ethr =  1.00E-06,  avg # of iterations =  5.0

     negative rho (up, down):  1.225E-02 0.000E+00

     total cpu time spent up to now is      219.8 secs

     total energy              =    -159.89878289 Ry
     estimated scf accuracy    <       0.00124105 Ry

     iteration #  2     ecut=    40.00 Ry     beta= 0.40
     Davidson diagonalization with overlap

---- Real-time Memory Report at c_bands before calling an iterative solver
           604 MiB given to the printing process from OS
             0 MiB allocation reported by mallinfo(arena+hblkhd)
         56258 MiB available memory on the node where the printing process lives
------------------
     ethr =  2.95E-06,  avg # of iterations =  3.0

     negative rho (up, down):  1.225E-02 0.000E+00

     total cpu time spent up to now is      230.2 secs

     total energy              =    -159.89900296 Ry
     estimated scf accuracy    <       0.00017378 Ry

     iteration #  3     ecut=    40.00 Ry     beta= 0.40
     Davidson diagonalization with overlap

---- Real-time Memory Report at c_bands before calling an iterative solver
           604 MiB given to the printing process from OS
             0 MiB allocation reported by mallinfo(arena+hblkhd)
         56152 MiB available memory on the node where the printing process lives
------------------
     ethr =  4.14E-07,  avg # of iterations =  2.0

     negative rho (up, down):  1.225E-02 0.000E+00

     total cpu time spent up to now is      239.1 secs

     total energy              =    -159.89901193 Ry
     estimated scf accuracy    <       0.00003917 Ry

     iteration #  4     ecut=    40.00 Ry     beta= 0.40
     Davidson diagonalization with overlap

---- Real-time Memory Report at c_bands before calling an iterative solver
           604 MiB given to the printing process from OS
             0 MiB allocation reported by mallinfo(arena+hblkhd)
         56055 MiB available memory on the node where the printing process lives
------------------
     ethr =  9.33E-08,  avg # of iterations =  2.0

     negative rho (up, down):  1.226E-02 0.000E+00

     total cpu time spent up to now is      248.4 secs

     total energy              =    -159.89901550 Ry
     estimated scf accuracy    <       0.00000545 Ry

     iteration #  5     ecut=    40.00 Ry     beta= 0.40
     Davidson diagonalization with overlap

---- Real-time Memory Report at c_bands before calling an iterative solver
           604 MiB given to the printing process from OS
             0 MiB allocation reported by mallinfo(arena+hblkhd)
         55928 MiB available memory on the node where the printing process lives
------------------
     ethr =  1.30E-08,  avg # of iterations =  4.0

     negative rho (up, down):  1.226E-02 0.000E+00

     total cpu time spent up to now is      258.6 secs

     total energy              =    -159.89901596 Ry
     estimated scf accuracy    <       0.00000097 Ry

     iteration #  6     ecut=    40.00 Ry     beta= 0.40
     Davidson diagonalization with overlap

---- Real-time Memory Report at c_bands before calling an iterative solver
           604 MiB given to the printing process from OS
             0 MiB allocation reported by mallinfo(arena+hblkhd)
         55808 MiB available memory on the node where the printing process lives
------------------
     ethr =  2.31E-09,  avg # of iterations =  3.0

     negative rho (up, down):  1.226E-02 0.000E+00

     total cpu time spent up to now is      268.5 secs

     End of self-consistent calculation

          k = 0.0000 0.0000 0.0000 (450991 PWs)   bands (ev):

   -22.8024 -20.6235 -18.4825 -18.0422 -16.3958 -14.8933 -14.1413 -12.7295
   -12.6992 -10.9952 -10.5912 -10.1139  -9.9839  -9.8085  -9.0263  -8.8906
    -8.1711  -7.7744  -7.0998  -5.9189  -4.5404  -0.9451  -0.6082  -0.4408
    -0.2773

     occupation numbers 
     1.0000   1.0000   1.0000   1.0000   1.0000   1.0000   1.0000   1.0000
     1.0000   1.0000   1.0000   1.0000   1.0000   1.0000   1.0000   1.0000
     1.0000   1.0000   1.0000   1.0000   1.0000   0.0000   0.0000   0.0000
     0.0000

          k = 0.0000 0.3333 0.0000 (450515 PWs)   bands (ev):

   -22.8024 -20.6235 -18.4825 -18.0421 -16.3958 -14.8933 -14.1413 -12.7294
   -12.6992 -10.9952 -10.5911 -10.1139  -9.9839  -9.8085  -9.0263  -8.8906
    -8.1711  -7.7744  -7.0998  -5.9189  -4.5404  -0.9451  -0.6078  -0.4407
    -0.2744

     occupation numbers 
     1.0000   1.0000   1.0000   1.0000   1.0000   1.0000   1.0000   1.0000
     1.0000   1.0000   1.0000   1.0000   1.0000   1.0000   1.0000   1.0000
     1.0000   1.0000   1.0000   1.0000   1.0000   0.0000   0.0000   0.0000
     0.0000

          k = 0.3333 0.0000 0.0000 (450515 PWs)   bands (ev):

   -22.8024 -20.6235 -18.4825 -18.0422 -16.3958 -14.8933 -14.1413 -12.7294
   -12.6992 -10.9952 -10.5911 -10.1139  -9.9839  -9.8085  -9.0263  -8.8906
    -8.1711  -7.7744  -7.0998  -5.9189  -4.5404  -0.9451  -0.6078  -0.4407
    -0.2819

     occupation numbers 
     1.0000   1.0000   1.0000   1.0000   1.0000   1.0000   1.0000   1.0000
     1.0000   1.0000   1.0000   1.0000   1.0000   1.0000   1.0000   1.0000
     1.0000   1.0000   1.0000   1.0000   1.0000   0.0000   0.0000   0.0000
     0.0000

          k = 0.3333 0.3333 0.0000 (450333 PWs)   bands (ev):

   -22.8024 -20.6235 -18.4825 -18.0421 -16.3957 -14.8933 -14.1413 -12.7294
   -12.6992 -10.9952 -10.5911 -10.1139  -9.9839  -9.8085  -9.0263  -8.8906
    -8.1711  -7.7743  -7.0998  -5.9189  -4.5404  -0.9451  -0.6074  -0.4407
    -0.2789

     occupation numbers 
     1.0000   1.0000   1.0000   1.0000   1.0000   1.0000   1.0000   1.0000
     1.0000   1.0000   1.0000   1.0000   1.0000   1.0000   1.0000   1.0000
     1.0000   1.0000   1.0000   1.0000   1.0000   0.0000   0.0000   0.0000
     0.0000

          k = 0.3333-0.3333 0.0000 (450333 PWs)   bands (ev):

   -22.8024 -20.6235 -18.4825 -18.0421 -16.3957 -14.8933 -14.1413 -12.7294
   -12.6992 -10.9952 -10.5911 -10.1139  -9.9839  -9.8085  -9.0263  -8.8906
    -8.1711  -7.7744  -7.0998  -5.9189  -4.5404  -0.9451  -0.6074  -0.4407
    -0.2789

     occupation numbers 
     1.0000   1.0000   1.0000   1.0000   1.0000   1.0000   1.0000   1.0000
     1.0000   1.0000   1.0000   1.0000   1.0000   1.0000   1.0000   1.0000
     1.0000   1.0000   1.0000   1.0000   1.0000   0.0000   0.0000   0.0000
     0.0000

     the Fermi energy is    -2.7977 ev

!    total energy              =    -159.89901613 Ry
     estimated scf accuracy    <       0.00000012 Ry
     smearing contrib. (-TS)   =       0.00000000 Ry
     internal energy E=F+TS    =    -159.89901613 Ry

     The total energy is F=E-TS. E is the sum of the following terms:
     one-electron contribution =    -655.80843401 Ry
     hartree contribution      =     333.52031982 Ry
     xc contribution           =     -44.23213154 Ry
     ewald contribution        =     249.79651740 Ry
     DFT-D3 Dispersion         =      -0.01175315 Ry
     one-center paw contrib.   =     -43.16353465 Ry
      -> PAW hartree energy AE =       0.00000000 Ry
      -> PAW hartree energy PS =       0.00000000 Ry
      -> PAW xc energy AE      =       0.00000000 Ry
      -> PAW xc energy PS      =       0.00000000 Ry
      -> total E_H with PAW    =     333.52031982 Ry
      -> total E_XC with PAW   =     -44.23213154 Ry

     convergence has been achieved in   6 iterations

     negative rho (up, down):  1.226E-02 0.000E+00

     Forces acting on atoms (cartesian axes, Ry/au):

     atom    1 type  1   force =     0.00775353   -0.00036155   -0.00004697
     atom    2 type  2   force =     0.00335211    0.00118891   -0.00011998
     atom    3 type  2   force =     0.00617248    0.00178843   -0.00017738
     atom    4 type  2   force =    -0.01451199   -0.00376094    0.00013109
     atom    5 type  2   force =    -0.01332238    0.00302595    0.00010660
     atom    6 type  2   force =     0.00519790   -0.00255528   -0.00001921
     atom    7 type  2   force =     0.00513725   -0.00076103   -0.00017339
     atom    8 type  2   force =    -0.00259065    0.00134499    0.00003233
     atom    9 type  3   force =    -0.00264277    0.00609115   -0.00004700
     atom   10 type  3   force =    -0.00406495   -0.00674321    0.00019711
     atom   11 type  3   force =    -0.00162516   -0.00015783    0.00007195
     atom   12 type  3   force =    -0.00137203    0.00042129    0.00001940
     atom   13 type  3   force =     0.00721392    0.00030022   -0.00199126
     atom   14 type  3   force =     0.00296203   -0.00051741    0.00001091
     atom   15 type  3   force =     0.00728807    0.00034334    0.00189467
     atom   16 type  3   force =    -0.00220071    0.00508937   -0.00002141
     atom   17 type  3   force =    -0.00274665   -0.00473641    0.00013251
     The non-local contrib.  to forces
     atom    1 type  1   force =     0.04409724   -0.00166686   -0.00113505
     atom    2 type  2   force =     0.06953335    0.00840613   -0.00103147
     atom    3 type  2   force =    -0.35540788    0.01979168    0.00422412
     atom    4 type  2   force =    -0.03187304   -0.05337182    0.00117302
     atom    5 type  2   force =    -0.01700485    0.05622824   -0.00070504
     atom    6 type  2   force =    -0.05798287    0.01071068    0.00043398
     atom    7 type  2   force =    -0.06294132   -0.01096452    0.00101483
     atom    8 type  2   force =    -0.03451762    0.01214249    0.00016781
     atom    9 type  3   force =    -0.03467063    0.06756894   -0.00055932
     atom   10 type  3   force =    -0.03920335   -0.06475504    0.00145164
     atom   11 type  3   force =     0.03829398    0.06606987   -0.00144901
     atom   12 type  3   force =     0.03392811   -0.06849812    0.00054936
     atom   13 type  3   force =    -0.02632884   -0.03518330   -0.05961926
     atom   14 type  3   force =    -0.02615337    0.07022302   -0.00068622
     atom   15 type  3   force =    -0.02474219   -0.03339641    0.06129362
     atom   16 type  3   force =     0.05017766   -0.08922379    0.00068202
     atom   17 type  3   force =     0.05601818    0.08563189   -0.00193947
     The ionic contribution  to forces
     atom    1 type  1   force =    -9.62337215    0.33479672    0.11891465
     atom    2 type  2   force =     4.33554659   -0.19520188   -0.05301027
     atom    3 type  2   force =    -2.67581117    0.10651734    0.03239174
     atom    4 type  2   force =     2.51917920   -7.01022903    0.06910125
     atom    5 type  2   force =     3.00244760    6.79007762   -0.13554143
     atom    6 type  2   force =    -2.70610289   -6.91868414    0.13832553
     atom    7 type  2   force =    -2.27381579    7.06518062   -0.07545606
     atom    8 type  2   force =     7.08699664   -0.22437808   -0.08776380
     atom    9 type  3   force =     1.37305962   -3.27072815    0.03067328
     atom   10 type  3   force =     1.59722694    3.16498317   -0.06657976
     atom   11 type  3   force =    -1.57320463   -3.22872885    0.06741657
     atom   12 type  3   force =    -1.35651862    3.32489074   -0.03074308
     atom   13 type  3   force =     2.05474108    1.20879979    2.19956437
     atom   14 type  3   force =     2.06031295   -2.48790425    0.00974284
     atom   15 type  3   force =     1.99645042    1.14274212   -2.28687397
     atom   16 type  3   force =    -2.81030830    3.00766060   -0.00871039
     atom   17 type  3   force =    -3.00682749   -2.80979433    0.07854852
     The local contribution  to forces
     atom    1 type  1   force =     9.58780892   -0.33351119   -0.11787022
     atom    2 type  2   force =    -4.39765510    0.18807831    0.05398521
     atom    3 type  2   force =     3.02956446   -0.12403304   -0.03661278
     atom    4 type  2   force =    -2.50182072    7.05736162   -0.06992099
     atom    5 type  2   force =    -2.99855127   -6.84086116    0.13625895
     atom    6 type  2   force =     2.76762779    6.90450670   -0.13884120
     atom    7 type  2   force =     2.33992234   -7.05403864    0.07447597
     atom    8 type  2   force =    -7.05616099    0.21375805    0.08754068
     atom    9 type  3   force =    -1.34106252    3.20919906   -0.03019015
     atom   10 type  3   force =    -1.56218398   -3.10691266    0.06529511
     atom   11 type  3   force =     1.53326750    3.16248074   -0.06592556
     atom   12 type  3   force =     1.32120426   -3.25595202    0.03018269
     atom   13 type  3   force =    -2.02107814   -1.17333283   -2.14202599
     atom   14 type  3   force =    -2.03134401    2.41717454   -0.00907447
     atom   15 type  3   force =    -1.96429835   -1.10901722    2.22750102
     atom   16 type  3   force =     2.75796981   -2.91329994    0.00797528
     atom   17 type  3   force =     2.94810036    2.71937461   -0.07650674
     The core correction contribution to forces
     atom    1 type  1   force =    -0.00055602    0.00001878    0.00000956
     atom    2 type  2   force =    -0.00397885   -0.00010545   -0.00009486
     atom    3 type  2   force =     0.00777186   -0.00048559   -0.00021026
     atom    4 type  2   force =    -0.00017965    0.00250491   -0.00025029
     atom    5 type  2   force =    -0.00052604   -0.00241163    0.00006759
     atom    6 type  2   force =     0.00158136    0.00103146    0.00003098
     atom    7 type  2   force =     0.00190386   -0.00104446   -0.00023567
     atom    8 type  2   force =     0.00110676   -0.00016251    0.00005637
     atom    9 type  3   force =     0.00000000    0.00000000    0.00000000
     atom   10 type  3   force =     0.00000000    0.00000000    0.00000000
     atom   11 type  3   force =     0.00000000    0.00000000    0.00000000
     atom   12 type  3   force =     0.00000000    0.00000000    0.00000000
     atom   13 type  3   force =     0.00000000    0.00000000    0.00000000
     atom   14 type  3   force =     0.00000000    0.00000000    0.00000000
     atom   15 type  3   force =     0.00000000    0.00000000    0.00000000
     atom   16 type  3   force =     0.00000000    0.00000000    0.00000000
     atom   17 type  3   force =     0.00000000    0.00000000    0.00000000
     The Hubbard contrib.    to forces
     atom    1 type  1   force =     0.00000000    0.00000000    0.00000000
     atom    2 type  2   force =     0.00000000    0.00000000    0.00000000
     atom    3 type  2   force =     0.00000000    0.00000000    0.00000000
     atom    4 type  2   force =     0.00000000    0.00000000    0.00000000
     atom    5 type  2   force =     0.00000000    0.00000000    0.00000000
     atom    6 type  2   force =     0.00000000    0.00000000    0.00000000
     atom    7 type  2   force =     0.00000000    0.00000000    0.00000000
     atom    8 type  2   force =     0.00000000    0.00000000    0.00000000
     atom    9 type  3   force =     0.00000000    0.00000000    0.00000000
     atom   10 type  3   force =     0.00000000    0.00000000    0.00000000
     atom   11 type  3   force =     0.00000000    0.00000000    0.00000000
     atom   12 type  3   force =     0.00000000    0.00000000    0.00000000
     atom   13 type  3   force =     0.00000000    0.00000000    0.00000000
     atom   14 type  3   force =     0.00000000    0.00000000    0.00000000
     atom   15 type  3   force =     0.00000000    0.00000000    0.00000000
     atom   16 type  3   force =     0.00000000    0.00000000    0.00000000
     atom   17 type  3   force =     0.00000000    0.00000000    0.00000000
     The SCF correction term to forces
     atom    1 type  1   force =    -0.00019387    0.00000018    0.00000332
     atom    2 type  2   force =     0.00006083    0.00001226   -0.00000098
     atom    3 type  2   force =     0.00002577   -0.00000019   -0.00000027
     atom    4 type  2   force =     0.00020539    0.00005303   -0.00000375
     atom    5 type  2   force =     0.00022234   -0.00009403   -0.00000149
     atom    6 type  2   force =    -0.00011399    0.00004428    0.00000103
     atom    7 type  2   force =    -0.00013613   -0.00004649    0.00000198
     atom    8 type  2   force =    -0.00005343    0.00000223    0.00000110
     atom    9 type  3   force =     0.00002609    0.00001693   -0.00000068
     atom   10 type  3   force =     0.00003176   -0.00001975   -0.00000007
     atom   11 type  3   force =    -0.00002035    0.00001198    0.00000014
     atom   12 type  3   force =    -0.00002626   -0.00000925    0.00000037
     atom   13 type  3   force =    -0.00000830   -0.00000421   -0.00001055
     atom   14 type  3   force =    -0.00000797    0.00001018    0.00000002
     atom   15 type  3   force =    -0.00000804   -0.00000385    0.00001096
     atom   16 type  3   force =    -0.00001216   -0.00000641    0.00000030
     atom   17 type  3   force =    -0.00001130    0.00000721    0.00000012

     DFT-D3 dispersion contribution to forces:
     atom    1 type  1   force =    -0.00005198    0.00000127    0.00000062
     atom    2 type  2   force =    -0.00017607   -0.00000001    0.00000224
     atom    3 type  2   force =     0.00000805   -0.00000132   -0.00000008
     atom    4 type  2   force =    -0.00004455   -0.00007920    0.00000170
[...]
     hartree contribution      =     333.39468691 Ry
     xc contribution           =     -44.23295459 Ry
     ewald contribution        =     249.67314007 Ry
     DFT-D3 Dispersion         =      -0.01172430 Ry
     one-center paw contrib.   =     -43.16368813 Ry
      -> PAW hartree energy AE =       0.00000000 Ry
      -> PAW hartree energy PS =       0.00000000 Ry
      -> PAW xc energy AE      =       0.00000000 Ry
      -> PAW xc energy PS      =       0.00000000 Ry
      -> total E_H with PAW    =     333.39468691 Ry
      -> total E_XC with PAW   =     -44.23295459 Ry

     convergence has been achieved in   4 iterations

     negative rho (up, down):  1.225E-02 0.000E+00

     Forces acting on atoms (cartesian axes, Ry/au):

     atom    1 type  1   force =    -0.00025912   -0.00037089    0.00004512
     atom    2 type  2   force =     0.00005231    0.00028412   -0.00002286
     atom    3 type  2   force =    -0.00028876   -0.00020125    0.00000087
     atom    4 type  2   force =    -0.00025131    0.00004959   -0.00002621
     atom    5 type  2   force =    -0.00005050    0.00018712   -0.00001965
     atom    6 type  2   force =     0.00025834    0.00012623   -0.00002099
     atom    7 type  2   force =    -0.00012444    0.00036677   -0.00002607
     atom    8 type  2   force =    -0.00001727   -0.00017454    0.00002106
     atom    9 type  3   force =     0.00026935    0.00032723   -0.00003853
     atom   10 type  3   force =    -0.00010165    0.00010153   -0.00000384
     atom   11 type  3   force =     0.00044863   -0.00028195   -0.00000351
     atom   12 type  3   force =     0.00017117    0.00001677   -0.00002481
     atom   13 type  3   force =    -0.00004953   -0.00027952    0.00003380
     atom   14 type  3   force =    -0.00013119   -0.00023774    0.00003681
     atom   15 type  3   force =     0.00001480   -0.00028365    0.00003861
     atom   16 type  3   force =    -0.00011475    0.00047262    0.00000211
     atom   17 type  3   force =     0.00017393   -0.00010243    0.00000808
     The non-local contrib.  to forces
     atom    1 type  1   force =     0.03238110   -0.00151280   -0.00357031
     atom    2 type  2   force =     0.07309114    0.00419945   -0.00111541
     atom    3 type  2   force =    -0.36223913    0.01662882    0.00451347
     atom    4 type  2   force =    -0.01927272   -0.04554307    0.00084653
     atom    5 type  2   force =    -0.00704451    0.05037874   -0.00094215
     atom    6 type  2   force =    -0.06299585    0.01192062    0.00025044
     atom    7 type  2   force =    -0.06768331   -0.00765859    0.00103299
     atom    8 type  2   force =    -0.03386119    0.01035210    0.00019066
     atom    9 type  3   force =    -0.03519834    0.06835487   -0.00060944
     atom   10 type  3   force =    -0.03968353   -0.06584274    0.00140297
     atom   11 type  3   force =     0.03886565    0.06561803   -0.00152838
     atom   12 type  3   force =     0.03436934   -0.06809529    0.00049249
     atom   13 type  3   force =    -0.02872993   -0.03456734   -0.05833561
     atom   14 type  3   force =    -0.02633660    0.06972109   -0.00069771
     atom   15 type  3   force =    -0.02724864   -0.03282348    0.06003177
     atom   16 type  3   force =     0.04955834   -0.08846252    0.00070285
     atom   17 type  3   force =     0.05564296    0.08463925   -0.00190223
     The ionic contribution  to forces
     atom    1 type  1   force =    -9.67370351    0.32708972    0.12931126
     atom    2 type  2   force =     4.42799326   -0.19057041   -0.05770659
     atom    3 type  2   force =    -2.67153433    0.08263322    0.02693930
     atom    4 type  2   force =     2.58219594   -6.93619156    0.06212164
     atom    5 type  2   force =     3.04336951    6.73231868   -0.13600919
     atom    6 type  2   force =    -2.71933153   -6.95955123    0.13773641
     atom    7 type  2   force =    -2.28924062    7.10433384   -0.08142340
     atom    8 type  2   force =     6.91202166   -0.20204430   -0.08305779
     atom    9 type  3   force =     1.38620060   -3.28448484    0.03176201
     atom   10 type  3   force =     1.60627263    3.18732168   -0.06466699
     atom   11 type  3   force =    -1.58325477   -3.22348168    0.07009092
     atom   12 type  3   force =    -1.36706786    3.32154983   -0.02949713
     atom   13 type  3   force =     2.08095739    1.19094513    2.15992252
     atom   14 type  3   force =     2.04396855   -2.48046623    0.01098722
     atom   15 type  3   force =     2.02611308    1.12614254   -2.24556440
     atom   16 type  3   force =    -2.80185715    2.99581034   -0.00899791
     atom   17 type  3   force =    -3.00310284   -2.79135474    0.07805210
     The local contribution  to forces
     atom    1 type  1   force =     9.64150853   -0.32600369   -0.12575955
     atom    2 type  2   force =    -4.49666827    0.18662054    0.05884540
     atom    3 type  2   force =     3.02563014   -0.09909862   -0.03125915
     atom    4 type  2   force =    -2.56272079    6.97975714   -0.06276499
     atom    5 type  2   force =    -3.03583316   -6.78047764    0.13682429
     atom    6 type  2   force =     2.78062503    6.94680946   -0.13806289
     atom    7 type  2   force =     2.35447692   -7.09521302    0.08055018
     atom    8 type  2   force =    -6.87964005    0.19174509    0.08280820
     atom    9 type  3   force =    -1.35072770    3.21641177   -0.03122116
     atom   10 type  3   force =    -1.56673598   -3.12133074    0.06322936
     atom   11 type  3   force =     1.54481143    3.15757531   -0.06859647
     atom   12 type  3   force =     1.33283911   -3.25343671    0.02894959
     atom   13 type  3   force =    -2.05214218   -1.15668759   -2.10164687
     atom   14 type  3   force =    -2.01788064    2.41053118   -0.01028254
     atom   15 type  3   force =    -1.99871287   -1.09363130    2.18560073
     atom   16 type  3   force =     2.75223980   -2.90682948    0.00826458
     atom   17 type  3   force =     2.94768346    2.70655930   -0.07617278
     The core correction contribution to forces
     atom    1 type  1   force =    -0.00039613    0.00002228    0.00002833
     atom    2 type  2   force =    -0.00415211    0.00004073   -0.00007876
     atom    3 type  2   force =     0.00784952   -0.00037195   -0.00022324
     atom    4 type  2   force =    -0.00041101    0.00210359   -0.00026036
     atom    5 type  2   force =    -0.00064102   -0.00211259    0.00008048
     atom    6 type  2   force =     0.00181144    0.00109564    0.00002468
     atom    7 type  2   force =     0.00215257   -0.00124035   -0.00021057
     atom    8 type  2   force =     0.00141761   -0.00020089    0.00004847
     atom    9 type  3   force =     0.00000000    0.00000000    0.00000000
     atom   10 type  3   force =     0.00000000    0.00000000    0.00000000
     atom   11 type  3   force =     0.00000000    0.00000000    0.00000000
     atom   12 type  3   force =     0.00000000    0.00000000    0.00000000
     atom   13 type  3   force =     0.00000000    0.00000000    0.00000000
     atom   14 type  3   force =     0.00000000    0.00000000    0.00000000
     atom   15 type  3   force =     0.00000000    0.00000000    0.00000000
     atom   16 type  3   force =     0.00000000    0.00000000    0.00000000
     atom   17 type  3   force =     0.00000000    0.00000000    0.00000000
     The Hubbard contrib.    to forces
     atom    1 type  1   force =     0.00000000    0.00000000    0.00000000
     atom    2 type  2   force =     0.00000000    0.00000000    0.00000000
     atom    3 type  2   force =     0.00000000    0.00000000    0.00000000
     atom    4 type  2   force =     0.00000000    0.00000000    0.00000000
     atom    5 type  2   force =     0.00000000    0.00000000    0.00000000
     atom    6 type  2   force =     0.00000000    0.00000000    0.00000000
     atom    7 type  2   force =     0.00000000    0.00000000    0.00000000
     atom    8 type  2   force =     0.00000000    0.00000000    0.00000000
     atom    9 type  3   force =     0.00000000    0.00000000    0.00000000
     atom   10 type  3   force =     0.00000000    0.00000000    0.00000000
     atom   11 type  3   force =     0.00000000    0.00000000    0.00000000
     atom   12 type  3   force =     0.00000000    0.00000000    0.00000000
     atom   13 type  3   force =     0.00000000    0.00000000    0.00000000
     atom   14 type  3   force =     0.00000000    0.00000000    0.00000000
     atom   15 type  3   force =     0.00000000    0.00000000    0.00000000
     atom   16 type  3   force =     0.00000000    0.00000000    0.00000000
     atom   17 type  3   force =     0.00000000    0.00000000    0.00000000
     The SCF correction term to forces
     atom    1 type  1   force =     0.00000564    0.00003103    0.00000380
     atom    2 type  2   force =    -0.00001499   -0.00000833   -0.00000055
     atom    3 type  2   force =    -0.00000302    0.00000708   -0.00000010
     atom    4 type  2   force =    -0.00001679    0.00000443   -0.00000127
     atom    5 type  2   force =    -0.00002510    0.00000226   -0.00000123
     atom    6 type  2   force =    -0.00002017    0.00001638   -0.00000071
     atom    7 type  2   force =    -0.00001773   -0.00001080   -0.00000123
     atom    8 type  2   force =     0.00002590   -0.00001374    0.00000073
     atom    9 type  3   force =     0.00000100   -0.00000264   -0.00000015
     atom   10 type  3   force =    -0.00000117    0.00000139   -0.00000024
     atom   11 type  3   force =    -0.00000180    0.00000450   -0.00000014
     atom   12 type  3   force =    -0.00000111   -0.00000352   -0.00000016
     atom   13 type  3   force =     0.00000374   -0.00000165    0.00000015
     atom   14 type  3   force =     0.00000455    0.00000104   -0.00000002
     atom   15 type  3   force =     0.00000345   -0.00000153   -0.00000025
     atom   16 type  3   force =     0.00000334   -0.00000191    0.00000030
     atom   17 type  3   force =     0.00000148    0.00000452    0.00000025

     DFT-D3 dispersion contribution to forces:
     atom    1 type  1   force =    -0.00005794    0.00000099    0.00000083
     atom    2 type  2   force =    -0.00019992    0.00000055    0.00000228
     atom    3 type  2   force =     0.00000485   -0.00000138   -0.00000017
     atom    4 type  2   force =    -0.00002914   -0.00008252    0.00000146
     atom    5 type  2   force =     0.00012058    0.00007608   -0.00000261
     atom    6 type  2   force =     0.00016623   -0.00016621    0.00000032
     atom    7 type  2   force =     0.00018454    0.00015409   -0.00000480
     atom    8 type  2   force =     0.00001560   -0.00001438    0.00000004
     atom    9 type  3   force =    -0.00000940    0.00004649   -0.00000054
     atom   10 type  3   force =     0.00004319   -0.00004965    0.00000029
     atom   11 type  3   force =     0.00002491    0.00000032   -0.00000020
     atom   12 type  3   force =     0.00002850    0.00000088   -0.00000036
     atom   13 type  3   force =    -0.00014175    0.00003035    0.00006284
     atom   14 type  3   force =     0.00010974   -0.00002641   -0.00000090
     atom   15 type  3   force =    -0.00014341    0.00002854   -0.00006000
     atom   16 type  3   force =    -0.00006228   -0.00004540    0.00000153
     atom   17 type  3   force =    -0.00005432    0.00004765   -0.00000001

     Total force =     0.001346     Total SCF correction =     0.000066

     DFT-D3 dispersion Force =     0.000516


     Computing stress (Cartesian axis) and pressure


     negative rho (up, down):  1.225E-02 0.000E+00
          total   stress  (Ry/bohr**3)                   (kbar)     P=       -0.06
  -0.00000044  -0.00000004  -0.00000000           -0.06       -0.01       -0.00
  -0.00000004  -0.00000039  -0.00000000           -0.01       -0.06       -0.00
  -0.00000000  -0.00000000  -0.00000045           -0.00       -0.00       -0.07

     kinetic stress (kbar)     64.72     -0.02      0.12
                               -0.02     64.19      0.14
                                0.12      0.14     74.09

     local   stress (kbar)   -567.68      6.32      5.92
                                6.32   -355.26      3.82
                                5.92      3.82    -84.96

     nonloc. stress (kbar)     14.52     -0.00     -0.01
                               -0.00     14.36     -0.01
                               -0.01     -0.01     13.70

     hartree stress (kbar)    253.87     -2.87     -2.43
                               -2.87    157.15     -1.44
                               -2.43     -1.44     54.11

     exc-cor stress (kbar)     -5.45      0.00     -0.01
                                0.00     -5.48     -0.01
                               -0.01     -0.01     -5.96

     corecor stress (kbar)    -11.52     -0.00      0.00
                               -0.00    -11.53      0.00
                                0.00      0.00    -11.39

     ewald   stress (kbar)    251.48     -3.43     -3.60
                               -3.43    136.50     -2.50
                               -3.60     -2.50    -39.65

     hubbard stress (kbar)      0.00      0.00      0.00
                                0.00      0.00      0.00
                                0.00      0.00      0.00

     DFT-D   stress (kbar)     -0.00      0.00      0.00
                                0.00      0.00     -0.00
                                0.00     -0.00      0.00

     XDM     stress (kbar)      0.00      0.00      0.00
                                0.00      0.00      0.00
                                0.00      0.00      0.00

     dft-nl  stress (kbar)      0.00      0.00      0.00
                                0.00      0.00      0.00
                                0.00      0.00      0.00

     TS-vdW  stress (kbar)      0.00      0.00      0.00
                                0.00      0.00      0.00
                                0.00      0.00      0.00

     MDB     stress (kbar)      0.00      0.00      0.00
                                0.00      0.00      0.00
                                0.00      0.00      0.00

     3D-RISM stress (kbar)      0.00      0.00      0.00
                                0.00      0.00      0.00
                                0.00      0.00      0.00

     Energy error            =      2.0E-06 Ry
     Gradient error          =      4.7E-04 Ry/Bohr

     bfgs converged in  14 scf cycles and  13 bfgs steps
     (criteria: energy <  1.0E-05 Ry, force <  5.0E-04 Ry/Bohr)

     End of BFGS Geometry Optimization

     Final energy             =    -159.9000742153 Ry

     File ./tmp/ptoluidine.bfgs deleted, as requested
Begin final coordinates

ATOMIC_POSITIONS (angstrom)
N               -2.8031460198        0.1525724561        0.0603340904
C                1.4239905229        0.0095319029        0.0072238318
C               -1.4246652073        0.1038825006        0.0422885111
C                0.6543686929       -1.1605266226        0.0339391596
C                0.7311499361        1.2297334179       -0.0014086300
C               -0.7398949301       -1.1244387748        0.0518398475
C               -0.6589419775        1.2858383854        0.0149486703
C                2.9310101114       -0.0241494645       -0.0107471794
H                1.1550372785       -2.1318950984        0.0425184313
H                1.2956848784        2.1653585641       -0.0213789276
H               -1.3092225704       -2.0567003053        0.0737452502
H               -1.1651104921        2.2542652905        0.0081084173
H                3.3577516908        0.4959699319        0.8609246383
H                3.3093998091       -1.0549229520       -0.0002866250
H                3.3356878462        0.4698982998       -0.9077304833
H               -3.2922490700        1.0339223501        0.0531900875
H               -3.3535763524       -0.6919999920        0.0791812955
End final coordinates



     Writing all to output data dir ./tmp/ptoluidine.save/ :
     XML data file, charge density, pseudopotentials, collected wavefunctions

     init_run     :     10.46s CPU     10.84s WALL (       1 calls)
     electrons    :    790.24s CPU    821.53s WALL (      14 calls)
     update_pot   :      9.15s CPU     10.61s WALL (      13 calls)
     forces       :     36.44s CPU     41.65s WALL (      14 calls)
     force_dftd3  :      0.02s CPU      0.03s WALL (      14 calls)
     stress       :    127.52s CPU    135.90s WALL (      14 calls)
     stres_dftd3  :      0.02s CPU      0.02s WALL (      14 calls)

     Called by init_run:
     wfcinit      :      4.06s CPU      4.12s WALL (       1 calls)
     wfcinit:atom :      0.04s CPU      0.04s WALL (       5 calls)
     wfcinit:wfcr :      3.80s CPU      3.85s WALL (       5 calls)
     potinit      :      1.07s CPU      1.15s WALL (       1 calls)
     hinit0       :      0.47s CPU      0.50s WALL (       1 calls)

     Called by electrons:
     c_bands      :    506.70s CPU    509.41s WALL (      82 calls)
     sum_band     :    189.59s CPU    200.84s WALL (      82 calls)
     v_of_rho     :     45.13s CPU     48.27s WALL (      88 calls)
     v_h          :      4.54s CPU      5.02s WALL (      88 calls)
     v_xc         :     53.07s CPU     57.79s WALL (     116 calls)
     newd         :     45.39s CPU     57.19s WALL (      88 calls)
     PAW_pot      :      1.97s CPU      1.98s WALL (     101 calls)
     mix_rho      :      7.02s CPU      7.21s WALL (      82 calls)
     energy_dftd3 :      0.00s CPU      0.00s WALL (      14 calls)

     Called by c_bands:
     init_us_2    :     15.95s CPU     16.05s WALL (    1030 calls)
     cegterg      :    492.80s CPU    495.39s WALL (     410 calls)

     Called by sum_band:
     sum_band:wei :      0.00s CPU      0.00s WALL (      82 calls)
     sum_band:loo :    117.57s CPU    118.19s WALL (      82 calls)
     sum_band:buf :      1.20s CPU      1.24s WALL (     410 calls)
     sum_band:ini :      6.34s CPU      6.37s WALL (     410 calls)
     sum_band:cal :     13.97s CPU     14.01s WALL (     475 calls)
     sum_band:bec :      0.01s CPU      0.01s WALL (     475 calls)
     addusdens    :     65.35s CPU     75.62s WALL (      82 calls)
                                        0.00s GPU  (      82 calls)
     addusd:skk   :      2.84s CPU      3.22s WALL (     246 calls)
                                        0.00s GPU  (     246 calls)

     Called by *egterg:
     cdiaghg      :      0.79s CPU      0.80s WALL (    1375 calls)
     cegterg:over :     17.97s CPU     18.03s WALL (    1070 calls)
     cegterg:upda :     10.49s CPU     10.56s WALL (    1070 calls)
     cegterg:last :     26.75s CPU     26.84s WALL (     864 calls)
     h_psi        :    403.96s CPU    406.26s WALL (    1485 calls)
     s_psi        :     23.39s CPU     23.44s WALL (    1485 calls)
     g_psi        :      1.04s CPU      1.05s WALL (    1070 calls)

     Called by h_psi:
     h_psi:calbec :     33.03s CPU     33.12s WALL (    1485 calls)
     vloc_psi     :    344.13s CPU    346.24s WALL (    1485 calls)
     add_vuspsi   :     23.64s CPU     23.72s WALL (    1485 calls)

     General routines
     calbec       :     55.27s CPU     55.43s WALL (    2310 calls)
     fft          :     50.58s CPU     55.92s WALL (    1487 calls)
     ffts         :      2.22s CPU      2.39s WALL (     170 calls)
     fftw         :    285.57s CPU    287.19s WALL (   61624 calls)
     interpolate  :      5.01s CPU      5.34s WALL (      88 calls)

     Parallel routines

     PAW routines
     PAW_pot      :      1.97s CPU      1.98s WALL (     101 calls)

     PWSCF        :  16m25.74s CPU  17m15.10s WALL


   This run was terminated on:  22: 9: 6   8Apr2025            

=------------------------------------------------------------------------------=
   JOB DONE.
=------------------------------------------------------------------------------=
