
     Program PWSCF v.7.3.1 starts on 30Mar2025 at 14:21:36 

     This program is part of the open-source Quantum ESPRESSO suite
     for quantum simulation of materials; please cite
         "P. Giannozzi et al., J. Phys.:Condens. Matter 21 395502 (2009);
         "P. Giannozzi et al., J. Phys.:Condens. Matter 29 465901 (2017);
         "P. Giannozzi et al., J. Chem. Phys. 152 154105 (2020);
          URL http://www.quantum-espresso.org", 
     in publications or presentations arising from this work. More details at
     http://www.quantum-espresso.org/quote

     Parallel version (MPI), running on    33 processors

     MPI processes distributed on     1 nodes
     38079 MiB available memory on the printing compute node when the environment starts

     Waiting for input...
     Reading input from standard input
Warning: card &CELL ignored
Warning: card   CELL_DOFREE = 'ALL' ignored
Warning: card / ignored

     Current dimensions of program PWSCF are:
     Max number of different atomic species (ntypx) = 10
     Max number of k-points (npk) =  40000
     Max angular momentum in pseudopotentials (lmaxx) =  4
     file C.pbe-n-kjpaw_psl.1.0.0.UPF: wavefunction(s)  2S 2P renormalized

     R & G space division:  proc/nbgrp/npool/nimage =      33
     Subspace diagonalization in iterative solution of the eigenvalue problem:
     one sub-group per band group will be used
     custom distributed-memory algorithm (size of sub-group:  5*  5 procs)


     Parallelization info
     --------------------
     sticks:   dense  smooth     PW     G-vecs:    dense   smooth      PW
     Min         245     140     36                38015    16424    2211
     Max         246     141     37                38023    16429    2226
     Sum        8103    4637   1215              1254623   542067   73181

     Using Slab Decomposition



     bravais-lattice index     =            0
     lattice parameter (alat)  =      18.4179  a.u.
     unit-cell volume          =   15858.2170 (a.u.)^3
     number of atoms/cell      =           63
     number of atomic types    =            4
     number of electrons       =      1004.00
     number of Kohn-Sham states=          602
     kinetic-energy cutoff     =      40.0000  Ry
     charge density cutoff     =     280.0000  Ry
     scf convergence threshold =      1.0E-06
     mixing beta               =       0.4000
     number of iterations used =            8  plain     mixing
     energy convergence thresh.=      1.0E-05
     force convergence thresh. =      5.0E-04
     Exchange-correlation= PBE
                           (   1   4   3   4   0   0   0)
     nstep                     =          100


     celldm(1)=  18.417879  celldm(2)=   0.000000  celldm(3)=   0.000000
     celldm(4)=   0.000000  celldm(5)=   0.000000  celldm(6)=   0.000000

     crystal axes: (cart. coord. in units of alat)
               a(1) = (   1.000000   0.000000   0.000000 )  
               a(2) = (   0.000000   1.072963   0.000000 )  
               a(3) = (   0.000000  -1.365810   2.365652 )  

     reciprocal axes: (cart. coord. in units 2 pi/alat)
               b(1) = (  1.000000  0.000000 -0.000000 )  
               b(2) = ( -0.000000  0.931999  0.538090 )  
               b(3) = (  0.000000  0.000000  0.422716 )  


     PseudoPot. # 1 for Zn read from file:
     /home/ys/qepseudo/SSSP_1.3.0_PBE_efficiency/Zn_pbe_v1.uspp.F.UPF
     MD5 check sum: df62231357ef9e81f77b2b3087fa5675
     Pseudo is Ultrasoft, Zval = 20.0
     Generated by new atomic code, or converted to UPF format
     Using radial grid of  943 points,  6 beta functions with: 
                l(1) =   0
                l(2) =   0
                l(3) =   1
                l(4) =   1
                l(5) =   2
                l(6) =   2
     Q(r) pseudized with  8 coefficients,  rinner =    1.100   1.100   1.100
                                                       1.100   1.100

     PseudoPot. # 2 for N  read from file:
     /home/ys/qepseudo/SSSP_1.3.0_PBE_efficiency/N.pbe-n-radius_5.UPF
     MD5 check sum: 16739722b17309cd8fe442a2ace49922
     Pseudo is Ultrasoft + core correction, Zval =  5.0
     Generated using "atomic" code by A. Dal Corso  v.5.1
     Using radial grid of 1085 points,  4 beta functions with: 
                l(1) =   0
                l(2) =   0
                l(3) =   1
                l(4) =   1
     Q(r) pseudized with 0 coefficients 


     PseudoPot. # 3 for C  read from file:
     /home/ys/qepseudo/SSSP_1.3.0_PBE_efficiency/C.pbe-n-kjpaw_psl.1.0.0.UPF
     MD5 check sum: 5d2aebdfa2cae82b50a7e79e9516da0f
     Pseudo is Projector augmented-wave + core cor, Zval =  4.0
     Generated using "atomic" code by A. Dal Corso  v.5.1
     Shape of augmentation charge: PSQ
     Using radial grid of 1073 points,  4 beta functions with: 
                l(1) =   0
                l(2) =   0
                l(3) =   1
                l(4) =   1
     Q(r) pseudized with 0 coefficients 


     PseudoPot. # 4 for H  read from file:
     /home/ys/qepseudo/SSSP_1.3.0_PBE_efficiency/H.pbe-rrkjus_psl.1.0.0.UPF
     MD5 check sum: f52b6d4d1c606e5624b1dc7b2218f220
     Pseudo is Ultrasoft, Zval =  1.0
     Generated using "atomic" code by A. Dal Corso  v.5.1
     Using radial grid of  929 points,  2 beta functions with: 
                l(1) =   0
                l(2) =   0
     Q(r) pseudized with 0 coefficients 


     atomic species   valence    mass     pseudopotential
     Zn               20.00    65.38000     Zn( 1.00)
     N                 5.00    14.00674     N ( 1.00)
     C                 4.00    12.01070     C ( 1.00)
     H                 1.00     1.00794     H ( 1.00)

     No symmetry found


                                    s                        frac. trans.

      isym =  1     identity                                     

 cryst.   s( 1) = (     1          0          0      )
                  (     0          1          0      )
                  (     0          0          1      )

 cart.    s( 1) = (  1.0000000  0.0000000  0.0000000 )
                  (  0.0000000  1.0000000 -0.0000000 )
                  (  0.0000000  0.0000000  1.0000000 )


   Cartesian axes

     site n.     atom                  positions (alat units)
         1        Zn     tau(   1) = (   0.1250000   0.1341203   0.0774344  )
         2        Zn     tau(   2) = (   0.1250000   0.6706017   0.0774344  )
         3        Zn     tau(   3) = (   0.1254355  -0.0000659   0.3663588  )
         4        Zn     tau(   4) = (   0.1254363   0.5365404   0.3662887  )
         5        Zn     tau(   5) = (   0.1252702  -0.1341656   0.6251262  )
         6        Zn     tau(   6) = (   0.1252777   0.4024072   0.6251464  )
         7        Zn     tau(   7) = (   0.1250000   0.4023610   0.0774344  )
         8        Zn     tau(   8) = (   0.1250000   0.9388424   0.0774344  )
         9        Zn     tau(   9) = (   0.1254456   0.2682606   0.3663796  )
        10        Zn     tau(  10) = (   0.1254350   0.8047243   0.3662418  )
        11        Zn     tau(  11) = (   0.1252783   0.1341187   0.6251453  )
        12        Zn     tau(  12) = (   0.1252697   0.6706189   0.6251228  )
        13        Zn     tau(  13) = (   0.6250000   0.1341203   0.0774344  )
        14        Zn     tau(  14) = (   0.6250000   0.6706017   0.0774344  )
        15        Zn     tau(  15) = (   0.6245281  -0.0000638   0.3665247  )
        16        Zn     tau(  16) = (   0.6245270   0.5365419   0.3664904  )
        17        Zn     tau(  17) = (   0.6247150  -0.1341737   0.6252632  )
        18        Zn     tau(  18) = (   0.6247105   0.4024094   0.6252948  )
        19        Zn     tau(  19) = (   0.6250000   0.4023610   0.0774344  )
        20        Zn     tau(  20) = (   0.6250000   0.9388424   0.0774344  )
        21        Zn     tau(  21) = (   0.6245216   0.2682681   0.3665651  )
        22        Zn     tau(  22) = (   0.6245321   0.8047117   0.3664232  )
        23        Zn     tau(  23) = (   0.6247131   0.1341157   0.6252902  )
        24        Zn     tau(  24) = (   0.6247175   0.6706215   0.6252710  )
        25        Zn     tau(  25) = (   0.3750000   0.0000000   0.1548688  )
        26        Zn     tau(  26) = (   0.3750000   0.5364814   0.1548688  )
        27        Zn     tau(  27) = (   0.3745046  -0.1341714   0.3889500  )
        28        Zn     tau(  28) = (   0.3745046   0.4024249   0.3889898  )
        29        Zn     tau(  29) = (   0.3746919  -0.2682568   0.6329084  )
        30        Zn     tau(  30) = (   0.3746970   0.2682757   0.6328984  )
        31        Zn     tau(  31) = (   0.3750000   0.2682407   0.1548688  )
        32        Zn     tau(  32) = (   0.3750000   0.8047221   0.1548688  )
        33        Zn     tau(  33) = (   0.3745120   0.1340709   0.3890099  )
        34        Zn     tau(  34) = (   0.3744965   0.6706470   0.3889242  )
        35        Zn     tau(  35) = (   0.3746988  -0.0000299   0.6328957  )
        36        Zn     tau(  36) = (   0.3746947   0.5365025   0.6329113  )
        37        Zn     tau(  37) = (   0.8750000   0.0000000   0.1548688  )
        38        Zn     tau(  38) = (   0.8750000   0.5364814   0.1548688  )
        39        Zn     tau(  39) = (   0.8755371  -0.1341797   0.3891205  )
        40        Zn     tau(  40) = (   0.8755441   0.4024177   0.3891626  )
        41        Zn     tau(  41) = (   0.8753258  -0.2682562   0.6328998  )
        42        Zn     tau(  42) = (   0.8753266   0.2682699   0.6328854  )
        43        Zn     tau(  43) = (   0.8750000   0.2682407   0.1548688  )
        44        Zn     tau(  44) = (   0.8750000   0.8047221   0.1548688  )
        45        Zn     tau(  45) = (   0.8755369   0.1340755   0.3891857  )
        46        Zn     tau(  46) = (   0.8755419   0.6706575   0.3890923  )
        47        Zn     tau(  47) = (   0.8753223  -0.0000330   0.6328793  )
        48        Zn     tau(  48) = (   0.8753273   0.5365108   0.6329031  )
        49        C      tau(  49) = (   0.3946503   0.2038193   1.5692121  )
        50        C      tau(  50) = (   0.3932879   0.2148218   1.4235578  )
        51        C      tau(  51) = (   0.4956854   0.2897797   1.3542888  )
        52        C      tau(  52) = (   0.2895507   0.1510200   1.3456405  )
        53        C      tau(  53) = (   0.4944772   0.3006047   1.2125196  )
        54        C      tau(  54) = (   0.2881611   0.1617106   1.2038627  )
        55        C      tau(  55) = (   0.3906370   0.2367795   1.1341898  )
        56        N      tau(  56) = (   0.3956604   0.1947880   1.6887175  )
        57        N      tau(  57) = (   0.3893307   0.2474599   0.9941290  )
        58        H      tau(  58) = (   0.3152741   0.2021877   0.9376818  )
        59        H      tau(  59) = (   0.4622386   0.3011164   0.9438549  )
        60        H      tau(  60) = (   0.2096236   0.0927788   1.3978428  )
        61        H      tau(  61) = (   0.5765115   0.3397498   1.4132332  )
        62        H      tau(  62) = (   0.2069084   0.1116748   1.1452259  )
        63        H      tau(  63) = (   0.5746129   0.3591948   1.1606609  )

     --------------------------------------------
     DFT-D3 Dispersion Correction (3-body terms):
     --------------------------------------------
       Reference C6 values for interpolation: 

         atom   Coordination number   C6
         H          0.912             6.05
         H          0.000            15.18
         C          0.000            98.23
         C          0.987            86.49
         C          1.998            58.72
         C          2.999            51.56
         C          3.984            36.41
         N          0.000            50.54
         N          0.994            44.25
         N          2.014            39.35
         N          2.990            31.16
         Zn         0.000           681.04
         Zn         1.942           306.91

       Values used:

         atom   Coordination number  R0_AB[au]  C6      C8
         Zn         4.540            3.053    306.91  23930.67
         Zn         4.543            3.053    306.91  23930.67
         Zn         6.755            3.053    306.91  23930.67
         Zn         6.757            3.053    306.91  23930.67
         Zn         5.959            3.053    306.91  23930.67
         Zn         5.959            3.053    306.91  23930.67
         Zn         4.541            3.053    306.91  23930.67
         Zn         4.542            3.053    306.91  23930.67
         Zn         6.753            3.053    306.91  23930.67
         Zn         6.759            3.053    306.91  23930.67
         Zn         5.958            3.053    306.91  23930.67
         Zn         5.959            3.053    306.91  23930.67
         Zn         4.537            3.053    306.91  23930.67
         Zn         4.539            3.053    306.91  23930.67
         Zn         6.705            3.053    306.91  23930.67
         Zn         6.706            3.053    306.91  23930.67
         Zn         5.925            3.053    306.91  23930.67
         Zn         5.925            3.053    306.91  23930.67
         Zn         4.537            3.053    306.91  23930.67
         Zn         4.539            3.053    306.91  23930.67
         Zn         6.703            3.053    306.91  23930.67
         Zn         6.708            3.053    306.91  23930.67
         Zn         5.924            3.053    306.91  23930.67
         Zn         5.925            3.053    306.91  23930.67
         Zn         6.090            3.053    306.91  23930.67
         Zn         6.091            3.053    306.91  23930.67
         Zn         7.993            3.053    306.91  23930.67
         Zn         7.991            3.053    306.91  23930.67
         Zn         6.168            3.053    306.91  23930.67
         Zn         6.177            3.053    306.91  23930.67
         Zn         6.089            3.053    306.91  23930.67
         Zn         6.092            3.053    306.91  23930.67
         Zn         7.990            3.053    306.91  23930.67
         Zn         7.993            3.053    306.91  23930.67
         Zn         6.169            3.053    306.91  23930.67
         Zn         6.169            3.053    306.91  23930.67
         Zn         6.077            3.053    306.91  23930.67
         Zn         6.078            3.053    306.91  23930.67
         Zn         7.950            3.053    306.91  23930.67
         Zn         7.947            3.053    306.91  23930.67
         Zn         6.145            3.053    306.91  23930.67
         Zn         6.143            3.053    306.91  23930.67
         Zn         6.076            3.053    306.91  23930.67
         Zn         6.079            3.053    306.91  23930.67
         Zn         7.946            3.053    306.91  23930.67
         Zn         7.950            3.053    306.91  23930.67
         Zn         6.144            3.053    306.91  23930.67
         Zn         6.144            3.053    306.91  23930.67
         C          2.097            2.750     58.61   1695.14
         C          3.146            2.750     50.57   1462.53
         C          3.169            2.750     50.37   1456.69
         C          3.169            2.750     50.37   1456.72
         C          3.165            2.750     50.41   1457.91
         C          3.165            2.750     50.41   1457.90
         C          3.140            2.750     50.61   1463.70
         N          1.022            2.478     44.24    976.01
         N          3.092            2.478     31.24    689.17
         H          1.009            2.062      6.17     74.62
         H          1.009            2.062      6.17     74.63
         H          1.004            2.062      6.18     74.68
         H          1.004            2.062      6.18     74.68
         H          1.003            2.062      6.18     74.68
         H          1.003            2.062      6.18     74.68

         Molecular C6 ( Ry / a.u.^6 ) =    841000.88


   Crystallographic axes

     site n.     atom                  positions (cryst. coord.)
         1        Zn     tau(   1) = (  0.1250000  0.1666667  0.0327328  )
         2        Zn     tau(   2) = (  0.1250000  0.6666667  0.0327328  )
         3        Zn     tau(   3) = (  0.1254355  0.1970725  0.1548659  )
         4        Zn     tau(   4) = (  0.1254363  0.6971513  0.1548362  )
         5        Zn     tau(   5) = (  0.1252702  0.2113319  0.2642511  )
         6        Zn     tau(   6) = (  0.1252777  0.7114279  0.2642596  )
         7        Zn     tau(   7) = (  0.1250000  0.4166667  0.0327328  )
         8        Zn     tau(   8) = (  0.1250000  0.9166667  0.0327328  )
         9        Zn     tau(   9) = (  0.1254456  0.4471637  0.1548747  )
        10        Zn     tau(  10) = (  0.1254350  0.9470731  0.1548164  )
        11        Zn     tau(  11) = (  0.1252783  0.4613828  0.2642592  )
        12        Zn     tau(  12) = (  0.1252697  0.9613882  0.2642496  )
        13        Zn     tau(  13) = (  0.6250000  0.1666667  0.0327328  )
        14        Zn     tau(  14) = (  0.6250000  0.6666667  0.0327328  )
        15        Zn     tau(  15) = (  0.6245281  0.1971637  0.1549360  )
        16        Zn     tau(  16) = (  0.6245270  0.6972612  0.1549215  )
        17        Zn     tau(  17) = (  0.6247150  0.2113980  0.2643090  )
        18        Zn     tau(  18) = (  0.6247105  0.7115098  0.2643223  )
        19        Zn     tau(  19) = (  0.6250000  0.4166667  0.0327328  )
        20        Zn     tau(  20) = (  0.6250000  0.9166667  0.0327328  )
        21        Zn     tau(  21) = (  0.6245216  0.4472705  0.1549531  )
        22        Zn     tau(  22) = (  0.6245321  0.9471590  0.1548931  )
        23        Zn     tau(  23) = (  0.6247131  0.4614579  0.2643204  )
        24        Zn     tau(  24) = (  0.6247175  0.9614704  0.2643123  )
        25        Zn     tau(  25) = (  0.3750000  0.0833333  0.0654656  )
        26        Zn     tau(  26) = (  0.3750000  0.5833333  0.0654656  )
        27        Zn     tau(  27) = (  0.3745046  0.0842425  0.1644155  )
        28        Zn     tau(  28) = (  0.3745046  0.5843710  0.1644324  )
        29        Zn     tau(  29) = (  0.3746919  0.0905466  0.2675408  )
        30        Zn     tau(  30) = (  0.3746970  0.5905888  0.2675365  )
        31        Zn     tau(  31) = (  0.3750000  0.3333333  0.0654656  )
        32        Zn     tau(  32) = (  0.3750000  0.8333334  0.0654656  )
        33        Zn     tau(  33) = (  0.3745120  0.3342762  0.1644409  )
        34        Zn     tau(  34) = (  0.3744965  0.8343184  0.1644046  )
        35        Zn     tau(  35) = (  0.3746988  0.3405268  0.2675354  )
        36        Zn     tau(  36) = (  0.3746947  0.8405829  0.2675420  )
        37        Zn     tau(  37) = (  0.8750000  0.0833333  0.0654656  )
        38        Zn     tau(  38) = (  0.8750000  0.5833333  0.0654656  )
        39        Zn     tau(  39) = (  0.8755371  0.0843264  0.1644876  )
        40        Zn     tau(  40) = (  0.8755441  0.5844573  0.1645054  )
        41        Zn     tau(  41) = (  0.8753258  0.0905424  0.2675371  )
        42        Zn     tau(  42) = (  0.8753266  0.5905764  0.2675310  )
        43        Zn     tau(  43) = (  0.8750000  0.3333333  0.0654656  )
        44        Zn     tau(  44) = (  0.8750000  0.8333334  0.0654656  )
        45        Zn     tau(  45) = (  0.8755369  0.3343750  0.1645152  )
        46        Zn     tau(  46) = (  0.8755419  0.8344186  0.1644757  )
        47        Zn     tau(  47) = (  0.8753223  0.3405151  0.2675284  )
        48        Zn     tau(  48) = (  0.8753273  0.8405862  0.2675385  )
        49        C      tau(  49) = (  0.3946503  1.0343364  0.6633317  )
        50        C      tau(  50) = (  0.3932879  0.9662156  0.6017612  )
        51        C      tau(  51) = (  0.4956854  0.9988033  0.5724801  )
        52        C      tau(  52) = (  0.2895507  0.8648259  0.5688243  )
        53        C      tau(  53) = (  0.4944772  0.9326077  0.5125519  )
        54        C      tau(  54) = (  0.2881611  0.7985003  0.5088925  )
        55        C      tau(  55) = (  0.3906370  0.8309742  0.4794406  )
        56        N      tau(  56) = (  0.3956604  1.0902239  0.7138486  )
        57        N      tau(  57) = (  0.3893307  0.7655630  0.4202346  )
        58        H      tau(  58) = (  0.3152741  0.6929957  0.3963734  )
        59        H      tau(  59) = (  0.4622386  0.7885188  0.3989829  )
        60        H      tau(  60) = (  0.2096236  0.8386347  0.5908910  )
        61        H      tau(  61) = (  0.5765115  1.0770928  0.5973968  )
        62        H      tau(  62) = (  0.2069084  0.7203152  0.4841058  )
        63        H      tau(  63) = (  0.5746129  0.9593089  0.4906304  )

     number of k points=     5  Marzari-Vanderbilt smearing, width (Ry)=  0.0200
                       cart. coord. in units 2pi/alat
        k(    1) = (   0.0000000   0.0000000   0.0000000), wk =   0.2222222
        k(    2) = (   0.0000000   0.3106663   0.1793633), wk =   0.4444444
        k(    3) = (   0.3333333   0.0000000   0.0000000), wk =   0.4444444
        k(    4) = (   0.3333333   0.3106663   0.1793633), wk =   0.4444444
        k(    5) = (   0.3333333  -0.3106663  -0.1793633), wk =   0.4444444

                       cryst. coord.
        k(    1) = (   0.0000000   0.0000000   0.0000000), wk =   0.2222222
        k(    2) = (   0.0000000   0.3333333  -0.0000000), wk =   0.4444444
        k(    3) = (   0.3333333   0.0000000   0.0000000), wk =   0.4444444
        k(    4) = (   0.3333333   0.3333333  -0.0000000), wk =   0.4444444
        k(    5) = (   0.3333333  -0.3333333   0.0000000), wk =   0.4444444

     Dense  grid:  1254623 G-vectors     FFT dimensions: ( 100, 108, 270)

     Smooth grid:   542067 G-vectors     FFT dimensions: (  75,  80, 216)

     Dynamical RAM for                 wfc:      18.85 MB

     Dynamical RAM for     wfc (w. buffer):     113.10 MB

     Dynamical RAM for           str. fact:       2.32 MB

     Dynamical RAM for           local pot:       0.00 MB

     Dynamical RAM for          nlocal pot:      29.68 MB

     Dynamical RAM for                qrad:       5.37 MB

     Dynamical RAM for          rho,v,vnew:       3.97 MB

     Dynamical RAM for               rhoin:       1.32 MB

     Dynamical RAM for            rho*nmix:       9.28 MB

     Dynamical RAM for           G-vectors:       2.30 MB

     Dynamical RAM for          h,s,v(r/c):       2.64 MB

     Dynamical RAM for          <psi|beta>:       8.71 MB

     Dynamical RAM for                 psi:      37.70 MB

     Dynamical RAM for                hpsi:      37.70 MB

     Dynamical RAM for                spsi:      37.70 MB

     Dynamical RAM for      wfcinit/wfcrot:      51.86 MB

     Dynamical RAM for           addusdens:     135.76 MB

     Dynamical RAM for          addusforce:     190.77 MB

     Dynamical RAM for         addusstress:     116.61 MB

     Estimated static dynamical RAM per process >     164.67 MB

     Estimated max dynamical RAM per process >     364.72 MB

     Estimated total dynamical RAM >      11.75 GB

     Initial potential from superposition of free atoms

     starting charge    1003.9929, renormalised to    1004.0000

     negative rho (up, down):  1.415E-03 0.000E+00
     Starting wfcs are  666 randomized atomic wfcs
     Checking if some PAW data can be deallocated... 
       PAW data deallocated on   29 nodes for type:  3

     total cpu time spent up to now is      195.2 secs

     Self-consistent Calculation

     iteration #  1     ecut=    40.00 Ry     beta= 0.40
     Davidson diagonalization with overlap

---- Real-time Memory Report at c_bands before calling an iterative solver
           242 MiB given to the printing process from OS
             0 MiB allocation reported by mallinfo(arena+hblkhd)
         32039 MiB available memory on the node where the printing process lives
------------------
     ethr =  1.00E-02,  avg # of iterations =  8.0

     negative rho (up, down):  1.851E-03 0.000E+00

     total cpu time spent up to now is      955.0 secs

     total energy              =  -22326.29725560 Ry
     estimated scf accuracy    <      10.64078669 Ry

     iteration #  2     ecut=    40.00 Ry     beta= 0.40
     Davidson diagonalization with overlap

---- Real-time Memory Report at c_bands before calling an iterative solver
           340 MiB given to the printing process from OS
             0 MiB allocation reported by mallinfo(arena+hblkhd)
         30704 MiB available memory on the node where the printing process lives
------------------
     ethr =  1.06E-03,  avg # of iterations = 10.8

     negative rho (up, down):  3.029E-03 0.000E+00

     total cpu time spent up to now is     1721.5 secs

     total energy              =  -22310.60595039 Ry
     estimated scf accuracy    <     314.92575530 Ry

     iteration #  3     ecut=    40.00 Ry     beta= 0.40
     Davidson diagonalization with overlap

---- Real-time Memory Report at c_bands before calling an iterative solver
           356 MiB given to the printing process from OS
             0 MiB allocation reported by mallinfo(arena+hblkhd)
         30673 MiB available memory on the node where the printing process lives
------------------
     ethr =  1.06E-03,  avg # of iterations =  8.2

     negative rho (up, down):  2.761E-03 0.000E+00

     total cpu time spent up to now is     2640.2 secs

     total energy              =  -22330.59968754 Ry
     estimated scf accuracy    <       5.30093265 Ry

     iteration #  4     ecut=    40.00 Ry     beta= 0.40
     Davidson diagonalization with overlap

---- Real-time Memory Report at c_bands before calling an iterative solver
           357 MiB given to the printing process from OS
             0 MiB allocation reported by mallinfo(arena+hblkhd)
         30641 MiB available memory on the node where the printing process lives
------------------
     ethr =  5.28E-04,  avg # of iterations =  5.0

     negative rho (up, down):  2.720E-03 0.000E+00

     total cpu time spent up to now is     3283.4 secs

     total energy              =  -22330.78307454 Ry
     estimated scf accuracy    <       7.38256448 Ry

     iteration #  5     ecut=    40.00 Ry     beta= 0.40
     Davidson diagonalization with overlap

---- Real-time Memory Report at c_bands before calling an iterative solver
           358 MiB given to the printing process from OS
             0 MiB allocation reported by mallinfo(arena+hblkhd)
         30602 MiB available memory on the node where the printing process lives
------------------
     ethr =  5.28E-04,  avg # of iterations =  2.8

     negative rho (up, down):  2.740E-03 0.000E+00

     total cpu time spent up to now is     3903.1 secs

     total energy              =  -22331.22003744 Ry
     estimated scf accuracy    <       0.45243939 Ry

     iteration #  6     ecut=    40.00 Ry     beta= 0.40
     Davidson diagonalization with overlap

---- Real-time Memory Report at c_bands before calling an iterative solver
           359 MiB given to the printing process from OS
             0 MiB allocation reported by mallinfo(arena+hblkhd)
         30564 MiB available memory on the node where the printing process lives
------------------
     ethr =  4.51E-05,  avg # of iterations =  6.2

     negative rho (up, down):  2.856E-03 0.000E+00

     total cpu time spent up to now is     4571.4 secs

     total energy              =  -22331.23346404 Ry
     estimated scf accuracy    <       0.17888541 Ry

     iteration #  7     ecut=    40.00 Ry     beta= 0.40
     Davidson diagonalization with overlap

---- Real-time Memory Report at c_bands before calling an iterative solver
           365 MiB given to the printing process from OS
             0 MiB allocation reported by mallinfo(arena+hblkhd)
         30530 MiB available memory on the node where the printing process lives
------------------
     ethr =  1.78E-05,  avg # of iterations =  9.4

     negative rho (up, down):  2.930E-03 0.000E+00

     total cpu time spent up to now is     5216.6 secs

     total energy              =  -22331.23338852 Ry
     estimated scf accuracy    <       0.06271142 Ry

     iteration #  8     ecut=    40.00 Ry     beta= 0.40
     Davidson diagonalization with overlap

---- Real-time Memory Report at c_bands before calling an iterative solver
           365 MiB given to the printing process from OS
             0 MiB allocation reported by mallinfo(arena+hblkhd)
         30493 MiB available memory on the node where the printing process lives
------------------
     c_bands:  2 eigenvalues not converged
     c_bands:  1 eigenvalues not converged
     ethr =  6.25E-06,  avg # of iterations = 16.2

     negative rho (up, down):  2.981E-03 0.000E+00

     total cpu time spent up to now is     5902.7 secs

     total energy              =  -22331.23103161 Ry
     estimated scf accuracy    <       0.06819086 Ry

     iteration #  9     ecut=    40.00 Ry     beta= 0.40
     Davidson diagonalization with overlap

---- Real-time Memory Report at c_bands before calling an iterative solver
           366 MiB given to the printing process from OS
             0 MiB allocation reported by mallinfo(arena+hblkhd)
         30456 MiB available memory on the node where the printing process lives
------------------
     ethr =  6.25E-06,  avg # of iterations =  9.8

     negative rho (up, down):  3.020E-03 0.000E+00

     total cpu time spent up to now is     6539.7 secs

     total energy              =  -22331.23052713 Ry
     estimated scf accuracy    <       0.03331948 Ry

     iteration # 10     ecut=    40.00 Ry     beta= 0.40
     Davidson diagonalization with overlap

---- Real-time Memory Report at c_bands before calling an iterative solver
           367 MiB given to the printing process from OS
             0 MiB allocation reported by mallinfo(arena+hblkhd)
         30429 MiB available memory on the node where the printing process lives
------------------
     c_bands:  2 eigenvalues not converged
     c_bands:  1 eigenvalues not converged
     ethr =  3.32E-06,  avg # of iterations = 14.4

     negative rho (up, down):  3.051E-03 0.000E+00

     total cpu time spent up to now is     7209.7 secs

     total energy              =  -22331.22698586 Ry
     estimated scf accuracy    <       0.02705497 Ry

     iteration # 11     ecut=    40.00 Ry     beta= 0.40
     Davidson diagonalization with overlap

---- Real-time Memory Report at c_bands before calling an iterative solver
           367 MiB given to the printing process from OS
             0 MiB allocation reported by mallinfo(arena+hblkhd)
         30419 MiB available memory on the node where the printing process lives
------------------
     c_bands:  1 eigenvalues not converged
     ethr =  2.69E-06,  avg # of iterations = 10.4

     negative rho (up, down):  3.203E-03 0.000E+00

     total cpu time spent up to now is     7853.9 secs

     total energy              =  -22331.21153443 Ry
     estimated scf accuracy    <       0.02106069 Ry

     iteration # 12     ecut=    40.00 Ry     beta= 0.40
     Davidson diagonalization with overlap

---- Real-time Memory Report at c_bands before calling an iterative solver
           367 MiB given to the printing process from OS
             0 MiB allocation reported by mallinfo(arena+hblkhd)
         30407 MiB available memory on the node where the printing process lives
------------------
     c_bands:  3 eigenvalues not converged
     c_bands:  1 eigenvalues not converged
     c_bands:  2 eigenvalues not converged
     ethr =  2.10E-06,  avg # of iterations = 18.4

     negative rho (up, down):  3.142E-03 0.000E+00

     total cpu time spent up to now is     8672.8 secs

     total energy              =  -22331.21482324 Ry
     estimated scf accuracy    <       0.00168417 Ry

     iteration # 13     ecut=    40.00 Ry     beta= 0.40
     Davidson diagonalization with overlap

---- Real-time Memory Report at c_bands before calling an iterative solver
           367 MiB given to the printing process from OS
             0 MiB allocation reported by mallinfo(arena+hblkhd)
         30406 MiB available memory on the node where the printing process lives
------------------
     c_bands:  4 eigenvalues not converged
     ethr =  1.68E-07,  avg # of iterations =  5.6

     negative rho (up, down):  3.112E-03 0.000E+00

     total cpu time spent up to now is     9305.9 secs

     total energy              =  -22331.21498954 Ry
     estimated scf accuracy    <       0.00021039 Ry

     iteration # 14     ecut=    40.00 Ry     beta= 0.40
     Davidson diagonalization with overlap

---- Real-time Memory Report at c_bands before calling an iterative solver
           367 MiB given to the printing process from OS
             0 MiB allocation reported by mallinfo(arena+hblkhd)
         30406 MiB available memory on the node where the printing process lives
------------------
     ethr =  2.10E-08,  avg # of iterations =  3.0

     negative rho (up, down):  3.107E-03 0.000E+00

     total cpu time spent up to now is     9937.1 secs

     total energy              =  -22331.21498526 Ry
     estimated scf accuracy    <       0.00013727 Ry

     iteration # 15     ecut=    40.00 Ry     beta= 0.40
     Davidson diagonalization with overlap

---- Real-time Memory Report at c_bands before calling an iterative solver
           367 MiB given to the printing process from OS
             0 MiB allocation reported by mallinfo(arena+hblkhd)
         30406 MiB available memory on the node where the printing process lives
------------------
     ethr =  1.37E-08,  avg # of iterations =  2.0

     negative rho (up, down):  3.098E-03 0.000E+00

     total cpu time spent up to now is    10555.4 secs

     total energy              =  -22331.21497721 Ry
     estimated scf accuracy    <       0.00061385 Ry

     iteration # 16     ecut=    40.00 Ry     beta= 0.40
     Davidson diagonalization with overlap

---- Real-time Memory Report at c_bands before calling an iterative solver
           367 MiB given to the printing process from OS
             0 MiB allocation reported by mallinfo(arena+hblkhd)
         30409 MiB available memory on the node where the printing process lives
------------------
     ethr =  1.37E-08,  avg # of iterations =  2.0

     negative rho (up, down):  3.094E-03 0.000E+00

     total cpu time spent up to now is    11168.3 secs

     total energy              =  -22331.21501604 Ry
     estimated scf accuracy    <       0.00002554 Ry

     iteration # 17     ecut=    40.00 Ry     beta= 0.40
     Davidson diagonalization with overlap

---- Real-time Memory Report at c_bands before calling an iterative solver
           367 MiB given to the printing process from OS
             0 MiB allocation reported by mallinfo(arena+hblkhd)
         30409 MiB available memory on the node where the printing process lives
------------------
     ethr =  2.54E-09,  avg # of iterations =  2.0

     negative rho (up, down):  3.093E-03 0.000E+00

     total cpu time spent up to now is    11784.0 secs

     total energy              =  -22331.21501844 Ry
     estimated scf accuracy    <       0.00000599 Ry

     iteration # 18     ecut=    40.00 Ry     beta= 0.40
     Davidson diagonalization with overlap

---- Real-time Memory Report at c_bands before calling an iterative solver
           367 MiB given to the printing process from OS
             0 MiB allocation reported by mallinfo(arena+hblkhd)
         30406 MiB available memory on the node where the printing process lives
------------------
     ethr =  5.97E-10,  avg # of iterations =  2.0

     negative rho (up, down):  3.092E-03 0.000E+00

     total cpu time spent up to now is    12405.0 secs

     total energy              =  -22331.21501911 Ry
     estimated scf accuracy    <       0.00000194 Ry

     iteration # 19     ecut=    40.00 Ry     beta= 0.40
     Davidson diagonalization with overlap

---- Real-time Memory Report at c_bands before calling an iterative solver
           367 MiB given to the printing process from OS
             0 MiB allocation reported by mallinfo(arena+hblkhd)
         30404 MiB available memory on the node where the printing process lives
------------------
     ethr =  1.93E-10,  avg # of iterations =  2.0

     negative rho (up, down):  3.092E-03 0.000E+00

     total cpu time spent up to now is    13021.9 secs

     total energy              =  -22331.21501927 Ry
     estimated scf accuracy    <       0.00000176 Ry

     iteration # 20     ecut=    40.00 Ry     beta= 0.40
     Davidson diagonalization with overlap

---- Real-time Memory Report at c_bands before calling an iterative solver
           367 MiB given to the printing process from OS
             0 MiB allocation reported by mallinfo(arena+hblkhd)
         30407 MiB available memory on the node where the printing process lives
------------------
     ethr =  1.75E-10,  avg # of iterations =  2.0

     negative rho (up, down):  3.091E-03 0.000E+00

     total cpu time spent up to now is    13634.3 secs

     End of self-consistent calculation

          k = 0.0000 0.0000 0.0000 ( 67685 PWs)   bands (ev):

  -124.9680-124.9671-124.9666-124.9658-124.9573-124.9564-124.9559-124.9550
  -124.8138-124.8128-124.8122-124.8112-124.8041-124.8034-124.8030-124.8028
  -124.8017-124.7845-124.7828-124.7779-124.7741-124.7723-124.7723-124.7704
  -124.7322-124.7291-124.7288-124.7276-124.7273-124.7258-124.7256-124.7242
  -124.7132-124.7070-124.7052-124.7035-124.7017-124.6993-124.6960-124.6942
  -124.6163-124.6153-124.6147-124.6142-124.6132-124.6125-124.6120-124.6096
   -79.1260 -79.1234 -79.1223 -79.1219 -79.1208 -79.1169 -79.1158 -79.1154
   -79.1152 -79.1144 -79.1136 -79.1134 -79.1129 -79.1118 -79.1114 -79.1103
   -79.1062 -79.1052 -79.1047 -79.1037 -79.1028 -79.1027 -79.1010 -79.0903
   -78.9733 -78.9722 -78.9717 -78.9707 -78.9697 -78.9696 -78.9686 -78.9679
   -78.9668 -78.9665 -78.9635 -78.9624 -78.9622 -78.9610 -78.9603 -78.9592
   -78.9588 -78.9577 -78.9569 -78.9542 -78.9541 -78.9514 -78.9486 -78.9479
   -78.9467 -78.9446 -78.9445 -78.9419 -78.9417 -78.9382 -78.9364 -78.9364
   -78.9344 -78.9328 -78.9322 -78.9307 -78.9304 -78.9292 -78.9292 -78.9245
   -78.9208 -78.9189 -78.9188 -78.9180 -78.9179 -78.9168 -78.9165 -78.9054
   -78.8922 -78.8896 -78.8890 -78.8887 -78.8875 -78.8871 -78.8858 -78.8857
   -78.8855 -78.8842 -78.8809 -78.8779 -78.8775 -78.8775 -78.8766 -78.8766
   -78.8759 -78.8749 -78.8747 -78.8745 -78.8736 -78.8733 -78.8729 -78.8691
   -78.8666 -78.8647 -78.8646 -78.8640 -78.8635 -78.8628 -78.8611 -78.8610
   -78.8578 -78.8575 -78.8570 -78.8568 -78.8557 -78.8550 -78.8534 -78.8509
   -78.8508 -78.8483 -78.8475 -78.8459 -78.8440 -78.8413 -78.8366 -78.8294
   -78.7909 -78.7899 -78.7895 -78.7890 -78.7878 -78.7873 -78.7867 -78.7842
   -78.7686 -78.7661 -78.7649 -78.7639 -78.7633 -78.7627 -78.7616 -78.7610
   -78.7608 -78.7582 -78.7563 -78.7562 -78.7537 -78.7535 -78.7439 -78.7411
   -17.6699 -16.2322 -15.3940 -13.0058 -12.9379 -10.0504  -9.7615  -7.9583
    -7.8478  -7.4465  -7.3248  -6.9821  -6.7917  -6.6850  -6.6847  -6.6688
    -6.5714  -6.5623  -6.5511  -6.5444  -6.5117  -6.4792  -6.4479  -6.4446
    -6.3822  -6.3715  -6.3709  -6.3670  -6.3524  -6.3365  -6.3202  -6.3198
    -6.3114  -6.3047  -6.3046  -6.2944  -6.2787  -6.2786  -6.2652  -6.2628
    -6.2626  -6.2385  -6.2132  -6.2131  -6.2108  -6.2107  -6.1953  -6.1950
    -6.1884  -6.1869  -6.1867  -6.1709  -6.1626  -6.1613  -6.1426  -6.1418
    -6.0893  -6.0773  -6.0697  -6.0687  -6.0572  -6.0489  -6.0474  -6.0465
    -6.0427  -6.0400  -6.0384  -6.0174  -6.0168  -6.0158  -6.0152  -6.0134
    -6.0129  -5.9983  -5.9931  -5.9696  -5.9692  -5.9613  -5.9604  -5.9571
    -5.9509  -5.9508  -5.9410  -5.9282  -5.9147  -5.9145  -5.9035  -5.9027
    -5.8915  -5.8884  -5.8881  -5.8875  -5.8873  -5.8845  -5.8839  -5.8682
    -5.8671  -5.8635  -5.8628  -5.8625  -5.8552  -5.8241  -5.8240  -5.8203
    -5.8124  -5.8108  -5.8005  -5.7995  -5.7874  -5.7873  -5.7740  -5.7691
    -5.7675  -5.7569  -5.7504  -5.7391  -5.7357  -5.7320  -5.7319  -5.7261
    -5.7252  -5.7113  -5.6896  -5.6895  -5.6884  -5.6873  -5.6781  -5.6725
    -5.6716  -5.6712  -5.6628  -5.6625  -5.6554  -5.6456  -5.6402  -5.6390
    -5.6362  -5.6358  -5.6325  -5.6316  -5.6102  -5.6098  -5.6065  -5.6052
    -5.5926  -5.5909  -5.5906  -5.5738  -5.5737  -5.5737  -5.5706  -5.5622
    -5.5621  -5.5618  -5.5575  -5.5559  -5.5556  -5.5547  -5.5527  -5.5460
    -5.5339  -5.5336  -5.5281  -5.5277  -5.5070  -5.5069  -5.5018  -5.5011
    -5.4999  -5.4987  -5.4970  -5.4949  -5.4938  -5.4923  -5.4921  -5.4921
    -5.4841  -5.4806  -5.4750  -5.4698  -5.4681  -5.4660  -5.4586  -5.4495
    -5.4494  -5.4489  -5.4466  -5.4463  -5.4458  -5.4422  -5.4356  -5.4350
    -5.4343  -5.4282  -5.4279  -5.4109  -5.4100  -5.4094  -5.3953  -5.3947
    -5.3907  -5.3901  -5.3880  -5.3799  -5.3791  -5.3784  -5.3768  -5.3765
    -5.3732  -5.3674  -5.3507  -5.3488  -5.3483  -5.3468  -5.3430  -5.3304
    -5.3227  -5.3223  -5.3181  -5.3144  -5.2893  -5.2891  -5.2845  -5.2845
    -5.2798  -5.2775  -5.2758  -5.2676  -5.2666  -5.2641  -5.2634  -5.2573
    -5.2572  -5.2551  -5.2498  -5.2485  -5.2477  -5.2466  -5.2447  -5.2445
    -5.2372  -5.2324  -5.2133  -5.1907  -5.1896  -5.1877  -5.1677  -5.1598
    -5.1527  -5.1428  -5.1219  -5.1059  -5.0909  -5.0879  -5.0848  -5.0691
    -5.0283  -5.0056  -4.7013  -4.3615  -4.3612  -4.3173  -4.3154  -4.2191
    -4.1865  -4.1065  -4.0905  -4.0902  -3.9336  -3.2757  -3.0354  -2.8722
    -2.8711  -2.8463  -2.7387  -2.7382  -2.1792  -2.1458  -2.1448  -2.0120
    -1.8147  -1.8053  -1.6468  -1.5910  -1.5679  -0.9781  -0.8326  -0.7838
    -0.7779  -0.7728  -0.6407  -0.4497  -0.4476  -0.3414  -0.2035  -0.1155
    -0.1076  -0.0408   0.1654   0.3988   0.4003   0.5339   0.5731   0.7111
     0.7891   0.9428   0.9434   0.9519   1.0506   1.0577   1.3185   1.3484
     1.6797   2.0204   2.1928   2.1964   2.4442   2.4716   2.4829   2.4893
     2.4912   2.7118   2.9108   2.9174   2.9883   2.9944   3.4504   3.5928
     3.6653   3.9078   3.9894   3.9958   4.1099   4.1420   4.2139   4.2332
     4.2341   4.3035   4.3106   4.5677   4.6821   4.6891   4.7345   4.9977
     5.2908   5.2992   5.4155   5.4536   5.4614   5.5582   5.5742   5.6211
     5.6217   5.6222   5.8963   6.0138   6.1295   6.2357   6.2586   6.2603
     6.3068   6.3861   6.4267   6.4966   6.6195   6.6412   6.8089   6.8348
     6.8904   6.9112   6.9203   6.9388   7.0123   7.0351   7.0457   7.0767
     7.0777   7.1098   7.1261   7.2212   7.2265   7.3494   7.4021   7.4111
     7.4154   7.4210   7.4431   7.5000   7.6010   7.7323   7.7458   7.7656
     7.8508   7.9303   7.9750   8.0268   8.0369   8.1310   8.1496   8.1609
     8.2253   8.3099   8.3572   8.3706   8.4598   8.5090   8.5922   8.6069
     8.6235   8.6385

     occupation numbers 
     1.0000   1.0000   1.0000   1.0000   1.0000   1.0000   1.0000   1.0000
     1.0000   1.0000   1.0000   1.0000   1.0000   1.0000   1.0000   1.0000
     1.0000   1.0000   1.0000   1.0000   1.0000   1.0000   1.0000   1.0000
     1.0000   1.0000   1.0000   1.0000   1.0000   1.0000   1.0000   1.0000
     1.0000   1.0000   1.0000   1.0000   1.0000   1.0000   1.0000   1.0000
     1.0000   1.0000   1.0000   1.0000   1.0000   1.0000   1.0000   1.0000
     1.0000   1.0000   1.0000   1.0000   1.0000   1.0000   1.0000   1.0000
     1.0000   1.0000   1.0000   1.0000   1.0000   1.0000   1.0000   1.0000
     1.0000   1.0000   1.0000   1.0000   1.0000   1.0000   1.0000   1.0000
     1.0000   1.0000   1.0000   1.0000   1.0000   1.0000   1.0000   1.0000
     1.0000   1.0000   1.0000   1.0000   1.0000   1.0000   1.0000   1.0000
     1.0000   1.0000   1.0000   1.0000   1.0000   1.0000   1.0000   1.0000
     1.0000   1.0000   1.0000   1.0000   1.0000   1.0000   1.0000   1.0000
     1.0000   1.0000   1.0000   1.0000   1.0000   1.0000   1.0000   1.0000
     1.0000   1.0000   1.0000   1.0000   1.0000   1.0000   1.0000   1.0000
     1.0000   1.0000   1.0000   1.0000   1.0000   1.0000   1.0000   1.0000
     1.0000   1.0000   1.0000   1.0000   1.0000   1.0000   1.0000   1.0000
     1.0000   1.0000   1.0000   1.0000   1.0000   1.0000   1.0000   1.0000
     1.0000   1.0000   1.0000   1.0000   1.0000   1.0000   1.0000   1.0000
     1.0000   1.0000   1.0000   1.0000   1.0000   1.0000   1.0000   1.0000
     1.0000   1.0000   1.0000   1.0000   1.0000   1.0000   1.0000   1.0000
     1.0000   1.0000   1.0000   1.0000   1.0000   1.0000   1.0000   1.0000
     1.0000   1.0000   1.0000   1.0000   1.0000   1.0000   1.0000   1.0000
     1.0000   1.0000   1.0000   1.0000   1.0000   1.0000   1.0000   1.0000
     1.0000   1.0000   1.0000   1.0000   1.0000   1.0000   1.0000   1.0000
     1.0000   1.0000   1.0000   1.0000   1.0000   1.0000   1.0000   1.0000
     1.0000   1.0000   1.0000   1.0000   1.0000   1.0000   1.0000   1.0000
     1.0000   1.0000   1.0000   1.0000   1.0000   1.0000   1.0000   1.0000
     1.0000   1.0000   1.0000   1.0000   1.0000   1.0000   1.0000   1.0000
     1.0000   1.0000   1.0000   1.0000   1.0000   1.0000   1.0000   1.0000
     1.0000   1.0000   1.0000   1.0000   1.0000   1.0000   1.0000   1.0000
     1.0000   1.0000   1.0000   1.0000   1.0000   1.0000   1.0000   1.0000
     1.0000   1.0000   1.0000   1.0000   1.0000   1.0000   1.0000   1.0000
     1.0000   1.0000   1.0000   1.0000   1.0000   1.0000   1.0000   1.0000
     1.0000   1.0000   1.0000   1.0000   1.0000   1.0000   1.0000   1.0000
     1.0000   1.0000   1.0000   1.0000   1.0000   1.0000   1.0000   1.0000
     1.0000   1.0000   1.0000   1.0000   1.0000   1.0000   1.0000   1.0000
     1.0000   1.0000   1.0000   1.0000   1.0000   1.0000   1.0000   1.0000
     1.0000   1.0000   1.0000   1.0000   1.0000   1.0000   1.0000   1.0000
     1.0000   1.0000   1.0000   1.0000   1.0000   1.0000   1.0000   1.0000
     1.0000   1.0000   1.0000   1.0000   1.0000   1.0000   1.0000   1.0000
     1.0000   1.0000   1.0000   1.0000   1.0000   1.0000   1.0000   1.0000
     1.0000   1.0000   1.0000   1.0000   1.0000   1.0000   1.0000   1.0000
     1.0000   1.0000   1.0000   1.0000   1.0000   1.0000   1.0000   1.0000
     1.0000   1.0000   1.0000   1.0000   1.0000   1.0000   1.0000   1.0000
     1.0000   1.0000   1.0000   1.0000   1.0000   1.0000   1.0000   1.0000
     1.0000   1.0000   1.0000   1.0000   1.0000   1.0000   1.0000   1.0000
     1.0000   1.0000   1.0000   1.0000   1.0000   1.0000   1.0000   1.0000
     1.0000   1.0000   1.0000   1.0000   1.0000   1.0000   1.0000   1.0000
     1.0000   1.0000   1.0000   1.0000   1.0000   1.0000   1.0000   1.0000
     1.0000   1.0000   1.0000   1.0000   1.0000   1.0000   1.0000   1.0000
     1.0000   1.0000   1.0000   1.0000   1.0000   1.0000   1.0000   1.0000
     1.0000   1.0000   1.0000   1.0000   1.0000   1.0000   1.0000   1.0000
     1.0000   1.0000   1.0000   1.0000   1.0000   1.0000   1.0000   1.0000
     1.0000   1.0000   1.0000   1.0000   1.0000   1.0000   1.0000   1.0000
     1.0000   1.0000   1.0000   1.0000   1.0000   1.0000   1.0000   1.0000
     1.0000   1.0000   1.0000   1.0000   1.0000   1.0000   1.0000   1.0000
     1.0000   1.0000   1.0000   1.0000   1.0000   1.0000   1.0000   1.0000
     1.0000   1.0000   1.0000   1.0000   1.0000   1.0000   1.0000   1.0000
     1.0000   1.0000   1.0000   1.0000   1.0000   1.0000   1.0000   1.0000
     1.0000   1.0000   1.0000   1.0000   1.0000   1.0000   1.0000   1.0000
     1.0000   1.0000   1.0000   1.0000   1.0000   1.0004   1.0007   1.0062
     1.0162   1.0600   1.0602   1.0631   1.0833   1.0829   0.7075   0.6255
     0.0402   0.0001   0.0000   0.0000   0.0000   0.0000   0.0000   0.0000
     0.0000   0.0000   0.0000   0.0000   0.0000   0.0000   0.0000   0.0000
     0.0000   0.0000   0.0000   0.0000   0.0000   0.0000   0.0000   0.0000
     0.0000   0.0000   0.0000   0.0000   0.0000   0.0000   0.0000   0.0000
     0.0000   0.0000   0.0000   0.0000   0.0000   0.0000   0.0000   0.0000
     0.0000   0.0000   0.0000   0.0000   0.0000   0.0000   0.0000   0.0000
     0.0000   0.0000   0.0000   0.0000   0.0000   0.0000   0.0000   0.0000
     0.0000   0.0000   0.0000   0.0000   0.0000   0.0000   0.0000   0.0000
     0.0000   0.0000   0.0000   0.0000   0.0000   0.0000   0.0000   0.0000
     0.0000   0.0000   0.0000   0.0000   0.0000   0.0000   0.0000   0.0000
     0.0000   0.0000   0.0000   0.0000   0.0000   0.0000   0.0000   0.0000
     0.0000   0.0000   0.0000   0.0000   0.0000   0.0000   0.0000   0.0000
     0.0000   0.0000

          k = 0.0000 0.3107 0.1794 ( 67822 PWs)   bands (ev):

  -124.9679-124.9673-124.9665-124.9658-124.9572-124.9565-124.9557-124.9550
  -124.8138-124.8129-124.8121-124.8112-124.8041-124.8034-124.8032-124.8026
  -124.8017-124.7845-124.7828-124.7779-124.7741-124.7725-124.7721-124.7704
  -124.7322-124.7292-124.7287-124.7276-124.7273-124.7259-124.7255-124.7242
  -124.7132-124.7070-124.7052-124.7035-124.7017-124.6993-124.6960-124.6942
  -124.6163-124.6154-124.6147-124.6142-124.6132-124.6125-124.6120-124.6096
   -79.1244 -79.1233 -79.1226 -79.1216 -79.1209 -79.1197 -79.1168 -79.1161
   -79.1152 -79.1144 -79.1136 -79.1128 -79.1121 -79.1111 -79.1104 -79.1089
   -79.1073 -79.1062 -79.1054 -79.1045 -79.1037 -79.1027 -79.0965 -79.0919
   -78.9732 -78.9724 -78.9716 -78.9707 -78.9697 -78.9696 -78.9687 -78.9678
   -78.9668 -78.9649 -78.9635 -78.9626 -78.9620 -78.9611 -78.9603 -78.9603
   -78.9594 -78.9586 -78.9577 -78.9553 -78.9510 -78.9507 -78.9486 -78.9481
   -78.9479 -78.9467 -78.9435 -78.9417 -78.9384 -78.9382 -78.9366 -78.9362
   -78.9352 -78.9344 -78.9339 -78.9307 -78.9292 -78.9288 -78.9265 -78.9245
   -78.9240 -78.9208 -78.9191 -78.9186 -78.9172 -78.9168 -78.9118 -78.9070
   -78.8922 -78.8891 -78.8887 -78.8881 -78.8875 -78.8871 -78.8859 -78.8854
   -78.8843 -78.8842 -78.8830 -78.8809 -78.8795 -78.8779 -78.8774 -78.8766
   -78.8759 -78.8749 -78.8748 -78.8743 -78.8729 -78.8711 -78.8691 -78.8674
   -78.8666 -78.8661 -78.8647 -78.8640 -78.8628 -78.8627 -78.8625 -78.8610
   -78.8578 -78.8575 -78.8568 -78.8561 -78.8557 -78.8550 -78.8549 -78.8534
   -78.8508 -78.8478 -78.8475 -78.8459 -78.8441 -78.8377 -78.8373 -78.8304
   -78.7909 -78.7900 -78.7895 -78.7889 -78.7878 -78.7873 -78.7866 -78.7842
   -78.7670 -78.7649 -78.7646 -78.7639 -78.7633 -78.7627 -78.7623 -78.7617
   -78.7610 -78.7607 -78.7595 -78.7582 -78.7502 -78.7476 -78.7455 -78.7426
   -17.6699 -16.2322 -15.3941 -13.0058 -12.9379 -10.0504  -9.7615  -7.8480
    -7.7982  -7.4467  -7.3469  -7.3129  -6.8530  -6.6850  -6.5825  -6.5261
    -6.5150  -6.4943  -6.4846  -6.4792  -6.4564  -6.4463  -6.4454  -6.4306
    -6.4212  -6.3894  -6.3748  -6.3690  -6.3576  -6.3554  -6.3526  -6.3484
    -6.3414  -6.3351  -6.3217  -6.3171  -6.3015  -6.2917  -6.2848  -6.2815
    -6.2785  -6.2628  -6.2608  -6.2423  -6.2354  -6.2088  -6.2030  -6.1952
    -6.1851  -6.1747  -6.1672  -6.1532  -6.1474  -6.1417  -6.1372  -6.1266
    -6.1186  -6.1043  -6.1029  -6.0991  -6.0678  -6.0650  -6.0602  -6.0601
    -6.0410  -6.0344  -6.0310  -6.0308  -6.0263  -6.0165  -6.0140  -6.0117
    -6.0072  -6.0064  -5.9816  -5.9791  -5.9768  -5.9725  -5.9686  -5.9646
    -5.9545  -5.9395  -5.9374  -5.9348  -5.9301  -5.9272  -5.9164  -5.9117
    -5.9028  -5.9011  -5.8892  -5.8859  -5.8850  -5.8841  -5.8815  -5.8724
    -5.8661  -5.8637  -5.8611  -5.8564  -5.8556  -5.8501  -5.8459  -5.8427
    -5.8402  -5.8369  -5.8366  -5.8259  -5.8180  -5.8128  -5.8063  -5.7997
    -5.7969  -5.7942  -5.7837  -5.7761  -5.7750  -5.7698  -5.7620  -5.7534
    -5.7467  -5.7414  -5.7321  -5.7308  -5.7221  -5.7202  -5.7134  -5.7122
    -5.7068  -5.6822  -5.6773  -5.6668  -5.6604  -5.6550  -5.6525  -5.6518
    -5.6491  -5.6368  -5.6286  -5.6165  -5.6151  -5.6135  -5.5946  -5.5882
    -5.5806  -5.5785  -5.5780  -5.5728  -5.5688  -5.5673  -5.5672  -5.5642
    -5.5632  -5.5604  -5.5553  -5.5548  -5.5416  -5.5379  -5.5349  -5.5301
    -5.5254  -5.5248  -5.5066  -5.5038  -5.5030  -5.4990  -5.4981  -5.4950
    -5.4910  -5.4787  -5.4706  -5.4685  -5.4634  -5.4606  -5.4560  -5.4509
    -5.4499  -5.4469  -5.4463  -5.4459  -5.4446  -5.4417  -5.4324  -5.4289
    -5.4280  -5.4235  -5.4229  -5.4197  -5.4105  -5.4050  -5.4046  -5.3985
    -5.3970  -5.3969  -5.3822  -5.3804  -5.3803  -5.3785  -5.3733  -5.3724
    -5.3715  -5.3712  -5.3687  -5.3661  -5.3622  -5.3574  -5.3560  -5.3543
    -5.3389  -5.3359  -5.3304  -5.3283  -5.3238  -5.3198  -5.3161  -5.3151
    -5.3140  -5.3105  -5.3096  -5.3056  -5.3054  -5.2953  -5.2885  -5.2878
    -5.2869  -5.2867  -5.2830  -5.2754  -5.2704  -5.2670  -5.2636  -5.2538
    -5.2484  -5.2460  -5.2448  -5.2433  -5.2342  -5.2259  -5.2247  -5.2202
    -5.2178  -5.2117  -5.2089  -5.2070  -5.2062  -5.1968  -5.1607  -5.1430
    -5.1368  -5.1335  -5.1246  -5.1163  -5.1109  -5.1072  -5.0929  -5.0808
    -5.0633  -4.8563  -4.8526  -4.7226  -4.7190  -4.7013  -4.1870  -4.0558
    -3.9419  -3.9335  -3.5980  -3.4832  -3.4419  -3.3767  -3.3192  -3.1554
    -3.0704  -3.0336  -2.8481  -2.7881  -2.1787  -2.0833  -1.8954  -1.8773
    -1.8352  -1.8053  -1.6803  -1.6687  -1.6562  -1.5713  -1.4673  -1.1929
    -1.1665  -0.8325  -0.7369  -0.6288  -0.5166  -0.3292  -0.2236  -0.2021
    -0.0661   0.1580   0.2060   0.2544   0.4800   0.5253   0.5791   0.9242
     1.0866   1.2022   1.2064   1.2976   1.4948   1.5162   1.5295   1.5381
     1.9001   2.0621   2.0879   2.1244   2.2293   2.4657   2.6810   2.8120
     2.8352   2.8427   2.8613   3.1640   3.2829   3.2998   3.5881   3.6888
     3.7296   3.7626   3.7953   3.8926   3.9982   4.0266   4.1259   4.1994
     4.2567   4.3096   4.3491   4.4734   4.6055   4.6685   4.7791   4.8225
     4.8983   5.0893   5.1428   5.2190   5.3690   5.4411   5.4715   5.4818
     5.5798   5.6524   5.6578   5.7244   5.7707   5.9380   5.9598   5.9976
     6.0416   6.0867   6.1414   6.2206   6.2871   6.3721   6.5248   6.5461
     6.5541   6.6133   6.7401   6.7626   6.9102   6.9756   6.9867   7.0446
     7.1854   7.2288   7.2714   7.2953   7.3567   7.4086   7.4392   7.4724
     7.4888   7.5248   7.5685   7.5890   7.6104   7.6685   7.8638   7.9359
     7.9473   7.9566   8.0034   8.0382   8.0771   8.1066   8.1909   8.2779
     8.3077   8.3855   8.3864   8.4351   8.4536   8.4893   8.5574   8.5794
     8.6526   8.7006

     occupation numbers 
     1.0000   1.0000   1.0000   1.0000   1.0000   1.0000   1.0000   1.0000
     1.0000   1.0000   1.0000   1.0000   1.0000   1.0000   1.0000   1.0000
     1.0000   1.0000   1.0000   1.0000   1.0000   1.0000   1.0000   1.0000
     1.0000   1.0000   1.0000   1.0000   1.0000   1.0000   1.0000   1.0000
     1.0000   1.0000   1.0000   1.0000   1.0000   1.0000   1.0000   1.0000
     1.0000   1.0000   1.0000   1.0000   1.0000   1.0000   1.0000   1.0000
     1.0000   1.0000   1.0000   1.0000   1.0000   1.0000   1.0000   1.0000
     1.0000   1.0000   1.0000   1.0000   1.0000   1.0000   1.0000   1.0000
     1.0000   1.0000   1.0000   1.0000   1.0000   1.0000   1.0000   1.0000
     1.0000   1.0000   1.0000   1.0000   1.0000   1.0000   1.0000   1.0000
     1.0000   1.0000   1.0000   1.0000   1.0000   1.0000   1.0000   1.0000
     1.0000   1.0000   1.0000   1.0000   1.0000   1.0000   1.0000   1.0000
     1.0000   1.0000   1.0000   1.0000   1.0000   1.0000   1.0000   1.0000
     1.0000   1.0000   1.0000   1.0000   1.0000   1.0000   1.0000   1.0000
     1.0000   1.0000   1.0000   1.0000   1.0000   1.0000   1.0000   1.0000
     1.0000   1.0000   1.0000   1.0000   1.0000   1.0000   1.0000   1.0000
     1.0000   1.0000   1.0000   1.0000   1.0000   1.0000   1.0000   1.0000
     1.0000   1.0000   1.0000   1.0000   1.0000   1.0000   1.0000   1.0000
     1.0000   1.0000   1.0000   1.0000   1.0000   1.0000   1.0000   1.0000
     1.0000   1.0000   1.0000   1.0000   1.0000   1.0000   1.0000   1.0000
     1.0000   1.0000   1.0000   1.0000   1.0000   1.0000   1.0000   1.0000
     1.0000   1.0000   1.0000   1.0000   1.0000   1.0000   1.0000   1.0000
     1.0000   1.0000   1.0000   1.0000   1.0000   1.0000   1.0000   1.0000
     1.0000   1.0000   1.0000   1.0000   1.0000   1.0000   1.0000   1.0000
     1.0000   1.0000   1.0000   1.0000   1.0000   1.0000   1.0000   1.0000
     1.0000   1.0000   1.0000   1.0000   1.0000   1.0000   1.0000   1.0000
     1.0000   1.0000   1.0000   1.0000   1.0000   1.0000   1.0000   1.0000
     1.0000   1.0000   1.0000   1.0000   1.0000   1.0000   1.0000   1.0000
     1.0000   1.0000   1.0000   1.0000   1.0000   1.0000   1.0000   1.0000
     1.0000   1.0000   1.0000   1.0000   1.0000   1.0000   1.0000   1.0000
     1.0000   1.0000   1.0000   1.0000   1.0000   1.0000   1.0000   1.0000
     1.0000   1.0000   1.0000   1.0000   1.0000   1.0000   1.0000   1.0000
     1.0000   1.0000   1.0000   1.0000   1.0000   1.0000   1.0000   1.0000
     1.0000   1.0000   1.0000   1.0000   1.0000   1.0000   1.0000   1.0000
     1.0000   1.0000   1.0000   1.0000   1.0000   1.0000   1.0000   1.0000
     1.0000   1.0000   1.0000   1.0000   1.0000   1.0000   1.0000   1.0000
     1.0000   1.0000   1.0000   1.0000   1.0000   1.0000   1.0000   1.0000
     1.0000   1.0000   1.0000   1.0000   1.0000   1.0000   1.0000   1.0000
     1.0000   1.0000   1.0000   1.0000   1.0000   1.0000   1.0000   1.0000
     1.0000   1.0000   1.0000   1.0000   1.0000   1.0000   1.0000   1.0000
     1.0000   1.0000   1.0000   1.0000   1.0000   1.0000   1.0000   1.0000
     1.0000   1.0000   1.0000   1.0000   1.0000   1.0000   1.0000   1.0000
     1.0000   1.0000   1.0000   1.0000   1.0000   1.0000   1.0000   1.0000
     1.0000   1.0000   1.0000   1.0000   1.0000   1.0000   1.0000   1.0000
     1.0000   1.0000   1.0000   1.0000   1.0000   1.0000   1.0000   1.0000
     1.0000   1.0000   1.0000   1.0000   1.0000   1.0000   1.0000   1.0000
     1.0000   1.0000   1.0000   1.0000   1.0000   1.0000   1.0000   1.0000
     1.0000   1.0000   1.0000   1.0000   1.0000   1.0000   1.0000   1.0000
     1.0000   1.0000   1.0000   1.0000   1.0000   1.0000   1.0000   1.0000
     1.0000   1.0000   1.0000   1.0000   1.0000   1.0000   1.0000   1.0000
     1.0000   1.0000   1.0000   1.0000   1.0000   1.0000   1.0000   1.0000
     1.0000   1.0000   1.0000   1.0000   1.0000   1.0000   1.0000   1.0000
     1.0000   1.0000   1.0000   1.0000   1.0000   1.0000   1.0000   1.0000
     1.0000   1.0000   1.0000   1.0000   1.0000   1.0000   1.0000   1.0000
     1.0000   1.0000   1.0000   1.0000   1.0000   1.0000   1.0000   1.0000
     1.0000   1.0000   1.0000   1.0000   1.0000   1.0000   1.0000   1.0000
     1.0000   1.0000   1.0000   1.0000   1.0000   1.0000   1.0000   1.0000
     1.0000   1.0000   1.0000   1.0000   1.0000   1.0000   1.0000   1.0000
     1.0000   1.0000   1.0000   1.0000   1.0000   1.0000   1.0000   1.0000
     1.0000   1.0000   1.0000   1.0000   1.0000   1.0000   1.0000   1.0000
     1.0000   1.0000   1.0000   1.0000   1.0000   1.0000   1.0000   1.0000
     1.0000   1.0000   1.0000   1.0000   1.0001   1.0003   1.0008   1.0536
     1.0775   0.9683   0.9613   0.7624   0.2578   0.2170   0.1941   0.1800
     0.0014   0.0001   0.0000   0.0000   0.0000   0.0000   0.0000   0.0000
     0.0000   0.0000   0.0000   0.0000   0.0000   0.0000   0.0000   0.0000
     0.0000   0.0000   0.0000   0.0000   0.0000   0.0000   0.0000   0.0000
     0.0000   0.0000   0.0000   0.0000   0.0000   0.0000   0.0000   0.0000
     0.0000   0.0000   0.0000   0.0000   0.0000   0.0000   0.0000   0.0000
     0.0000   0.0000   0.0000   0.0000   0.0000   0.0000   0.0000   0.0000
     0.0000   0.0000   0.0000   0.0000   0.0000   0.0000   0.0000   0.0000
     0.0000   0.0000   0.0000   0.0000   0.0000   0.0000   0.0000   0.0000
     0.0000   0.0000   0.0000   0.0000   0.0000   0.0000   0.0000   0.0000
     0.0000   0.0000   0.0000   0.0000   0.0000   0.0000   0.0000   0.0000
     0.0000   0.0000   0.0000   0.0000   0.0000   0.0000   0.0000   0.0000
     0.0000   0.0000   0.0000   0.0000   0.0000   0.0000   0.0000   0.0000
     0.0000   0.0000

          k = 0.3333 0.0000 0.0000 ( 67745 PWs)   bands (ev):

  -124.9680-124.9671-124.9666-124.9658-124.9573-124.9564-124.9559-124.9550
  -124.8138-124.8128-124.8122-124.8112-124.8041-124.8034-124.8030-124.8028
  -124.8017-124.7845-124.7828-124.7779-124.7741-124.7723-124.7723-124.7704
  -124.7322-124.7291-124.7288-124.7276-124.7273-124.7258-124.7256-124.7242
  -124.7132-124.7070-124.7052-124.7035-124.7017-124.6993-124.6960-124.6942
  -124.6163-124.6153-124.6147-124.6142-124.6132-124.6125-124.6120-124.6096
   -79.1260 -79.1234 -79.1223 -79.1219 -79.1208 -79.1169 -79.1158 -79.1154
   -79.1153 -79.1144 -79.1136 -79.1134 -79.1129 -79.1118 -79.1114 -79.1103
   -79.1062 -79.1052 -79.1047 -79.1037 -79.1028 -79.1027 -79.1010 -79.0903
   -78.9733 -78.9722 -78.9717 -78.9707 -78.9697 -78.9696 -78.9686 -78.9679
   -78.9668 -78.9665 -78.9635 -78.9624 -78.9622 -78.9610 -78.9603 -78.9592
   -78.9588 -78.9577 -78.9569 -78.9542 -78.9541 -78.9514 -78.9486 -78.9479
   -78.9467 -78.9446 -78.9445 -78.9418 -78.9417 -78.9382 -78.9364 -78.9364
   -78.9344 -78.9328 -78.9322 -78.9307 -78.9304 -78.9292 -78.9292 -78.9245
   -78.9208 -78.9189 -78.9188 -78.9180 -78.9179 -78.9168 -78.9165 -78.9054
   -78.8922 -78.8896 -78.8890 -78.8887 -78.8875 -78.8871 -78.8858 -78.8857
   -78.8855 -78.8842 -78.8809 -78.8779 -78.8775 -78.8775 -78.8766 -78.8766
   -78.8759 -78.8749 -78.8747 -78.8745 -78.8736 -78.8733 -78.8729 -78.8691
   -78.8666 -78.8647 -78.8646 -78.8640 -78.8635 -78.8628 -78.8611 -78.8610
   -78.8578 -78.8575 -78.8570 -78.8568 -78.8557 -78.8550 -78.8534 -78.8509
   -78.8508 -78.8483 -78.8475 -78.8459 -78.8440 -78.8413 -78.8366 -78.8294
   -78.7909 -78.7899 -78.7895 -78.7890 -78.7878 -78.7873 -78.7867 -78.7842
   -78.7686 -78.7661 -78.7649 -78.7639 -78.7633 -78.7627 -78.7616 -78.7610
   -78.7608 -78.7582 -78.7563 -78.7562 -78.7537 -78.7535 -78.7439 -78.7411
   -17.6699 -16.2322 -15.3940 -13.0058 -12.9379 -10.0504  -9.7615  -7.8479
    -7.7908  -7.4467  -7.3484  -7.3147  -6.7089  -6.6299  -6.6218  -6.6089
    -6.6086  -6.5500  -6.5277  -6.5232  -6.4933  -6.4698  -6.4554  -6.4468
    -6.4465  -6.4314  -6.4108  -6.3937  -6.3692  -6.3539  -6.3513  -6.3228
    -6.3015  -6.2860  -6.2835  -6.2832  -6.2830  -6.2765  -6.2764  -6.2526
    -6.2524  -6.2395  -6.2365  -6.2260  -6.2259  -6.2166  -6.2108  -6.2106
    -6.1949  -6.1947  -6.1943  -6.1780  -6.1504  -6.1502  -6.1316  -6.1310
    -6.1032  -6.0921  -6.0898  -6.0864  -6.0856  -6.0843  -6.0834  -6.0756
    -6.0608  -6.0556  -6.0530  -6.0504  -6.0348  -6.0343  -6.0172  -6.0167
    -6.0116  -5.9941  -5.9939  -5.9888  -5.9885  -5.9676  -5.9663  -5.9634
    -5.9568  -5.9440  -5.9289  -5.9209  -5.9209  -5.9056  -5.9053  -5.8993
    -5.8964  -5.8889  -5.8888  -5.8816  -5.8776  -5.8740  -5.8736  -5.8567
    -5.8465  -5.8464  -5.8429  -5.8426  -5.8310  -5.8307  -5.8231  -5.8092
    -5.8071  -5.8034  -5.8030  -5.8004  -5.8004  -5.7688  -5.7669  -5.7640
    -5.7635  -5.7590  -5.7363  -5.7177  -5.7133  -5.7098  -5.7096  -5.7032
    -5.7022  -5.6891  -5.6850  -5.6848  -5.6832  -5.6826  -5.6777  -5.6732
    -5.6730  -5.6682  -5.6565  -5.6563  -5.6547  -5.6490  -5.6459  -5.6453
    -5.6425  -5.6424  -5.6291  -5.6290  -5.6137  -5.6134  -5.6055  -5.6043
    -5.5986  -5.5944  -5.5809  -5.5795  -5.5743  -5.5643  -5.5639  -5.5590
    -5.5587  -5.5576  -5.5478  -5.5477  -5.5419  -5.5289  -5.5287  -5.5185
    -5.5169  -5.5167  -5.5159  -5.5158  -5.5154  -5.4982  -5.4978  -5.4923
    -5.4922  -5.4900  -5.4877  -5.4854  -5.4843  -5.4840  -5.4833  -5.4811
    -5.4792  -5.4784  -5.4760  -5.4759  -5.4719  -5.4582  -5.4533  -5.4519
    -5.4517  -5.4473  -5.4417  -5.4408  -5.4407  -5.4393  -5.4332  -5.4320
    -5.4168  -5.4134  -5.4113  -5.4109  -5.4076  -5.4049  -5.4040  -5.3987
    -5.3974  -5.3896  -5.3837  -5.3834  -5.3826  -5.3759  -5.3757  -5.3690
    -5.3639  -5.3638  -5.3544  -5.3514  -5.3445  -5.3385  -5.3379  -5.3285
    -5.3234  -5.3174  -5.3170  -5.3102  -5.3099  -5.3046  -5.3044  -5.2986
    -5.2917  -5.2911  -5.2894  -5.2831  -5.2765  -5.2750  -5.2704  -5.2683
    -5.2614  -5.2554  -5.2380  -5.2345  -5.2344  -5.2213  -5.2208  -5.2193
    -5.2190  -5.2170  -5.2093  -5.1988  -5.1954  -5.1761  -5.1507  -5.1387
    -5.1263  -5.1238  -5.1227  -5.1206  -5.1055  -5.0919  -5.0809  -5.0792
    -5.0429  -5.0425  -5.0291  -4.9147  -4.7016  -4.3902  -4.1920  -4.1799
    -4.1720  -3.9356  -3.6965  -3.6959  -3.1713  -3.0393  -3.0331  -2.9621
    -2.9614  -2.8481  -2.7646  -2.5886  -2.1788  -2.0103  -2.0089  -1.8055
    -1.6970  -1.6961  -1.5704  -1.5144  -1.4341  -1.3383  -1.3081  -1.3073
    -1.2963  -1.2938  -1.1048  -0.9504  -0.8318  -0.7624  -0.1882  -0.0776
     0.0887   0.0994   0.1019   0.2601   0.4020   0.4376   0.5470   0.6091
     0.6245   0.8092   0.9406   1.0557   1.4559   1.4640   1.6244   1.6795
     1.9622   2.0802   2.0862   2.3100   2.3145   2.4559   2.9343   2.9458
     2.9478   3.0342   3.0944   3.0955   3.2140   3.2400   3.2460   3.3341
     3.7363   4.0327   4.0469   4.1458   4.3014   4.3515   4.3567   4.3666
     4.4046   4.5054   4.5580   4.5880   4.5934   4.9219   4.9833   5.0358
     5.0974   5.1186   5.3031   5.4820   5.5577   5.6553   5.7283   5.7515
     5.7533   5.7587   5.7592   5.8887   5.9256   5.9540   5.9778   6.0871
     6.1590   6.2677   6.2980   6.2996   6.4230   6.4338   6.4512   6.4966
     6.5205   6.6081   6.6491   6.6806   6.6987   6.7171   6.8647   6.9537
     6.9999   7.0473   7.0660   7.1300   7.2460   7.2727   7.3242   7.3320
     7.3471   7.3525   7.3560   7.4634   7.4757   7.5557   7.5727   7.6487
     7.6843   7.8177   7.8828   7.8843   7.9577   8.0216   8.1076   8.1556
     8.2218   8.2482   8.2849   8.3461   8.3791   8.4322   8.4938   8.4988
     8.5069   8.5601

     occupation numbers 
     1.0000   1.0000   1.0000   1.0000   1.0000   1.0000   1.0000   1.0000
     1.0000   1.0000   1.0000   1.0000   1.0000   1.0000   1.0000   1.0000
     1.0000   1.0000   1.0000   1.0000   1.0000   1.0000   1.0000   1.0000
     1.0000   1.0000   1.0000   1.0000   1.0000   1.0000   1.0000   1.0000
     1.0000   1.0000   1.0000   1.0000   1.0000   1.0000   1.0000   1.0000
     1.0000   1.0000   1.0000   1.0000   1.0000   1.0000   1.0000   1.0000
     1.0000   1.0000   1.0000   1.0000   1.0000   1.0000   1.0000   1.0000
     1.0000   1.0000   1.0000   1.0000   1.0000   1.0000   1.0000   1.0000
     1.0000   1.0000   1.0000   1.0000   1.0000   1.0000   1.0000   1.0000
     1.0000   1.0000   1.0000   1.0000   1.0000   1.0000   1.0000   1.0000
     1.0000   1.0000   1.0000   1.0000   1.0000   1.0000   1.0000   1.0000
     1.0000   1.0000   1.0000   1.0000   1.0000   1.0000   1.0000   1.0000
     1.0000   1.0000   1.0000   1.0000   1.0000   1.0000   1.0000   1.0000
     1.0000   1.0000   1.0000   1.0000   1.0000   1.0000   1.0000   1.0000
     1.0000   1.0000   1.0000   1.0000   1.0000   1.0000   1.0000   1.0000
     1.0000   1.0000   1.0000   1.0000   1.0000   1.0000   1.0000   1.0000
     1.0000   1.0000   1.0000   1.0000   1.0000   1.0000   1.0000   1.0000
     1.0000   1.0000   1.0000   1.0000   1.0000   1.0000   1.0000   1.0000
     1.0000   1.0000   1.0000   1.0000   1.0000   1.0000   1.0000   1.0000
     1.0000   1.0000   1.0000   1.0000   1.0000   1.0000   1.0000   1.0000
     1.0000   1.0000   1.0000   1.0000   1.0000   1.0000   1.0000   1.0000
     1.0000   1.0000   1.0000   1.0000   1.0000   1.0000   1.0000   1.0000
     1.0000   1.0000   1.0000   1.0000   1.0000   1.0000   1.0000   1.0000
     1.0000   1.0000   1.0000   1.0000   1.0000   1.0000   1.0000   1.0000
     1.0000   1.0000   1.0000   1.0000   1.0000   1.0000   1.0000   1.0000
     1.0000   1.0000   1.0000   1.0000   1.0000   1.0000   1.0000   1.0000
     1.0000   1.0000   1.0000   1.0000   1.0000   1.0000   1.0000   1.0000
     1.0000   1.0000   1.0000   1.0000   1.0000   1.0000   1.0000   1.0000
     1.0000   1.0000   1.0000   1.0000   1.0000   1.0000   1.0000   1.0000
     1.0000   1.0000   1.0000   1.0000   1.0000   1.0000   1.0000   1.0000
     1.0000   1.0000   1.0000   1.0000   1.0000   1.0000   1.0000   1.0000
     1.0000   1.0000   1.0000   1.0000   1.0000   1.0000   1.0000   1.0000
     1.0000   1.0000   1.0000   1.0000   1.0000   1.0000   1.0000   1.0000
     1.0000   1.0000   1.0000   1.0000   1.0000   1.0000   1.0000   1.0000
     1.0000   1.0000   1.0000   1.0000   1.0000   1.0000   1.0000   1.0000
     1.0000   1.0000   1.0000   1.0000   1.0000   1.0000   1.0000   1.0000
     1.0000   1.0000   1.0000   1.0000   1.0000   1.0000   1.0000   1.0000
     1.0000   1.0000   1.0000   1.0000   1.0000   1.0000   1.0000   1.0000
     1.0000   1.0000   1.0000   1.0000   1.0000   1.0000   1.0000   1.0000
     1.0000   1.0000   1.0000   1.0000   1.0000   1.0000   1.0000   1.0000
     1.0000   1.0000   1.0000   1.0000   1.0000   1.0000   1.0000   1.0000
     1.0000   1.0000   1.0000   1.0000   1.0000   1.0000   1.0000   1.0000
     1.0000   1.0000   1.0000   1.0000   1.0000   1.0000   1.0000   1.0000
     1.0000   1.0000   1.0000   1.0000   1.0000   1.0000   1.0000   1.0000
     1.0000   1.0000   1.0000   1.0000   1.0000   1.0000   1.0000   1.0000
     1.0000   1.0000   1.0000   1.0000   1.0000   1.0000   1.0000   1.0000
     1.0000   1.0000   1.0000   1.0000   1.0000   1.0000   1.0000   1.0000
     1.0000   1.0000   1.0000   1.0000   1.0000   1.0000   1.0000   1.0000
     1.0000   1.0000   1.0000   1.0000   1.0000   1.0000   1.0000   1.0000
     1.0000   1.0000   1.0000   1.0000   1.0000   1.0000   1.0000   1.0000
     1.0000   1.0000   1.0000   1.0000   1.0000   1.0000   1.0000   1.0000
     1.0000   1.0000   1.0000   1.0000   1.0000   1.0000   1.0000   1.0000
     1.0000   1.0000   1.0000   1.0000   1.0000   1.0000   1.0000   1.0000
     1.0000   1.0000   1.0000   1.0000   1.0000   1.0000   1.0000   1.0000
     1.0000   1.0000   1.0000   1.0000   1.0000   1.0000   1.0000   1.0000
     1.0000   1.0000   1.0000   1.0000   1.0000   1.0000   1.0000   1.0000
     1.0000   1.0000   1.0000   1.0000   1.0000   1.0000   1.0000   1.0000
     1.0000   1.0000   1.0000   1.0000   1.0000   1.0000   1.0000   1.0000
     1.0000   1.0000   1.0000   1.0000   1.0000   1.0000   1.0000   1.0000
     1.0000   1.0000   1.0000   1.0000   1.0000   1.0000   1.0000   1.0000
     1.0000   1.0000   1.0000   1.0000   1.0000   1.0000   1.0000   1.0000
     1.0000   1.0000   1.0000   1.0000   1.0000   1.0001   1.0005   1.0013
     1.0017   1.0201   1.0592   1.0831   0.3423   0.3237   0.0767   0.0403
     0.0004   0.0000   0.0000   0.0000   0.0000   0.0000   0.0000   0.0000
     0.0000   0.0000   0.0000   0.0000   0.0000   0.0000   0.0000   0.0000
     0.0000   0.0000   0.0000   0.0000   0.0000   0.0000   0.0000   0.0000
     0.0000   0.0000   0.0000   0.0000   0.0000   0.0000   0.0000   0.0000
     0.0000   0.0000   0.0000   0.0000   0.0000   0.0000   0.0000   0.0000
     0.0000   0.0000   0.0000   0.0000   0.0000   0.0000   0.0000   0.0000
     0.0000   0.0000   0.0000   0.0000   0.0000   0.0000   0.0000   0.0000
     0.0000   0.0000   0.0000   0.0000   0.0000   0.0000   0.0000   0.0000
     0.0000   0.0000   0.0000   0.0000   0.0000   0.0000   0.0000   0.0000
     0.0000   0.0000   0.0000   0.0000   0.0000   0.0000   0.0000   0.0000
     0.0000   0.0000   0.0000   0.0000   0.0000   0.0000   0.0000   0.0000
     0.0000   0.0000   0.0000   0.0000   0.0000   0.0000   0.0000   0.0000
     0.0000   0.0000

          k = 0.3333 0.3107 0.1794 ( 67762 PWs)   bands (ev):

  -124.9679-124.9673-124.9665-124.9658-124.9572-124.9565-124.9557-124.9550
  -124.8138-124.8129-124.8121-124.8112-124.8041-124.8034-124.8032-124.8026
  -124.8017-124.7845-124.7828-124.7779-124.7741-124.7725-124.7721-124.7704
  -124.7322-124.7292-124.7287-124.7276-124.7273-124.7259-124.7255-124.7242
  -124.7132-124.7070-124.7052-124.7035-124.7017-124.6993-124.6960-124.6942
  -124.6162-124.6154-124.6147-124.6142-124.6132-124.6125-124.6120-124.6096
   -79.1244 -79.1233 -79.1226 -79.1216 -79.1209 -79.1197 -79.1168 -79.1161
   -79.1152 -79.1144 -79.1136 -79.1128 -79.1121 -79.1111 -79.1104 -79.1089
   -79.1073 -79.1062 -79.1054 -79.1045 -79.1037 -79.1027 -79.0965 -79.0919
   -78.9732 -78.9724 -78.9716 -78.9707 -78.9697 -78.9696 -78.9687 -78.9678
   -78.9668 -78.9649 -78.9635 -78.9626 -78.9620 -78.9611 -78.9603 -78.9603
   -78.9594 -78.9586 -78.9577 -78.9553 -78.9510 -78.9507 -78.9486 -78.9481
   -78.9479 -78.9467 -78.9435 -78.9417 -78.9384 -78.9382 -78.9366 -78.9362
   -78.9352 -78.9344 -78.9339 -78.9307 -78.9292 -78.9288 -78.9265 -78.9245
   -78.9240 -78.9208 -78.9191 -78.9186 -78.9172 -78.9168 -78.9118 -78.9070
   -78.8922 -78.8891 -78.8887 -78.8881 -78.8875 -78.8871 -78.8859 -78.8854
   -78.8843 -78.8842 -78.8830 -78.8809 -78.8795 -78.8779 -78.8774 -78.8766
   -78.8759 -78.8749 -78.8748 -78.8743 -78.8729 -78.8711 -78.8691 -78.8674
   -78.8666 -78.8661 -78.8647 -78.8640 -78.8628 -78.8627 -78.8625 -78.8610
   -78.8578 -78.8575 -78.8568 -78.8561 -78.8557 -78.8550 -78.8549 -78.8534
   -78.8508 -78.8478 -78.8475 -78.8459 -78.8441 -78.8377 -78.8373 -78.8304
   -78.7909 -78.7900 -78.7895 -78.7889 -78.7878 -78.7873 -78.7866 -78.7842
   -78.7670 -78.7649 -78.7646 -78.7639 -78.7633 -78.7627 -78.7623 -78.7617
   -78.7610 -78.7607 -78.7595 -78.7582 -78.7502 -78.7476 -78.7455 -78.7426
   -17.6699 -16.2322 -15.3940 -13.0058 -12.9379 -10.0504  -9.7615  -7.8479
    -7.6335  -7.4464  -7.3266  -7.1891  -7.1822  -6.7928  -6.6222  -6.5448
    -6.5347  -6.4934  -6.4715  -6.4618  -6.4532  -6.4451  -6.4269  -6.4236
    -6.3838  -6.3830  -6.3762  -6.3661  -6.3595  -6.3591  -6.3577  -6.3514
    -6.3471  -6.3334  -6.3264  -6.3225  -6.3168  -6.2988  -6.2980  -6.2781
    -6.2747  -6.2703  -6.2607  -6.2569  -6.2359  -6.2353  -6.2243  -6.2170
    -6.2168  -6.2022  -6.1891  -6.1608  -6.1576  -6.1557  -6.1535  -6.1497
    -6.1263  -6.1146  -6.0930  -6.0913  -6.0866  -6.0813  -6.0700  -6.0673
    -6.0603  -6.0589  -6.0553  -6.0422  -6.0373  -6.0346  -6.0336  -6.0193
    -6.0137  -6.0103  -6.0033  -6.0015  -5.9855  -5.9829  -5.9802  -5.9678
    -5.9655  -5.9632  -5.9514  -5.9469  -5.9387  -5.9367  -5.9301  -5.9289
    -5.9173  -5.9147  -5.9059  -5.9036  -5.8953  -5.8836  -5.8776  -5.8752
    -5.8739  -5.8614  -5.8603  -5.8572  -5.8560  -5.8407  -5.8308  -5.8285
    -5.8271  -5.8204  -5.8198  -5.7991  -5.7981  -5.7938  -5.7895  -5.7888
    -5.7856  -5.7774  -5.7686  -5.7608  -5.7469  -5.7446  -5.7432  -5.7380
    -5.7212  -5.7177  -5.7098  -5.6947  -5.6836  -5.6832  -5.6817  -5.6810
    -5.6805  -5.6629  -5.6590  -5.6447  -5.6421  -5.6378  -5.6302  -5.6174
    -5.6169  -5.6135  -5.6109  -5.6075  -5.6051  -5.6029  -5.6003  -5.5964
    -5.5873  -5.5843  -5.5780  -5.5733  -5.5641  -5.5631  -5.5572  -5.5472
    -5.5426  -5.5417  -5.5394  -5.5294  -5.5246  -5.5185  -5.5183  -5.5134
    -5.5117  -5.5079  -5.5052  -5.4958  -5.4931  -5.4897  -5.4891  -5.4884
    -5.4843  -5.4812  -5.4700  -5.4690  -5.4683  -5.4662  -5.4623  -5.4487
    -5.4481  -5.4449  -5.4422  -5.4411  -5.4380  -5.4305  -5.4295  -5.4284
    -5.4265  -5.4229  -5.4222  -5.4212  -5.4192  -5.4148  -5.4132  -5.4106
    -5.4072  -5.4034  -5.3965  -5.3961  -5.3910  -5.3893  -5.3887  -5.3864
    -5.3832  -5.3802  -5.3763  -5.3708  -5.3626  -5.3622  -5.3607  -5.3517
    -5.3469  -5.3458  -5.3320  -5.3301  -5.3282  -5.3263  -5.3255  -5.3245
    -5.3213  -5.3177  -5.3176  -5.3159  -5.3012  -5.3008  -5.2909  -5.2897
    -5.2863  -5.2826  -5.2772  -5.2726  -5.2721  -5.2671  -5.2662  -5.2566
    -5.2497  -5.2485  -5.2463  -5.2460  -5.2449  -5.2389  -5.2386  -5.2267
    -5.2263  -5.2257  -5.2211  -5.2115  -5.2104  -5.2072  -5.1901  -5.1872
    -5.1807  -5.1748  -5.1532  -5.1526  -5.1238  -5.1221  -5.1213  -5.0807
    -5.0598  -4.7611  -4.7568  -4.7016  -4.6296  -4.3666  -4.1962  -4.1894
    -4.1841  -3.9353  -3.6987  -3.2428  -3.1646  -3.0452  -3.0340  -2.8788
    -2.8472  -2.7798  -2.6657  -2.6604  -2.5815  -2.4458  -2.4246  -2.1786
    -2.0785  -2.0167  -1.9255  -1.8055  -1.7438  -1.5709  -1.2651  -1.1675
    -1.0257  -0.8317  -0.6776  -0.6745  -0.6034  -0.5819  -0.2800  -0.2611
    -0.1393   0.0095   0.2750   0.5214   0.5702   0.5804   0.5903   0.6310
     0.9197   0.9848   1.0234   1.1064   1.1361   1.1782   1.4983   1.5565
     1.7718   1.8361   2.3073   2.5368   2.6420   2.8899   3.0872   3.1035
     3.1074   3.1840   3.2131   3.2584   3.3544   3.5720   3.6260   3.7397
     3.7694   3.8140   3.8873   4.0690   4.1631   4.1931   4.3124   4.3265
     4.3577   4.5187   4.6534   4.7022   4.7082   4.7965   4.9846   5.0101
     5.0419   5.0782   5.1132   5.1639   5.2116   5.3529   5.3916   5.4180
     5.5928   5.6035   5.6475   5.7511   5.8127   5.8176   5.8929   5.9278
     5.9806   6.0836   6.1440   6.2240   6.2563   6.2854   6.3821   6.4677
     6.5324   6.5826   6.6485   6.6682   6.7291   6.7502   6.7854   6.7964
     6.8650   6.9522   6.9789   7.0726   7.0986   7.1350   7.2405   7.3121
     7.4120   7.4477   7.4975   7.5147   7.5486   7.5869   7.6738   7.7397
     7.8009   7.8705   7.9379   8.0221   8.0602   8.0968   8.1314   8.1431
     8.1612   8.1909   8.2681   8.2931   8.3317   8.3691   8.4547   8.5036
     8.5464   8.5544

     occupation numbers 
     1.0000   1.0000   1.0000   1.0000   1.0000   1.0000   1.0000   1.0000
     1.0000   1.0000   1.0000   1.0000   1.0000   1.0000   1.0000   1.0000
     1.0000   1.0000   1.0000   1.0000   1.0000   1.0000   1.0000   1.0000
     1.0000   1.0000   1.0000   1.0000   1.0000   1.0000   1.0000   1.0000
     1.0000   1.0000   1.0000   1.0000   1.0000   1.0000   1.0000   1.0000
     1.0000   1.0000   1.0000   1.0000   1.0000   1.0000   1.0000   1.0000
     1.0000   1.0000   1.0000   1.0000   1.0000   1.0000   1.0000   1.0000
     1.0000   1.0000   1.0000   1.0000   1.0000   1.0000   1.0000   1.0000
     1.0000   1.0000   1.0000   1.0000   1.0000   1.0000   1.0000   1.0000
     1.0000   1.0000   1.0000   1.0000   1.0000   1.0000   1.0000   1.0000
     1.0000   1.0000   1.0000   1.0000   1.0000   1.0000   1.0000   1.0000
     1.0000   1.0000   1.0000   1.0000   1.0000   1.0000   1.0000   1.0000
     1.0000   1.0000   1.0000   1.0000   1.0000   1.0000   1.0000   1.0000
     1.0000   1.0000   1.0000   1.0000   1.0000   1.0000   1.0000   1.0000
     1.0000   1.0000   1.0000   1.0000   1.0000   1.0000   1.0000   1.0000
     1.0000   1.0000   1.0000   1.0000   1.0000   1.0000   1.0000   1.0000
     1.0000   1.0000   1.0000   1.0000   1.0000   1.0000   1.0000   1.0000
     1.0000   1.0000   1.0000   1.0000   1.0000   1.0000   1.0000   1.0000
     1.0000   1.0000   1.0000   1.0000   1.0000   1.0000   1.0000   1.0000
     1.0000   1.0000   1.0000   1.0000   1.0000   1.0000   1.0000   1.0000
     1.0000   1.0000   1.0000   1.0000   1.0000   1.0000   1.0000   1.0000
     1.0000   1.0000   1.0000   1.0000   1.0000   1.0000   1.0000   1.0000
     1.0000   1.0000   1.0000   1.0000   1.0000   1.0000   1.0000   1.0000
     1.0000   1.0000   1.0000   1.0000   1.0000   1.0000   1.0000   1.0000
     1.0000   1.0000   1.0000   1.0000   1.0000   1.0000   1.0000   1.0000
     1.0000   1.0000   1.0000   1.0000   1.0000   1.0000   1.0000   1.0000
     1.0000   1.0000   1.0000   1.0000   1.0000   1.0000   1.0000   1.0000
     1.0000   1.0000   1.0000   1.0000   1.0000   1.0000   1.0000   1.0000
     1.0000   1.0000   1.0000   1.0000   1.0000   1.0000   1.0000   1.0000
     1.0000   1.0000   1.0000   1.0000   1.0000   1.0000   1.0000   1.0000
     1.0000   1.0000   1.0000   1.0000   1.0000   1.0000   1.0000   1.0000
     1.0000   1.0000   1.0000   1.0000   1.0000   1.0000   1.0000   1.0000
     1.0000   1.0000   1.0000   1.0000   1.0000   1.0000   1.0000   1.0000
     1.0000   1.0000   1.0000   1.0000   1.0000   1.0000   1.0000   1.0000
     1.0000   1.0000   1.0000   1.0000   1.0000   1.0000   1.0000   1.0000
     1.0000   1.0000   1.0000   1.0000   1.0000   1.0000   1.0000   1.0000
     1.0000   1.0000   1.0000   1.0000   1.0000   1.0000   1.0000   1.0000
[...]
     atom   40 type  1   force =     0.00005966   -0.00000580    0.00000562
     atom   41 type  1   force =     0.00006068   -0.00006535   -0.00009411
     atom   42 type  1   force =     0.00008200    0.00007135   -0.00007339
     atom   43 type  1   force =     0.00000000   -0.00000000    0.00000000
     atom   44 type  1   force =     0.00000000    0.00000000   -0.00000000
     atom   45 type  1   force =     0.00006478    0.00001210   -0.00007311
     atom   46 type  1   force =     0.00005614   -0.00001415   -0.00009657
     atom   47 type  1   force =     0.00008200    0.00007895   -0.00008726
     atom   48 type  1   force =     0.00006555   -0.00009266   -0.00007097
     atom   49 type  3   force =    -0.00000077    0.00000418   -0.00000301
     atom   50 type  3   force =    -0.00000196    0.00000596    0.00000826
     atom   51 type  3   force =     0.00000282    0.00000293    0.00001663
     atom   52 type  3   force =    -0.00000475    0.00000035    0.00001466
     atom   53 type  3   force =     0.00001639    0.00000289    0.00002388
     atom   54 type  3   force =    -0.00000946   -0.00001203    0.00002446
     atom   55 type  3   force =     0.00000876   -0.00001166    0.00000287
     atom   56 type  2   force =     0.00000022    0.00000157   -0.00000109
     atom   57 type  2   force =     0.00001294   -0.00001236   -0.00002016
     atom   58 type  4   force =    -0.00000165    0.00000168   -0.00000274
     atom   59 type  4   force =     0.00000044    0.00000210   -0.00000236
     atom   60 type  4   force =     0.00000227    0.00000236   -0.00000136
     atom   61 type  4   force =    -0.00000277   -0.00000150   -0.00000170
     atom   62 type  4   force =    -0.00000039   -0.00000069    0.00000268
     atom   63 type  4   force =     0.00000152   -0.00000013    0.00000208

     DFT-D3 dispersion contribution to forces:
     atom    1 type  1   force =     0.00000091    0.00000029    0.00150352
     atom    2 type  1   force =     0.00000284   -0.00000256    0.00149726
     atom    3 type  1   force =     0.00003356    0.00001967    0.00161372
     atom    4 type  1   force =     0.00002550   -0.00001186    0.00155020
     atom    5 type  1   force =     0.00010197    0.00009673   -0.00104741
     atom    6 type  1   force =     0.00036343   -0.00024044   -0.00062246
     atom    7 type  1   force =    -0.00000015   -0.00000115    0.00149522
     atom    8 type  1   force =     0.00000096   -0.00000326    0.00150610
     atom    9 type  1   force =    -0.00007177    0.00000551    0.00152184
     atom   10 type  1   force =     0.00006654   -0.00000132    0.00157589
     atom   11 type  1   force =     0.00045563    0.00016042   -0.00049587
     atom   12 type  1   force =     0.00006972   -0.00004146   -0.00112249
     atom   13 type  1   force =     0.00000119    0.00000069    0.00149451
     atom   14 type  1   force =    -0.00000167   -0.00000391    0.00150100
     atom   15 type  1   force =    -0.00004208    0.00002027    0.00155333
     atom   16 type  1   force =    -0.00002178   -0.00000691    0.00162411
     atom   17 type  1   force =    -0.00009071    0.00008610   -0.00104699
     atom   18 type  1   force =    -0.00040424   -0.00024220   -0.00048456
     atom   19 type  1   force =    -0.00000148   -0.00000108    0.00149847
     atom   20 type  1   force =    -0.00000289   -0.00000417    0.00150106
     atom   21 type  1   force =     0.00004405    0.00000592    0.00154508
     atom   22 type  1   force =    -0.00006895   -0.00000600    0.00158854
     atom   23 type  1   force =    -0.00048297    0.00027699   -0.00032929
     atom   24 type  1   force =    -0.00006857   -0.00007084   -0.00108299
     atom   25 type  1   force =    -0.00000736    0.00000013    0.00271443
     atom   26 type  1   force =    -0.00000150   -0.00000971    0.00271944
     atom   27 type  1   force =    -0.00001317    0.00001257   -0.00247719
     atom   28 type  1   force =    -0.00006258   -0.00001322   -0.00236401
     atom   29 type  1   force =    -0.00002828    0.00001642   -0.00204319
     atom   30 type  1   force =     0.00002982   -0.00008718   -0.00057334
     atom   31 type  1   force =    -0.00000525   -0.00000178    0.00273091
     atom   32 type  1   force =    -0.00000275   -0.00000723    0.00270801
     atom   33 type  1   force =     0.00004677    0.00001973   -0.00234623
     atom   34 type  1   force =    -0.00001973   -0.00001866   -0.00247441
     atom   35 type  1   force =    -0.00002539    0.00057827   -0.00127716
     atom   36 type  1   force =     0.00003237   -0.00049492   -0.00151046
     atom   37 type  1   force =     0.00000916   -0.00000791    0.00268578
     atom   38 type  1   force =     0.00000266    0.00000044    0.00269062
     atom   39 type  1   force =     0.00000192   -0.00000242   -0.00243683
     atom   40 type  1   force =     0.00005398   -0.00000391   -0.00244101
     atom   41 type  1   force =     0.00002480   -0.00000866   -0.00214513
     atom   42 type  1   force =     0.00000518   -0.00000039   -0.00201183
     atom   43 type  1   force =     0.00000518   -0.00000071    0.00268561
     atom   44 type  1   force =     0.00000591   -0.00000611    0.00269547
     atom   45 type  1   force =    -0.00004474    0.00001050   -0.00242006
     atom   46 type  1   force =     0.00002887   -0.00001867   -0.00244329
     atom   47 type  1   force =     0.00002233    0.00002159   -0.00207125
     atom   48 type  1   force =     0.00002613   -0.00001919   -0.00208349
     atom   49 type  3   force =     0.00000095   -0.00001356    0.00012619
     atom   50 type  3   force =    -0.00000796   -0.00000354   -0.00003017
     atom   51 type  3   force =     0.00012692    0.00007998   -0.00008462
     atom   52 type  3   force =    -0.00011318   -0.00007011   -0.00009778
     atom   53 type  3   force =     0.00018001    0.00009578   -0.00012982
     atom   54 type  3   force =    -0.00018176   -0.00013595   -0.00017076
     atom   55 type  3   force =    -0.00000001    0.00001415   -0.00077561
     atom   56 type  2   force =    -0.00000469    0.00004154   -0.00032459
     atom   57 type  2   force =    -0.00000092    0.00001004   -0.00170769
     atom   58 type  4   force =     0.00003732    0.00003292   -0.00170272
     atom   59 type  4   force =    -0.00002623   -0.00003327   -0.00165796
     atom   60 type  4   force =    -0.00001387    0.00000183    0.00001721
     atom   61 type  4   force =     0.00000427   -0.00000510    0.00001925
     atom   62 type  4   force =     0.00000444    0.00000566   -0.00017783
     atom   63 type  4   force =     0.00000137   -0.00001477   -0.00015228

     Total force =     0.006942     Total SCF correction =     0.000756

     DFT-D3 dispersion Force =     0.013631
     SCF correction compared to forces is large: reduce conv_thr to get better values


     Computing stress (Cartesian axis) and pressure


     negative rho (up, down):  3.136E-03 0.000E+00
          total   stress  (Ry/bohr**3)                   (kbar)     P=      -17.37
  -0.00019777   0.00000103   0.00000004          -29.09        0.15        0.01
   0.00000103  -0.00013357  -0.00000017            0.15      -19.65       -0.03
   0.00000004  -0.00000017  -0.00002287            0.01       -0.03       -3.36

     kinetic stress (kbar)  12436.71    -29.89     -1.95
                              -29.89  12436.49      4.20
                               -1.95      4.20  12431.67

     local   stress (kbar)-946532.69   -740.79    -81.64
                             -740.79-958064.57    224.90
                              -81.64    224.90 955036.14

     nonloc. stress (kbar)  -1166.68      2.04      0.22
                                2.04  -1140.61     -0.59
                                0.22     -0.59  -1183.26

     hartree stress (kbar) 499853.71    272.43     32.07
                              272.43 504833.09    -90.79
                               32.07    -90.79-444291.30

     exc-cor stress (kbar)  -6053.98      1.47      0.12
                                1.47  -6051.80     -0.27
                                0.12     -0.27  -6056.51

     corecor stress (kbar)    -79.72     -0.43     -0.04
                               -0.43    -79.38      0.09
                               -0.04      0.09    -80.42

     ewald   stress (kbar) 441519.55    495.31     51.22
                              495.31 448055.82   -137.58
                               51.22   -137.58-515856.45

     hubbard stress (kbar)      0.00      0.00      0.00
                                0.00      0.00      0.00
                                0.00      0.00      0.00

     DFT-D   stress (kbar)     -5.99      0.01      0.00
                                0.01     -8.69      0.01
                                0.00      0.01     -3.22

     XDM     stress (kbar)      0.00      0.00      0.00
                                0.00      0.00      0.00
                                0.00      0.00      0.00

     dft-nl  stress (kbar)      0.00      0.00      0.00
                                0.00      0.00      0.00
                                0.00      0.00      0.00

     TS-vdW  stress (kbar)      0.00      0.00      0.00
                                0.00      0.00      0.00
                                0.00      0.00      0.00

     MDB     stress (kbar)      0.00      0.00      0.00
                                0.00      0.00      0.00
                                0.00      0.00      0.00

     3D-RISM stress (kbar)      0.00      0.00      0.00
                                0.00      0.00      0.00
                                0.00      0.00      0.00

     Energy error            =      6.7E-05 Ry
     Gradient error          =      1.9E-03 Ry/Bohr

     number of scf cycles    =  25
     number of bfgs steps    =  24

     energy             old  =  -22331.2156844468 Ry
     energy             new  =  -22331.2157511762 Ry

     CASE: energy            _new < energy            _old

     new trust radius        =       0.0311022992 bohr
     new conv_thr            =       0.0000000375 Ry


ATOMIC_POSITIONS (angstrom)
Zn               1.2182900000        1.3071800000        0.7547010000    0   0   0
Zn               1.2182900000        6.5359000000        0.7547010000    0   0   0
Zn               1.2218908601        0.0029110836        3.5987229508
Zn               1.2213029524        5.2282302991        3.5970357032
Zn               1.2243958373       -1.3050963764        6.1139980149
Zn               1.2180879376        3.9220219962        6.1363534552
Zn               1.2182900000        3.9215400000        0.7547010000    0   0   0
Zn               1.2182900000        9.1502600000        0.7547010000    0   0   0
Zn               1.2198518159        2.6161889091        3.5939685009
Zn               1.2222336615        7.8447098328        3.5908068313
Zn               1.2177720046        1.3095088714        6.1163920200
Zn               1.2248471390        6.5375220020        6.1168398307
Zn               6.0914510000        1.3071800000        0.7547010000    0   0   0
Zn               6.0914510000        6.5359000000        0.7547010000    0   0   0
Zn               6.0869800252        0.0040433861        3.5963604163
Zn               6.0880580673        5.2295942105        3.5961283969
Zn               6.0836059439       -1.3045041195        6.1279575702
Zn               6.0864240165        3.9248209996        6.1195962296
Zn               6.0914510000        3.9215400000        0.7547010000    0   0   0
Zn               6.0914510000        9.1502600000        0.7547010000    0   0   0
Zn               6.0903522706        2.6154291292        3.5930915909
Zn               6.0855490156        7.8445104102        3.5900181666
Zn               6.0836868997        1.3127748802        6.1538781073
Zn               6.0855053741        6.5378414554        6.1194889406
Zn               3.6548710000       -0.0000000000        1.5094010000    0   0   0
Zn               3.6548710000        5.2287200000        1.5094010000    0   0   0
Zn               3.6516011769       -1.3034651351        3.7792168574
Zn               3.6507881168        3.9223681241        3.7728519685
Zn               3.6494583135       -2.6131568309        6.1610502117
Zn               3.6429603984        2.6194975705        6.1253774020
Zn               3.6548710000        2.6143600000        1.5094010000    0   0   0
Zn               3.6548710000        7.8430800000        1.5094010000    0   0   0
Zn               3.6553791576        1.3098567365        3.7736003190
Zn               3.6509646103        6.5358396732        3.7769380157
Zn               3.6501176833        0.0105838182        6.1532156143
Zn               3.6466417593        5.2244429740        6.1487950370
Zn               8.5280310000       -0.0000000000        1.5094010000    0   0   0
Zn               8.5280310000        5.2287200000        1.5094010000    0   0   0
Zn               8.5278110118       -1.3053820051        3.7776264286
Zn               8.5308708307        3.9217898535        3.7808762493
Zn               8.5329899378       -2.6135792576        6.1482651524
Zn               8.5295031115        2.6166034913        6.1630512220
Zn               8.5280310000        2.6143600000        1.5094010000    0   0   0
Zn               8.5280310000        7.8430800000        1.5094010000    0   0   0
Zn               8.5288998982        1.3092656235        3.7809679238
Zn               8.5314560128        6.5356403409        3.7764299448
Zn               8.5282872037       -0.0003469687        6.1562888408
Zn               8.5354034118        5.2326554836        6.1559732172
C                3.8462587982        1.9907326126       15.2300627741
C                3.8336797364        2.0953454531       13.8089231655
C                4.8310211107        2.8227310392       13.1298091920
C                2.8252167367        1.4715011410       13.0485173518
C                4.8184299907        2.9281711421       11.7474678103
C                2.8085321827        1.5732583004       11.6665325999
C                3.8018970511        2.3111008362       10.9844571416
N                3.8546705688        1.9030167145       16.3958462445
N                3.7572514936        2.4572809021        9.6228694061
H                3.1227018820        1.9043516989        9.0602215989
H                4.5359483895        2.8590477951        9.1159822862
H                2.0511468552        0.9046153730       13.5635242549
H                5.6162579716        3.3074406410       13.7069847799
H                2.0177897772        1.0848801425       11.0930220142
H                5.5966093434        3.4998192703       11.2379439164



     Writing config-only to output data dir ./tmp/02_Zn100_ABN_topsight_upright.save/ :
     XML data file
     NEW-OLD atomic charge density approx. for the potential

     negative rho (up, down):  3.148E-03 0.000E+00

     total cpu time spent up to now is   172659.5 secs

     Self-consistent Calculation

     iteration #  1     ecut=    40.00 Ry     beta= 0.40
     Davidson diagonalization with overlap

---- Real-time Memory Report at c_bands before calling an iterative solver
           456 MiB given to the printing process from OS
             0 MiB allocation reported by mallinfo(arena+hblkhd)
         30636 MiB available memory on the node where the printing process lives
------------------

     Maximum CPU time exceeded

     max_seconds     =  172800.00
     elapsed seconds =  172870.78
     Calculation stopped in k-point loop, point #     1
     Calculation stopped in scf loop at iteration #     0

     Writing config to output data dir ./tmp/02_Zn100_ABN_topsight_upright.save/ :
     XML data file, charge density

     init_run     :    190.08s CPU    195.00s WALL (       1 calls)
     electrons    : 157986.00s CPU 160453.17s WALL (      26 calls)
     update_pot   :      5.41s CPU      5.70s WALL (      25 calls)
     forces       :   4739.03s CPU   4792.98s WALL (      25 calls)
     force_dftd3  :      6.06s CPU      6.62s WALL (      25 calls)
     stress       :   6078.50s CPU   6217.19s WALL (      25 calls)
     stres_dftd3  :      6.03s CPU      6.53s WALL (      25 calls)

     Called by init_run:
     wfcinit      :    186.58s CPU    191.22s WALL (       1 calls)
     wfcinit:atom :      0.06s CPU      0.14s WALL (       5 calls)
     wfcinit:wfcr :    185.87s CPU    190.20s WALL (       5 calls)
     potinit      :      0.19s CPU      0.21s WALL (       1 calls)
     hinit0       :      0.10s CPU      0.13s WALL (       1 calls)

     Called by electrons:
     c_bands      : 145294.90s CPU 147563.41s WALL (     243 calls)
     sum_band     :  12045.51s CPU  12207.75s WALL (     242 calls)
     v_of_rho     :     25.30s CPU     26.55s WALL (     244 calls)
     v_h          :      2.06s CPU      2.21s WALL (     244 calls)
     v_xc         :     27.96s CPU     29.58s WALL (     294 calls)
     newd         :    668.02s CPU    706.69s WALL (     244 calls)
     PAW_pot      :     17.92s CPU     18.05s WALL (     269 calls)
     mix_rho      :      4.31s CPU      4.67s WALL (     242 calls)
     energy_dftd3 :      3.21s CPU      3.22s WALL (      26 calls)

     Called by c_bands:
     init_us_2    :    126.73s CPU    128.53s WALL (    2801 calls)
     cegterg      : 145132.24s CPU 147393.92s WALL (    1211 calls)

     Called by sum_band:
     sum_band:wei :      0.61s CPU      0.62s WALL (     242 calls)
     sum_band:loo :  11406.60s CPU  11519.90s WALL (     242 calls)
     sum_band:buf :     30.46s CPU     31.23s WALL (    1210 calls)
     sum_band:ini :     54.86s CPU     55.34s WALL (    1210 calls)
     sum_band:cal :  11893.93s CPU  11951.07s WALL (    1335 calls)
     sum_band:bec :     31.62s CPU     31.82s WALL (    1335 calls)
     addusdens    :    631.77s CPU    679.93s WALL (     242 calls)
                                        0.00s GPU  (     242 calls)
     addusd:skk   :      4.68s CPU      5.73s WALL (     968 calls)
                                        0.00s GPU  (     968 calls)

     Called by *egterg:
     cdiaghg      :   2836.97s CPU   2956.06s WALL (    4610 calls)
     cegterg:over :  21815.96s CPU  22114.99s WALL (    3640 calls)
     cegterg:upda :   6233.26s CPU   6425.40s WALL (    3640 calls)
     cegterg:last :  38411.63s CPU  39065.31s WALL (    2462 calls)
     cdiaghg:chol :    196.16s CPU    197.10s WALL (    4610 calls)
     cdiaghg:inve :     29.42s CPU     29.60s WALL (    4610 calls)
     cdiaghg:para :    740.21s CPU    759.71s WALL (    9220 calls)
     h_psi        :  49612.62s CPU  50248.63s WALL (    4856 calls)
     s_psi        :  22621.28s CPU  22759.14s WALL (    4856 calls)
     g_psi        :      8.25s CPU     10.35s WALL (    3640 calls)

     Called by h_psi:
     h_psi:calbec :  23543.42s CPU  23693.48s WALL (    4856 calls)
     vloc_psi     :   2130.91s CPU   2426.00s WALL (    4856 calls)
     add_vuspsi   :  23921.42s CPU  24068.42s WALL (    4856 calls)

     General routines
     calbec       :  41002.38s CPU  41252.30s WALL (    6816 calls)
     fft          :     18.54s CPU     20.77s WALL (    3796 calls)
     ffts         :      0.77s CPU      0.93s WALL (     486 calls)
     fftw         :   2300.06s CPU   2616.57s WALL ( 3909596 calls)
     interpolate  :      1.60s CPU      1.79s WALL (     244 calls)
     davcio       :      0.00s CPU      0.22s WALL (       5 calls)

     Parallel routines

     PAW routines
     PAW_pot      :     17.92s CPU     18.05s WALL (     269 calls)

     PWSCF        :   1d23h16m CPU   2d 0h 1m WALL


   This run was terminated on:  14:22:49   1Apr2025            

=------------------------------------------------------------------------------=
   JOB DONE.
=------------------------------------------------------------------------------=
