--------------------------------------------------------------------------
WARNING: There was an error initializing an OpenFabrics device.

  Local host:   ga01
  Local device: mlx5_0
--------------------------------------------------------------------------

     Program PWSCF v.7.3.1 starts on  9Apr2025 at 17: 8: 6 

     This program is part of the open-source Quantum ESPRESSO suite
     for quantum simulation of materials; please cite
         "P. Giannozzi et al., J. Phys.:Condens. Matter 21 395502 (2009);
         "P. Giannozzi et al., J. Phys.:Condens. Matter 29 465901 (2017);
         "P. Giannozzi et al., J. Chem. Phys. 152 154105 (2020);
          URL http://www.quantum-espresso.org", 
     in publications or presentations arising from this work. More details at
     http://www.quantum-espresso.org/quote

     Parallel version (MPI), running on    29 processors

     MPI processes distributed on     1 nodes
     184948 MiB available memory on the printing compute node when the environment starts

     Waiting for input...
     Reading input from standard input
Warning: card &CELL ignored
Warning: card   CELL_DOFREE = 'ALL' ignored
Warning: card / ignored

     Current dimensions of program PWSCF are:
     Max number of different atomic species (ntypx) = 10
     Max number of k-points (npk) =  40000
     Max angular momentum in pseudopotentials (lmaxx) =  4
     file C.pbe-n-kjpaw_psl.1.0.0.UPF: wavefunction(s)  2S 2P renormalized

     R & G space division:  proc/nbgrp/npool/nimage =      29
     Subspace diagonalization in iterative solution of the eigenvalue problem:
     one sub-group per band group will be used
     custom distributed-memory algorithm (size of sub-group:  5*  5 procs)


     Parallelization info
     --------------------
     sticks:   dense  smooth     PW     G-vecs:    dense   smooth      PW
     Min         260     148     40                41414    17882    2584
     Max         262     149     42                41418    17893    2590
     Sum        7555    4303   1189              1201061   518755   75035

     Using Slab Decomposition



     bravais-lattice index     =            0
     lattice parameter (alat)  =      19.7617  a.u.
     unit-cell volume          =   15176.5939 (a.u.)^3
     number of atoms/cell      =           62
     number of atomic types    =            4
     number of electrons       =       996.00
     number of Kohn-Sham states=          598
     kinetic-energy cutoff     =      40.0000  Ry
     charge density cutoff     =     280.0000  Ry
     scf convergence threshold =      1.0E-06
     mixing beta               =       0.4000
     number of iterations used =            8  plain     mixing
     energy convergence thresh.=      5.0E-05
     force convergence thresh. =      1.0E-03
     Exchange-correlation= PBE
                           (   1   4   3   4   0   0   0)
     nstep                     =          300


     celldm(1)=  19.761696  celldm(2)=   0.000000  celldm(3)=   0.000000
     celldm(4)=   0.000000  celldm(5)=   0.000000  celldm(6)=   0.000000

     crystal axes: (cart. coord. in units of alat)
               a(1) = (   1.000000   0.000000   0.000000 )  
               a(2) = (  -0.500000   0.866025   0.000000 )  
               a(3) = (   0.000000   0.000000   2.270759 )  

     reciprocal axes: (cart. coord. in units 2 pi/alat)
               b(1) = (  1.000000  0.577350 -0.000000 )  
               b(2) = (  0.000000  1.154701  0.000000 )  
               b(3) = (  0.000000 -0.000000  0.440381 )  


     PseudoPot. # 1 for Zn read from file:
     /home/yongsang/Research/PSID_server_room/qe/[00]QE/qepseudo/SSSP_1.3.0_PBE_efficiency/Zn_pbe_v1.uspp.F.UPF
     MD5 check sum: df62231357ef9e81f77b2b3087fa5675
     Pseudo is Ultrasoft, Zval = 20.0
     Generated by new atomic code, or converted to UPF format
     Using radial grid of  943 points,  6 beta functions with: 
                l(1) =   0
                l(2) =   0
                l(3) =   1
                l(4) =   1
                l(5) =   2
                l(6) =   2
     Q(r) pseudized with  8 coefficients,  rinner =    1.100   1.100   1.100
                                                       1.100   1.100

     PseudoPot. # 2 for N  read from file:
     /home/yongsang/Research/PSID_server_room/qe/[00]QE/qepseudo/SSSP_1.3.0_PBE_efficiency/N.pbe-n-radius_5.UPF
     MD5 check sum: 16739722b17309cd8fe442a2ace49922
     Pseudo is Ultrasoft + core correction, Zval =  5.0
     Generated using "atomic" code by A. Dal Corso  v.5.1
     Using radial grid of 1085 points,  4 beta functions with: 
                l(1) =   0
                l(2) =   0
                l(3) =   1
                l(4) =   1
     Q(r) pseudized with 0 coefficients 


     PseudoPot. # 3 for C  read from file:
     /home/yongsang/Research/PSID_server_room/qe/[00]QE/qepseudo/SSSP_1.3.0_PBE_efficiency/C.pbe-n-kjpaw_psl.1.0.0.UPF
     MD5 check sum: 5d2aebdfa2cae82b50a7e79e9516da0f
     Pseudo is Projector augmented-wave + core cor, Zval =  4.0
     Generated using "atomic" code by A. Dal Corso  v.5.1
     Shape of augmentation charge: PSQ
     Using radial grid of 1073 points,  4 beta functions with: 
                l(1) =   0
                l(2) =   0
                l(3) =   1
                l(4) =   1
     Q(r) pseudized with 0 coefficients 


     PseudoPot. # 4 for H  read from file:
     /home/yongsang/Research/PSID_server_room/qe/[00]QE/qepseudo/SSSP_1.3.0_PBE_efficiency/H.pbe-rrkjus_psl.1.0.0.UPF
     MD5 check sum: f52b6d4d1c606e5624b1dc7b2218f220
     Pseudo is Ultrasoft, Zval =  1.0
     Generated using "atomic" code by A. Dal Corso  v.5.1
     Using radial grid of  929 points,  2 beta functions with: 
                l(1) =   0
                l(2) =   0
     Q(r) pseudized with 0 coefficients 


     atomic species   valence    mass     pseudopotential
     Zn               20.00    65.38000     Zn( 1.00)
     N                 5.00    14.00674     N ( 1.00)
     C                 4.00    12.01070     C ( 1.00)
     H                 1.00     1.00794     H ( 1.00)

     No symmetry found


                                    s                        frac. trans.

      isym =  1     identity                                     

 cryst.   s( 1) = (     1          0          0      )
                  (     0          1          0      )
                  (     0          0          1      )

 cart.    s( 1) = (  1.0000000  0.0000000  0.0000000 )
                  (  0.0000000  1.0000000  0.0000000 )
                  (  0.0000000  0.0000000  1.0000000 )


   Cartesian axes

     site n.     atom                  positions (alat units)
         1        Zn     tau(   1) = (   0.0000000   0.1443375   0.1164998  )
         2        Zn     tau(   2) = (   0.5000000   0.1443375   0.1164998  )
         3        Zn     tau(   3) = (   0.0000252   0.1442445   0.5738260  )
         4        Zn     tau(   4) = (   0.4999046   0.1445665   0.5741441  )
         5        Zn     tau(   5) = (  -0.1250000   0.3608439   0.1164998  )
         6        Zn     tau(   6) = (   0.3750000   0.3608439   0.1164998  )
         7        Zn     tau(   7) = (  -0.1254047   0.3608265   0.5737851  )
         8        Zn     tau(   8) = (   0.3747232   0.3612361   0.5747530  )
         9        Zn     tau(   9) = (  -0.2500000   0.5773502   0.1164998  )
        10        Zn     tau(  10) = (   0.2500000   0.5773502   0.1164998  )
        11        Zn     tau(  11) = (  -0.2503090   0.5772439   0.5736768  )
        12        Zn     tau(  12) = (   0.2502526   0.5771140   0.5713310  )
        13        Zn     tau(  13) = (  -0.3750000   0.7938567   0.1164998  )
        14        Zn     tau(  14) = (   0.1250000   0.7938567   0.1164998  )
        15        Zn     tau(  15) = (  -0.3749997   0.7935945   0.5739471  )
        16        Zn     tau(  16) = (   0.1251164   0.7933886   0.5748596  )
        17        Zn     tau(  17) = (   0.2500000   0.1443375   0.1164998  )
        18        Zn     tau(  18) = (   0.7500000   0.1443375   0.1164998  )
        19        Zn     tau(  19) = (   0.2497859   0.1442421   0.5739803  )
        20        Zn     tau(  20) = (   0.7500245   0.1446299   0.5742805  )
        21        Zn     tau(  21) = (   0.1250000   0.3608439   0.1164998  )
        22        Zn     tau(  22) = (   0.6250000   0.3608439   0.1164998  )
        23        Zn     tau(  23) = (   0.1252345   0.3610650   0.5774020  )
        24        Zn     tau(  24) = (   0.6250790   0.3610250   0.5740971  )
        25        Zn     tau(  25) = (   0.0000000   0.5773502   0.1164998  )
        26        Zn     tau(  26) = (   0.5000000   0.5773502   0.1164998  )
        27        Zn     tau(  27) = (   0.0000780   0.5771251   0.5780769  )
        28        Zn     tau(  28) = (   0.5000474   0.5772122   0.5790563  )
        29        Zn     tau(  29) = (  -0.1250000   0.7938567   0.1164998  )
        30        Zn     tau(  30) = (   0.3750000   0.7938567   0.1164998  )
        31        Zn     tau(  31) = (  -0.1255025   0.7936318   0.5739474  )
        32        Zn     tau(  32) = (   0.3751688   0.7935857   0.5783068  )
        33        Zn     tau(  33) = (   0.1248056   0.0716270   0.3442313  )
        34        Zn     tau(  34) = (   0.6253091   0.0725539   0.3437548  )
        35        Zn     tau(  35) = (  -0.0007404   0.2885412   0.3447515  )
        36        Zn     tau(  36) = (   0.5004193   0.2895159   0.3438767  )
        37        Zn     tau(  37) = (  -0.1262428   0.5048910   0.3449512  )
        38        Zn     tau(  38) = (   0.3757877   0.5050371   0.3435559  )
        39        Zn     tau(  39) = (  -0.2506433   0.7208906   0.3445587  )
        40        Zn     tau(  40) = (   0.2503946   0.7215629   0.3435130  )
        41        Zn     tau(  41) = (   0.3747757   0.0721624   0.3431842  )
        42        Zn     tau(  42) = (   0.8748641   0.0721400   0.3443692  )
        43        Zn     tau(  43) = (   0.2502497   0.2892710   0.3433001  )
        44        Zn     tau(  44) = (   0.7498154   0.2894722   0.3436969  )
        45        Zn     tau(  45) = (   0.1251550   0.5050822   0.3434830  )
        46        Zn     tau(  46) = (   0.6249369   0.5050344   0.3447161  )
        47        Zn     tau(  47) = (  -0.0000913   0.7211139   0.3435097  )
        48        Zn     tau(  48) = (   0.5000007   0.7207336   0.3445311  )
        49        C      tau(  49) = (   0.2600468   0.5862990   1.0453750  )
        50        C      tau(  50) = (   0.2121061   0.6938437   1.2470609  )
        51        C      tau(  51) = (   0.2107424   0.6919837   1.1134574  )
        52        C      tau(  52) = (   0.3096793   0.4836039   1.2491639  )
        53        C      tau(  53) = (   0.3081741   0.4817302   1.1156149  )
        54        C      tau(  54) = (   0.2610299   0.5895752   1.3160677  )
        55        N      tau(  55) = (   0.2600516   0.5851501   0.9137611  )
        56        H      tau(  56) = (   0.2918922   0.5084877   0.8644170  )
        57        H      tau(  57) = (   0.1737659   0.7783340   1.2973745  )
        58        H      tau(  58) = (   0.3481920   0.4003390   1.3012521  )
        59        H      tau(  59) = (   0.3459461   0.3994220   1.0632100  )
        60        H      tau(  60) = (   0.2618440   0.5910112   1.4207617  )
        61        H      tau(  61) = (   0.1733146   0.7732409   1.0594222  )
        62        H      tau(  62) = (   0.2228666   0.6581314   0.8629876  )

     --------------------------------------------
     DFT-D3 Dispersion Correction (3-body terms):
     --------------------------------------------
       Reference C6 values for interpolation: 

         atom   Coordination number   C6
         H          0.912             6.05
         H          0.000            15.18
         C          0.000            98.23
         C          0.987            86.49
         C          1.998            58.72
         C          2.999            51.56
         C          3.984            36.41
         N          0.000            50.54
         N          0.994            44.25
         N          2.014            39.35
         N          2.990            31.16
         Zn         0.000           681.04
         Zn         1.942           306.91

       Values used:

         atom   Coordination number  R0_AB[au]  C6      C8
         Zn         7.107            3.053    306.91  23930.67
         Zn         7.131            3.053    306.91  23930.67
         Zn         7.046            3.053    306.91  23930.67
         Zn         6.985            3.053    306.91  23930.67
         Zn         7.116            3.053    306.91  23930.67
         Zn         7.146            3.053    306.91  23930.67
         Zn         7.065            3.053    306.91  23930.67
         Zn         6.997            3.053    306.91  23930.67
         Zn         7.111            3.053    306.91  23930.67
         Zn         7.139            3.053    306.91  23930.67
         Zn         7.091            3.053    306.91  23930.67
         Zn         7.128            3.053    306.91  23930.67
         Zn         7.111            3.053    306.91  23930.67
         Zn         7.131            3.053    306.91  23930.67
         Zn         7.058            3.053    306.91  23930.67
         Zn         6.959            3.053    306.91  23930.67
         Zn         7.133            3.053    306.91  23930.67
         Zn         7.126            3.053    306.91  23930.67
         Zn         7.005            3.053    306.91  23930.67
         Zn         7.009            3.053    306.91  23930.67
         Zn         7.125            3.053    306.91  23930.67
         Zn         7.134            3.053    306.91  23930.67
         Zn         6.889            3.053    306.91  23930.67
         Zn         7.051            3.053    306.91  23930.67
         Zn         7.119            3.053    306.91  23930.67
         Zn         7.128            3.053    306.91  23930.67
         Zn         6.862            3.053    306.91  23930.67
         Zn         6.869            3.053    306.91  23930.67
         Zn         7.124            3.053    306.91  23930.67
         Zn         7.119            3.053    306.91  23930.67
         Zn         7.007            3.053    306.91  23930.67
         Zn         6.865            3.053    306.91  23930.67
         Zn         8.955            3.053    306.91  23930.67
         Zn         8.930            3.053    306.91  23930.67
         Zn         8.917            3.053    306.91  23930.67
         Zn         8.965            3.053    306.91  23930.67
         Zn         8.939            3.053    306.91  23930.67
         Zn         8.957            3.053    306.91  23930.67
         Zn         8.985            3.053    306.91  23930.67
         Zn         8.932            3.053    306.91  23930.67
         Zn         8.937            3.053    306.91  23930.67
         Zn         8.910            3.053    306.91  23930.67
         Zn         8.906            3.053    306.91  23930.67
         Zn         8.997            3.053    306.91  23930.67
         Zn         8.898            3.053    306.91  23930.67
         Zn         8.966            3.053    306.91  23930.67
         Zn         8.885            3.053    306.91  23930.67
         Zn         8.876            3.053    306.91  23930.67
         C          3.135            2.750     50.65   1464.94
         C          3.120            2.750     50.76   1468.05
         C          3.162            2.750     50.43   1458.54
         C          3.120            2.750     50.76   1468.05
         C          3.162            2.750     50.43   1458.54
         C          3.119            2.750     50.76   1468.07
         N          3.089            2.478     31.24    689.20
         H          1.009            2.062      6.17     74.63
         H          1.000            2.062      6.18     74.72
         H          1.000            2.062      6.18     74.72
         H          1.003            2.062      6.18     74.69
         H          1.001            2.062      6.18     74.70
         H          1.003            2.062      6.18     74.69
         H          1.009            2.062      6.17     74.62

         Molecular C6 ( Ry / a.u.^6 ) =    819995.30


   Crystallographic axes

     site n.     atom                  positions (cryst. coord.)
         1        Zn     tau(   1) = (  0.0833333  0.1666666  0.0513044  )
         2        Zn     tau(   2) = (  0.5833333  0.1666666  0.0513044  )
         3        Zn     tau(   3) = (  0.0833048  0.1665592  0.2527023  )
         4        Zn     tau(   4) = (  0.5833701  0.1669310  0.2528424  )
         5        Zn     tau(   5) = (  0.0833333  0.4166666  0.0513044  )
         6        Zn     tau(   6) = (  0.5833333  0.4166666  0.0513044  )
         7        Zn     tau(   7) = (  0.0829185  0.4166465  0.2526843  )
         8        Zn     tau(   8) = (  0.5832829  0.4171195  0.2531106  )
         9        Zn     tau(   9) = (  0.0833333  0.6666666  0.0513044  )
        10        Zn     tau(  10) = (  0.5833333  0.6666666  0.0513044  )
        11        Zn     tau(  11) = (  0.0829630  0.6665438  0.2526366  )
        12        Zn     tau(  12) = (  0.5834495  0.6663938  0.2516036  )
        13        Zn     tau(  13) = (  0.0833333  0.9166667  0.0513044  )
        14        Zn     tau(  14) = (  0.5833334  0.9166667  0.0513044  )
        15        Zn     tau(  15) = (  0.0831823  0.9163640  0.2527556  )
        16        Zn     tau(  16) = (  0.5831795  0.9161262  0.2531575  )
        17        Zn     tau(  17) = (  0.3333333  0.1666666  0.0513044  )
        18        Zn     tau(  18) = (  0.8333334  0.1666666  0.0513044  )
        19        Zn     tau(  19) = (  0.3330641  0.1665564  0.2527703  )
        20        Zn     tau(  20) = (  0.8335266  0.1670042  0.2529025  )
        21        Zn     tau(  21) = (  0.3333333  0.4166666  0.0513044  )
        22        Zn     tau(  22) = (  0.8333333  0.4166666  0.0513044  )
        23        Zn     tau(  23) = (  0.3336954  0.4169219  0.2542771  )
        24        Zn     tau(  24) = (  0.8335169  0.4168758  0.2528217  )
        25        Zn     tau(  25) = (  0.3333333  0.6666666  0.0513044  )
        26        Zn     tau(  26) = (  0.8333333  0.6666666  0.0513044  )
        27        Zn     tau(  27) = (  0.3332814  0.6664067  0.2545743  )
        28        Zn     tau(  28) = (  0.8333011  0.6665073  0.2550056  )
        29        Zn     tau(  29) = (  0.3333334  0.9166667  0.0513044  )
        30        Zn     tau(  30) = (  0.8333334  0.9166667  0.0513044  )
        31        Zn     tau(  31) = (  0.3327010  0.9164071  0.2527558  )
        32        Zn     tau(  32) = (  0.8333458  0.9163539  0.2546756  )
        33        Zn     tau(  33) = (  0.1661595  0.0827077  0.1515931  )
        34        Zn     tau(  34) = (  0.6671981  0.0837780  0.1513832  )
        35        Zn     tau(  35) = (  0.1658490  0.3331787  0.1518222  )
        36        Zn     tau(  36) = (  0.6675713  0.3343042  0.1514369  )
        37        Zn     tau(  37) = (  0.1652561  0.5829980  0.1519101  )
        38        Zn     tau(  38) = (  0.6673710  0.5831666  0.1512957  )
        39        Zn     tau(  39) = (  0.1655631  0.8324128  0.1517372  )
        40        Zn     tau(  40) = (  0.6669891  0.8331891  0.1512767  )
        41        Zn     tau(  41) = (  0.4164386  0.0833259  0.1511320  )
        42        Zn     tau(  42) = (  0.9165141  0.0833001  0.1516538  )
        43        Zn     tau(  43) = (  0.4172604  0.3340214  0.1511830  )
        44        Zn     tau(  44) = (  0.9169422  0.3342537  0.1513577  )
        45        Zn     tau(  45) = (  0.4167644  0.5832186  0.1512635  )
        46        Zn     tau(  46) = (  0.9165187  0.5831635  0.1518066  )
        47        Zn     tau(  47) = (  0.4162440  0.8326706  0.1512753  )
        48        Zn     tau(  48) = (  0.9161165  0.8322315  0.1517251  )
        49        C      tau(  49) = (  0.5985467  0.6769998  0.4603637  )
        50        C      tau(  50) = (  0.6126969  0.8011817  0.5491825  )
        51        C      tau(  51) = (  0.6102594  0.7990339  0.4903459  )
        52        C      tau(  52) = (  0.5888882  0.5584177  0.5501086  )
        53        C      tau(  53) = (  0.5863012  0.5562541  0.4912961  )
        54        C      tau(  54) = (  0.6014213  0.6807829  0.5795718  )
        55        N      tau(  55) = (  0.5978882  0.6756732  0.4024034  )
        56        H      tau(  56) = (  0.5854677  0.5871510  0.3806732  )
        57        H      tau(  57) = (  0.6231372  0.8987427  0.5713396  )
        58        H      tau(  58) = (  0.5793279  0.4622716  0.5730473  )
        59        H      tau(  59) = (  0.5765525  0.4612128  0.4682179  )
        60        H      tau(  60) = (  0.6030645  0.6824410  0.6256771  )
        61        H      tau(  61) = (  0.6197455  0.8928616  0.4665499  )
        62        H      tau(  62) = (  0.6028389  0.7599447  0.3800437  )

     number of k points=     4  Marzari-Vanderbilt smearing, width (Ry)=  0.0200
                       cart. coord. in units 2pi/alat
        k(    1) = (   0.0000000   0.0000000   0.0000000), wk =   0.5000000
        k(    2) = (   0.0000000  -0.5773503   0.0000000), wk =   0.5000000
        k(    3) = (  -0.5000000  -0.2886751   0.0000000), wk =   0.5000000
        k(    4) = (  -0.5000000  -0.8660254   0.0000000), wk =   0.5000000

                       cryst. coord.
        k(    1) = (   0.0000000   0.0000000   0.0000000), wk =   0.5000000
        k(    2) = (   0.0000000  -0.5000000   0.0000000), wk =   0.5000000
        k(    3) = (  -0.5000000   0.0000000   0.0000000), wk =   0.5000000
        k(    4) = (  -0.5000000  -0.5000000   0.0000000), wk =   0.5000000

     Dense  grid:  1201061 G-vectors     FFT dimensions: ( 108, 108, 240)

     Smooth grid:   518755 G-vectors     FFT dimensions: (  80,  80, 192)

     Dynamical RAM for                 wfc:      20.39 MB

     Dynamical RAM for     wfc (w. buffer):     101.97 MB

     Dynamical RAM for           str. fact:       2.53 MB

     Dynamical RAM for           local pot:       0.00 MB

     Dynamical RAM for          nlocal pot:      31.85 MB

     Dynamical RAM for                qrad:       5.37 MB

     Dynamical RAM for          rho,v,vnew:       4.30 MB

     Dynamical RAM for               rhoin:       1.43 MB

     Dynamical RAM for            rho*nmix:      10.11 MB

     Dynamical RAM for           G-vectors:       2.51 MB

     Dynamical RAM for          h,s,v(r/c):       2.61 MB

     Dynamical RAM for          <psi|beta>:       8.52 MB

     Dynamical RAM for                 psi:      40.79 MB

     Dynamical RAM for                hpsi:      40.79 MB

     Dynamical RAM for                spsi:      40.79 MB

     Dynamical RAM for      wfcinit/wfcrot:      54.89 MB

     Dynamical RAM for           addusdens:     147.88 MB

     Dynamical RAM for          addusforce:     207.79 MB

     Dynamical RAM for         addusstress:     127.02 MB

     Estimated static dynamical RAM per process >     157.13 MB

     Estimated max dynamical RAM per process >     375.02 MB

     Estimated total dynamical RAM >      10.62 GB

     Initial potential from superposition of free atoms

     starting charge     995.9929, renormalised to     996.0000

     negative rho (up, down):  2.155E-03 0.000E+00
     Starting wfcs are  659 randomized atomic wfcs
[ga01:3753981] 28 more processes have sent help message help-mpi-btl-openib.txt / error in device init
[ga01:3753981] Set MCA parameter "orte_base_help_aggregate" to 0 to see all help / error messages
     Checking if some PAW data can be deallocated... 
       PAW data deallocated on   26 nodes for type:  3

     total cpu time spent up to now is       22.7 secs

     Self-consistent Calculation

     iteration #  1     ecut=    40.00 Ry     beta= 0.40
     Davidson diagonalization with overlap

---- Real-time Memory Report at c_bands before calling an iterative solver
           396 MiB given to the printing process from OS
             0 MiB allocation reported by mallinfo(arena+hblkhd)
        179636 MiB available memory on the node where the printing process lives
------------------
     ethr =  1.00E-02,  avg # of iterations =  8.2

     negative rho (up, down):  2.676E-03 0.000E+00

     total cpu time spent up to now is      111.5 secs

     total energy              =  -22287.97631468 Ry
     estimated scf accuracy    <      12.36198686 Ry

     iteration #  2     ecut=    40.00 Ry     beta= 0.40
     Davidson diagonalization with overlap

---- Real-time Memory Report at c_bands before calling an iterative solver
           513 MiB given to the printing process from OS
             0 MiB allocation reported by mallinfo(arena+hblkhd)
        178483 MiB available memory on the node where the printing process lives
------------------
     ethr =  1.24E-03,  avg # of iterations = 11.0

     negative rho (up, down):  3.808E-03 0.000E+00

     total cpu time spent up to now is      204.3 secs

     total energy              =  -22274.36850092 Ry
     estimated scf accuracy    <     312.49555663 Ry

     iteration #  3     ecut=    40.00 Ry     beta= 0.40
     Davidson diagonalization with overlap

---- Real-time Memory Report at c_bands before calling an iterative solver
           530 MiB given to the printing process from OS
             0 MiB allocation reported by mallinfo(arena+hblkhd)
        178455 MiB available memory on the node where the printing process lives
------------------
     ethr =  1.24E-03,  avg # of iterations =  8.8

     negative rho (up, down):  3.679E-03 0.000E+00

     total cpu time spent up to now is      316.5 secs

     total energy              =  -22292.89233718 Ry
     estimated scf accuracy    <      11.60774775 Ry

     iteration #  4     ecut=    40.00 Ry     beta= 0.40
     Davidson diagonalization with overlap

---- Real-time Memory Report at c_bands before calling an iterative solver
           533 MiB given to the printing process from OS
             0 MiB allocation reported by mallinfo(arena+hblkhd)
        178429 MiB available memory on the node where the printing process lives
------------------
     ethr =  1.17E-03,  avg # of iterations =  3.5

     negative rho (up, down):  3.657E-03 0.000E+00

     total cpu time spent up to now is      386.2 secs

     total energy              =  -22293.73929313 Ry
     estimated scf accuracy    <       5.47816719 Ry

     iteration #  5     ecut=    40.00 Ry     beta= 0.40
     Davidson diagonalization with overlap

---- Real-time Memory Report at c_bands before calling an iterative solver
           537 MiB given to the printing process from OS
             0 MiB allocation reported by mallinfo(arena+hblkhd)
        178398 MiB available memory on the node where the printing process lives
------------------
     ethr =  5.50E-04,  avg # of iterations =  2.0

     negative rho (up, down):  3.762E-03 0.000E+00

     total cpu time spent up to now is      452.2 secs

     total energy              =  -22294.02842529 Ry
     estimated scf accuracy    <       0.39646842 Ry

     iteration #  6     ecut=    40.00 Ry     beta= 0.40
     Davidson diagonalization with overlap

---- Real-time Memory Report at c_bands before calling an iterative solver
           538 MiB given to the printing process from OS
             0 MiB allocation reported by mallinfo(arena+hblkhd)
        178376 MiB available memory on the node where the printing process lives
------------------
     ethr =  3.98E-05,  avg # of iterations = 10.8

     negative rho (up, down):  3.969E-03 0.000E+00

     total cpu time spent up to now is      533.2 secs

     total energy              =  -22294.04106991 Ry
     estimated scf accuracy    <       0.14811800 Ry

     iteration #  7     ecut=    40.00 Ry     beta= 0.40
     Davidson diagonalization with overlap

---- Real-time Memory Report at c_bands before calling an iterative solver
           539 MiB given to the printing process from OS
             0 MiB allocation reported by mallinfo(arena+hblkhd)
        178353 MiB available memory on the node where the printing process lives
------------------
     ethr =  1.49E-05,  avg # of iterations =  8.2

     negative rho (up, down):  4.050E-03 0.000E+00

     total cpu time spent up to now is      606.9 secs

     total energy              =  -22294.03904503 Ry
     estimated scf accuracy    <       0.05367737 Ry

     iteration #  8     ecut=    40.00 Ry     beta= 0.40
     Davidson diagonalization with overlap

---- Real-time Memory Report at c_bands before calling an iterative solver
           540 MiB given to the printing process from OS
             0 MiB allocation reported by mallinfo(arena+hblkhd)
        178324 MiB available memory on the node where the printing process lives
------------------
     ethr =  5.39E-06,  avg # of iterations =  7.8

     negative rho (up, down):  4.085E-03 0.000E+00

     total cpu time spent up to now is      681.8 secs

     total energy              =  -22294.03801069 Ry
     estimated scf accuracy    <       0.04825225 Ry

     iteration #  9     ecut=    40.00 Ry     beta= 0.40
     Davidson diagonalization with overlap

---- Real-time Memory Report at c_bands before calling an iterative solver
           540 MiB given to the printing process from OS
             0 MiB allocation reported by mallinfo(arena+hblkhd)
        178296 MiB available memory on the node where the printing process lives
------------------
     c_bands:  1 eigenvalues not converged
     ethr =  4.84E-06,  avg # of iterations =  7.2

     negative rho (up, down):  4.108E-03 0.000E+00

     total cpu time spent up to now is      753.0 secs

     total energy              =  -22294.03589619 Ry
     estimated scf accuracy    <       0.02657662 Ry

     iteration # 10     ecut=    40.00 Ry     beta= 0.40
     Davidson diagonalization with overlap

---- Real-time Memory Report at c_bands before calling an iterative solver
           541 MiB given to the printing process from OS
             0 MiB allocation reported by mallinfo(arena+hblkhd)
        178273 MiB available memory on the node where the printing process lives
------------------
     c_bands:  1 eigenvalues not converged
     c_bands:  2 eigenvalues not converged
     c_bands:  1 eigenvalues not converged
     ethr =  2.67E-06,  avg # of iterations = 17.2

     negative rho (up, down):  4.129E-03 0.000E+00

     total cpu time spent up to now is      837.6 secs

     total energy              =  -22294.03202937 Ry
     estimated scf accuracy    <       0.01923447 Ry

     iteration # 11     ecut=    40.00 Ry     beta= 0.40
     Davidson diagonalization with overlap

---- Real-time Memory Report at c_bands before calling an iterative solver
           542 MiB given to the printing process from OS
             0 MiB allocation reported by mallinfo(arena+hblkhd)
        178272 MiB available memory on the node where the printing process lives
------------------
     ethr =  1.93E-06,  avg # of iterations = 14.0

     negative rho (up, down):  4.185E-03 0.000E+00

     total cpu time spent up to now is      918.6 secs

     total energy              =  -22294.02278902 Ry
     estimated scf accuracy    <       0.01264485 Ry

     iteration # 12     ecut=    40.00 Ry     beta= 0.40
     Davidson diagonalization with overlap

---- Real-time Memory Report at c_bands before calling an iterative solver
           542 MiB given to the printing process from OS
             0 MiB allocation reported by mallinfo(arena+hblkhd)
        178263 MiB available memory on the node where the printing process lives
------------------
     c_bands:  1 eigenvalues not converged
     c_bands:  1 eigenvalues not converged
     ethr =  1.27E-06,  avg # of iterations = 19.2

     negative rho (up, down):  4.177E-03 0.000E+00

     total cpu time spent up to now is     1023.0 secs

     total energy              =  -22294.02114962 Ry
     estimated scf accuracy    <       0.00307504 Ry

     iteration # 13     ecut=    40.00 Ry     beta= 0.40
     Davidson diagonalization with overlap

---- Real-time Memory Report at c_bands before calling an iterative solver
           542 MiB given to the printing process from OS
             0 MiB allocation reported by mallinfo(arena+hblkhd)
        178353 MiB available memory on the node where the printing process lives
------------------
     c_bands:  1 eigenvalues not converged
     c_bands:  2 eigenvalues not converged
     ethr =  3.09E-07,  avg # of iterations = 16.2

     negative rho (up, down):  4.156E-03 0.000E+00

     total cpu time spent up to now is     1109.1 secs

     total energy              =  -22294.00512862 Ry
     estimated scf accuracy    <       0.37083316 Ry

     iteration # 14     ecut=    40.00 Ry     beta= 0.40
     Davidson diagonalization with overlap

---- Real-time Memory Report at c_bands before calling an iterative solver
           542 MiB given to the printing process from OS
             0 MiB allocation reported by mallinfo(arena+hblkhd)
        178353 MiB available memory on the node where the printing process lives
------------------
     ethr =  3.09E-07,  avg # of iterations = 15.5

     negative rho (up, down):  4.148E-03 0.000E+00

     total cpu time spent up to now is     1195.7 secs

     total energy              =  -22294.02262121 Ry
     estimated scf accuracy    <       0.00673677 Ry

     iteration # 15     ecut=    40.00 Ry     beta= 0.40
     Davidson diagonalization with overlap

---- Real-time Memory Report at c_bands before calling an iterative solver
           542 MiB given to the printing process from OS
             0 MiB allocation reported by mallinfo(arena+hblkhd)
        178351 MiB available memory on the node where the printing process lives
------------------
     ethr =  3.09E-07,  avg # of iterations =  1.0

     negative rho (up, down):  4.144E-03 0.000E+00

     total cpu time spent up to now is     1249.2 secs

     total energy              =  -22294.02266269 Ry
     estimated scf accuracy    <       0.00358388 Ry

     iteration # 16     ecut=    40.00 Ry     beta= 0.40
     Davidson diagonalization with overlap

---- Real-time Memory Report at c_bands before calling an iterative solver
           542 MiB given to the printing process from OS
             0 MiB allocation reported by mallinfo(arena+hblkhd)
        178350 MiB available memory on the node where the printing process lives
------------------
     ethr =  3.09E-07,  avg # of iterations =  1.0

     negative rho (up, down):  4.143E-03 0.000E+00

     total cpu time spent up to now is     1302.8 secs

     total energy              =  -22294.02260630 Ry
     estimated scf accuracy    <       0.00277411 Ry

     iteration # 17     ecut=    40.00 Ry     beta= 0.40
     Davidson diagonalization with overlap

---- Real-time Memory Report at c_bands before calling an iterative solver
           542 MiB given to the printing process from OS
             0 MiB allocation reported by mallinfo(arena+hblkhd)
        178342 MiB available memory on the node where the printing process lives
------------------
     ethr =  2.79E-07,  avg # of iterations =  1.0

     negative rho (up, down):  4.142E-03 0.000E+00

     total cpu time spent up to now is     1356.3 secs

     total energy              =  -22294.02249893 Ry
     estimated scf accuracy    <       0.00212335 Ry

     iteration # 18     ecut=    40.00 Ry     beta= 0.40
     Davidson diagonalization with overlap

---- Real-time Memory Report at c_bands before calling an iterative solver
           542 MiB given to the printing process from OS
             0 MiB allocation reported by mallinfo(arena+hblkhd)
        178341 MiB available memory on the node where the printing process lives
------------------
     ethr =  2.13E-07,  avg # of iterations =  1.5

     negative rho (up, down):  4.141E-03 0.000E+00

     total cpu time spent up to now is     1415.6 secs

     total energy              =  -22294.02249881 Ry
     estimated scf accuracy    <       0.00036870 Ry

     iteration # 19     ecut=    40.00 Ry     beta= 0.40
     Davidson diagonalization with overlap

---- Real-time Memory Report at c_bands before calling an iterative solver
           542 MiB given to the printing process from OS
             0 MiB allocation reported by mallinfo(arena+hblkhd)
        178340 MiB available memory on the node where the printing process lives
------------------
     ethr =  3.70E-08,  avg # of iterations =  1.2

     negative rho (up, down):  4.139E-03 0.000E+00

     total cpu time spent up to now is     1471.9 secs

     End of self-consistent calculation

          k = 0.0000 0.0000 0.0000 ( 64855 PWs)   bands (ev):

  -124.8241-124.8141-124.8109-124.8089-124.8071-124.8058-124.8053-124.8050
  -124.8046-124.8040-124.8028-124.8021-124.8014-124.8012-124.8010-124.8007
  -124.8002-124.7999-124.7991-124.7990-124.7988-124.7980-124.7977-124.7970
  -124.7960-124.7956-124.7948-124.7945-124.7921-124.7898-124.7890-124.7887
  -124.7886-124.7883-124.7882-124.7881-124.7878-124.7871-124.7870-124.7869
  -124.7867-124.7863-124.7861-124.7856-124.7854-124.7848-124.7844-124.7838
   -78.9803 -78.9784 -78.9733 -78.9723 -78.9708 -78.9702 -78.9701 -78.9698
   -78.9693 -78.9681 -78.9677 -78.9662 -78.9655 -78.9651 -78.9642 -78.9638
   -78.9635 -78.9629 -78.9625 -78.9624 -78.9622 -78.9618 -78.9615 -78.9613
   -78.9612 -78.9609 -78.9605 -78.9600 -78.9598 -78.9591 -78.9585 -78.9582
   -78.9578 -78.9572 -78.9571 -78.9569 -78.9563 -78.9557 -78.9556 -78.9548
   -78.9531 -78.9523 -78.9522 -78.9519 -78.9518 -78.9516 -78.9512 -78.9512
   -78.9509 -78.9509 -78.9508 -78.9506 -78.9505 -78.9503 -78.9501 -78.9499
   -78.9494 -78.9492 -78.9489 -78.9486 -78.9480 -78.9476 -78.9475 -78.9469
   -78.9464 -78.9462 -78.9460 -78.9459 -78.9454 -78.9451 -78.9448 -78.9438
   -78.9436 -78.9429 -78.9425 -78.9422 -78.9418 -78.9414 -78.9414 -78.9411
   -78.9408 -78.9402 -78.9400 -78.9399 -78.9399 -78.9398 -78.9396 -78.9396
   -78.9394 -78.9391 -78.9391 -78.9385 -78.9381 -78.9380 -78.9379 -78.9379
   -78.9379 -78.9375 -78.9371 -78.9370 -78.9368 -78.9363 -78.9361 -78.9361
   -78.9358 -78.9358 -78.9356 -78.9355 -78.9353 -78.9351 -78.9350 -78.9348
   -78.9345 -78.9345 -78.9343 -78.9342 -78.9341 -78.9339 -78.9338 -78.9337
   -78.9335 -78.9331 -78.9328 -78.9326 -78.9321 -78.9319 -78.9317 -78.9313
   -78.9312 -78.9312 -78.9306 -78.9301 -78.9297 -78.9285 -78.9272 -78.9269
   -78.9266 -78.9264 -78.9264 -78.9263 -78.9260 -78.9256 -78.9216 -78.9215
   -16.8172 -14.3841 -12.0099 -11.5965  -8.7806  -8.5471  -8.5181  -7.3391
    -6.9738  -6.9652  -6.9610  -6.9521  -6.9460  -6.9418  -6.9374  -6.7352
    -6.6837  -6.6830  -6.6827  -6.6316  -6.6299  -6.6278  -6.6144  -6.6130
    -6.6106  -6.5436  -6.4657  -6.4588  -6.4572  -6.4570  -6.4541  -6.4512
    -6.4435  -6.4411  -6.4403  -6.4384  -6.4373  -6.4346  -6.4007  -6.3997
    -6.3985  -6.3151  -6.3126  -6.3114  -6.3106  -6.3069  -6.3036  -6.2604
    -6.2583  -6.2571  -6.2556  -6.2531  -6.2501  -6.2316  -6.2290  -6.2265
    -6.2130  -6.2106  -6.2095  -6.2071  -6.2043  -6.1998  -6.1243  -6.1209
    -6.1206  -6.1184  -6.1181  -6.1164  -6.1007  -6.0850  -6.0824  -6.0816
    -6.0813  -6.0788  -6.0777  -6.0769  -6.0756  -6.0746  -6.0734  -6.0728
    -6.0721  -6.0596  -6.0576  -6.0574  -6.0560  -6.0536  -6.0521  -5.9983
    -5.9978  -5.9960  -5.9935  -5.9917  -5.9913  -5.9887  -5.9875  -5.9828
    -5.9244  -5.9222  -5.9212  -5.9180  -5.9174  -5.9135  -5.8722  -5.8720
    -5.8528  -5.8526  -5.8253  -5.8251  -5.8178  -5.8169  -5.8163  -5.8140
    -5.8134  -5.8108  -5.8061  -5.7989  -5.7971  -5.7968  -5.7942  -5.7877
    -5.7561  -5.7558  -5.7548  -5.7544  -5.7531  -5.7523  -5.6979  -5.6952
    -5.6944  -5.6940  -5.6930  -5.6906  -5.6840  -5.6836  -5.6832  -5.6830
    -5.6823  -5.6808  -5.6614  -5.6612  -5.6590  -5.6553  -5.6540  -5.6525
    -5.6508  -5.6502  -5.6456  -5.6418  -5.6380  -5.6373  -5.6371  -5.6362
    -5.6338  -5.6271  -5.6143  -5.6121  -5.6113  -5.6109  -5.6098  -5.6077
    -5.5733  -5.5716  -5.5709  -5.5702  -5.5685  -5.5682  -5.5675  -5.5653
    -5.5647  -5.4960  -5.4952  -5.4938  -5.4906  -5.4887  -5.4855  -5.4663
    -5.4607  -5.4601  -5.4578  -5.4506  -5.4498  -5.4489  -5.4475  -5.4472
    -5.4460  -5.4439  -5.4438  -5.4422  -5.4407  -5.4401  -5.4382  -5.4379
    -5.4371  -5.4367  -5.4357  -5.4338  -5.4286  -5.4277  -5.4269  -5.4263
    -5.4262  -5.4235  -5.4233  -5.4221  -5.4216  -5.4205  -5.4196  -5.4192
    -5.4148  -5.4144  -5.4132  -5.3466  -5.3457  -5.3453  -5.3440  -5.3435
    -5.3420  -5.3078  -5.3075  -5.2897  -5.2887  -5.2876  -5.2868  -5.2858
    -5.2852  -5.2667  -5.2664  -5.2663  -5.2486  -5.2483  -5.2481  -5.2475
    -5.2471  -5.2459  -5.2371  -5.2366  -5.2154  -5.2147  -5.2142  -5.2138
    -5.2132  -5.2124  -5.1227  -5.1224  -5.1211  -5.1209  -5.1201  -5.1200
    -5.0229  -5.0214  -5.0201  -5.0123  -5.0114  -5.0097  -5.0010  -5.0009
    -5.0008  -4.2858  -4.2847  -4.2777  -4.2760  -4.2745  -4.2711  -4.1472
    -4.1339  -3.7723  -3.2501  -3.1661  -2.2499  -1.9990  -1.9923  -1.9903
    -1.9892  -1.9783  -1.9688  -1.8292  -1.8056  -1.8035  -1.7932  -1.7904
    -1.7844  -1.7774  -1.3125  -0.7241  -0.7218  -0.7211  -0.5672  -0.5651
    -0.5588  -0.5569  -0.5511  -0.5479  -0.5333   0.0183   0.0232   0.0259
     0.1042   0.3045   0.3090   0.3134   1.3502   1.7307   1.7347   1.7381
     1.7432   1.7537   1.7571   1.7586   1.7622   1.7675   1.7698   1.7745
     1.7885   2.4117   2.4140   2.4181   3.3944   3.5297   3.5320   3.5324
     4.3362   4.3398   4.3403   5.0480   5.0872   5.0916   5.1115   5.1431
     5.1855   5.2178   5.2918   5.4722   5.5343   5.5347   5.5425   5.5447
     5.5542   5.5585   5.5655   5.5883   5.5966   5.5984   5.6062   5.6215
     5.6889   5.7090   5.7141   5.7187   5.7264   5.7297   5.7378   6.3418
     6.5089   6.6770   6.7257   6.7287   6.7733   6.8050   7.0913   7.0931
     7.0967   7.1011   7.1061   7.1072   7.1091   7.1121   7.1265   7.1415
     7.1948   7.2282   7.2618   7.2649   7.2700   7.2741   7.2777   7.2814
     7.2911   7.3738   7.4241   7.5154   7.8780   8.0268   8.0734   8.1213
     8.1310   8.2666   8.2846   8.3142   8.3225   8.3322   8.3512   8.3592
     8.3841   8.3974   8.4407   8.4630   8.4800   8.5631   8.5701   8.5927
     8.6007   8.6383   8.8526   9.1819   9.3103   9.3402

     occupation numbers 
     1.0000   1.0000   1.0000   1.0000   1.0000   1.0000   1.0000   1.0000
     1.0000   1.0000   1.0000   1.0000   1.0000   1.0000   1.0000   1.0000
     1.0000   1.0000   1.0000   1.0000   1.0000   1.0000   1.0000   1.0000
     1.0000   1.0000   1.0000   1.0000   1.0000   1.0000   1.0000   1.0000
     1.0000   1.0000   1.0000   1.0000   1.0000   1.0000   1.0000   1.0000
     1.0000   1.0000   1.0000   1.0000   1.0000   1.0000   1.0000   1.0000
     1.0000   1.0000   1.0000   1.0000   1.0000   1.0000   1.0000   1.0000
     1.0000   1.0000   1.0000   1.0000   1.0000   1.0000   1.0000   1.0000
     1.0000   1.0000   1.0000   1.0000   1.0000   1.0000   1.0000   1.0000
     1.0000   1.0000   1.0000   1.0000   1.0000   1.0000   1.0000   1.0000
     1.0000   1.0000   1.0000   1.0000   1.0000   1.0000   1.0000   1.0000
     1.0000   1.0000   1.0000   1.0000   1.0000   1.0000   1.0000   1.0000
     1.0000   1.0000   1.0000   1.0000   1.0000   1.0000   1.0000   1.0000
     1.0000   1.0000   1.0000   1.0000   1.0000   1.0000   1.0000   1.0000
     1.0000   1.0000   1.0000   1.0000   1.0000   1.0000   1.0000   1.0000
     1.0000   1.0000   1.0000   1.0000   1.0000   1.0000   1.0000   1.0000
     1.0000   1.0000   1.0000   1.0000   1.0000   1.0000   1.0000   1.0000
     1.0000   1.0000   1.0000   1.0000   1.0000   1.0000   1.0000   1.0000
     1.0000   1.0000   1.0000   1.0000   1.0000   1.0000   1.0000   1.0000
     1.0000   1.0000   1.0000   1.0000   1.0000   1.0000   1.0000   1.0000
     1.0000   1.0000   1.0000   1.0000   1.0000   1.0000   1.0000   1.0000
     1.0000   1.0000   1.0000   1.0000   1.0000   1.0000   1.0000   1.0000
     1.0000   1.0000   1.0000   1.0000   1.0000   1.0000   1.0000   1.0000
     1.0000   1.0000   1.0000   1.0000   1.0000   1.0000   1.0000   1.0000
     1.0000   1.0000   1.0000   1.0000   1.0000   1.0000   1.0000   1.0000
     1.0000   1.0000   1.0000   1.0000   1.0000   1.0000   1.0000   1.0000
     1.0000   1.0000   1.0000   1.0000   1.0000   1.0000   1.0000   1.0000
     1.0000   1.0000   1.0000   1.0000   1.0000   1.0000   1.0000   1.0000
     1.0000   1.0000   1.0000   1.0000   1.0000   1.0000   1.0000   1.0000
     1.0000   1.0000   1.0000   1.0000   1.0000   1.0000   1.0000   1.0000
     1.0000   1.0000   1.0000   1.0000   1.0000   1.0000   1.0000   1.0000
     1.0000   1.0000   1.0000   1.0000   1.0000   1.0000   1.0000   1.0000
     1.0000   1.0000   1.0000   1.0000   1.0000   1.0000   1.0000   1.0000
     1.0000   1.0000   1.0000   1.0000   1.0000   1.0000   1.0000   1.0000
     1.0000   1.0000   1.0000   1.0000   1.0000   1.0000   1.0000   1.0000
     1.0000   1.0000   1.0000   1.0000   1.0000   1.0000   1.0000   1.0000
     1.0000   1.0000   1.0000   1.0000   1.0000   1.0000   1.0000   1.0000
     1.0000   1.0000   1.0000   1.0000   1.0000   1.0000   1.0000   1.0000
     1.0000   1.0000   1.0000   1.0000   1.0000   1.0000   1.0000   1.0000
     1.0000   1.0000   1.0000   1.0000   1.0000   1.0000   1.0000   1.0000
     1.0000   1.0000   1.0000   1.0000   1.0000   1.0000   1.0000   1.0000
     1.0000   1.0000   1.0000   1.0000   1.0000   1.0000   1.0000   1.0000
     1.0000   1.0000   1.0000   1.0000   1.0000   1.0000   1.0000   1.0000
     1.0000   1.0000   1.0000   1.0000   1.0000   1.0000   1.0000   1.0000
     1.0000   1.0000   1.0000   1.0000   1.0000   1.0000   1.0000   1.0000
     1.0000   1.0000   1.0000   1.0000   1.0000   1.0000   1.0000   1.0000
     1.0000   1.0000   1.0000   1.0000   1.0000   1.0000   1.0000   1.0000
     1.0000   1.0000   1.0000   1.0000   1.0000   1.0000   1.0000   1.0000
     1.0000   1.0000   1.0000   1.0000   1.0000   1.0000   1.0000   1.0000
     1.0000   1.0000   1.0000   1.0000   1.0000   1.0000   1.0000   1.0000
     1.0000   1.0000   1.0000   1.0000   1.0000   1.0000   1.0000   1.0000
     1.0000   1.0000   1.0000   1.0000   1.0000   1.0000   1.0000   1.0000
     1.0000   1.0000   1.0000   1.0000   1.0000   1.0000   1.0000   1.0000
     1.0000   1.0000   1.0000   1.0000   1.0000   1.0000   1.0000   1.0000
     1.0000   1.0000   1.0000   1.0000   1.0000   1.0000   1.0000   1.0000
     1.0000   1.0000   1.0000   1.0000   1.0000   1.0000   1.0000   1.0000
     1.0000   1.0000   1.0000   1.0000   1.0000   1.0000   1.0000   1.0000
     1.0000   1.0000   1.0000   1.0000   1.0000   1.0000   1.0000   1.0000
     1.0000   1.0000   1.0000   1.0000   1.0000   1.0000   1.0000   1.0000
     1.0000   1.0000   1.0000   1.0000   1.0000   1.0000   1.0000   1.0000
     1.0000   1.0000   1.0000   1.0000   1.0000   1.0000   1.0000   1.0000
     1.0000   1.0000   1.0000   1.0000   1.0480   0.2125   0.2056   0.1996
     0.1911   0.1743   0.1692   0.1669   0.1614   0.1538   0.1505   0.1440
     0.1259   0.0000   0.0000   0.0000   0.0000   0.0000   0.0000   0.0000
     0.0000   0.0000   0.0000   0.0000   0.0000   0.0000   0.0000   0.0000
     0.0000   0.0000   0.0000   0.0000   0.0000   0.0000   0.0000   0.0000
     0.0000   0.0000   0.0000   0.0000   0.0000   0.0000   0.0000   0.0000
     0.0000   0.0000   0.0000   0.0000   0.0000   0.0000   0.0000   0.0000
     0.0000   0.0000   0.0000   0.0000   0.0000   0.0000   0.0000   0.0000
     0.0000   0.0000   0.0000   0.0000   0.0000   0.0000   0.0000   0.0000
     0.0000   0.0000   0.0000   0.0000   0.0000   0.0000   0.0000   0.0000
     0.0000   0.0000   0.0000   0.0000   0.0000   0.0000   0.0000   0.0000
     0.0000   0.0000   0.0000   0.0000   0.0000   0.0000   0.0000   0.0000
     0.0000   0.0000   0.0000   0.0000   0.0000   0.0000   0.0000   0.0000
     0.0000   0.0000   0.0000   0.0000   0.0000   0.0000

          k = 0.0000-0.5774 0.0000 ( 64842 PWs)   bands (ev):

  -124.8241-124.8141-124.8109-124.8089-124.8071-124.8058-124.8053-124.8050
  -124.8046-124.8040-124.8027-124.8021-124.8013-124.8013-124.8010-124.8006
  -124.8002-124.7998-124.7991-124.7990-124.7988-124.7980-124.7977-124.7970
  -124.7960-124.7956-124.7948-124.7945-124.7921-124.7898-124.7891-124.7887
  -124.7887-124.7886-124.7879-124.7878-124.7875-124.7873-124.7873-124.7869
  -124.7868-124.7863-124.7862-124.7856-124.7853-124.7848-124.7844-124.7838
   -78.9799 -78.9782 -78.9733 -78.9723 -78.9700 -78.9695 -78.9691 -78.9688
   -78.9679 -78.9676 -78.9665 -78.9662 -78.9657 -78.9647 -78.9645 -78.9640
   -78.9639 -78.9637 -78.9632 -78.9625 -78.9625 -78.9621 -78.9620 -78.9617
   -78.9615 -78.9609 -78.9605 -78.9601 -78.9595 -78.9591 -78.9589 -78.9580
   -78.9576 -78.9575 -78.9573 -78.9571 -78.9568 -78.9557 -78.9553 -78.9551
   -78.9547 -78.9544 -78.9542 -78.9541 -78.9539 -78.9532 -78.9526 -78.9523
   -78.9520 -78.9516 -78.9512 -78.9509 -78.9508 -78.9505 -78.9504 -78.9486
   -78.9476 -78.9474 -78.9473 -78.9470 -78.9469 -78.9469 -78.9467 -78.9466
   -78.9465 -78.9464 -78.9460 -78.9457 -78.9452 -78.9451 -78.9445 -78.9443
   -78.9436 -78.9433 -78.9431 -78.9428 -78.9424 -78.9423 -78.9422 -78.9419
   -78.9419 -78.9417 -78.9414 -78.9413 -78.9409 -78.9409 -78.9400 -78.9393
   -78.9389 -78.9384 -78.9374 -78.9374 -78.9371 -78.9369 -78.9366 -78.9364
   -78.9362 -78.9362 -78.9359 -78.9358 -78.9354 -78.9353 -78.9352 -78.9350
   -78.9350 -78.9348 -78.9348 -78.9347 -78.9346 -78.9344 -78.9343 -78.9342
   -78.9341 -78.9340 -78.9339 -78.9339 -78.9337 -78.9337 -78.9336 -78.9334
   -78.9331 -78.9327 -78.9326 -78.9323 -78.9321 -78.9319 -78.9317 -78.9312
   -78.9312 -78.9306 -78.9305 -78.9305 -78.9304 -78.9297 -78.9293 -78.9291
   -78.9279 -78.9276 -78.9274 -78.9269 -78.9257 -78.9254 -78.9231 -78.9229
   -16.8172 -14.3842 -12.0100 -11.5965  -8.7806  -8.5407  -8.0651  -8.0528
    -7.2316  -7.2123  -6.9660  -6.9596  -6.7366  -6.7137  -6.7072  -6.6487
    -6.6442  -6.5597  -6.5570  -6.5474  -6.5453  -6.5406  -6.5316  -6.5315
    -6.5213  -6.5212  -6.4837  -6.4833  -6.4826  -6.4802  -6.4797  -6.4780
    -6.4776  -6.4746  -6.4596  -6.4586  -6.4567  -6.4559  -6.4288  -6.4171
    -6.3969  -6.3892  -6.3546  -6.3538  -6.3477  -6.3446  -6.3439  -6.3433
    -6.3420  -6.3408  -6.3246  -6.3200  -6.3161  -6.3159  -6.3124  -6.3123
    -6.2903  -6.2823  -6.2273  -6.2195  -6.2193  -6.2118  -6.1974  -6.1942
    -6.1935  -6.1898  -6.1801  -6.1779  -6.1644  -6.1640  -6.1614  -6.1595
    -6.1093  -6.1059  -6.1050  -6.1009  -6.0885  -6.0878  -6.0758  -6.0736
    -6.0704  -6.0682  -6.0679  -6.0678  -6.0138  -6.0114  -5.9989  -5.9939
    -5.9902  -5.9866  -5.9750  -5.9732  -5.9720  -5.9703  -5.9574  -5.9563
    -5.9332  -5.9325  -5.9317  -5.9292  -5.9283  -5.9258  -5.9253  -5.9234
    -5.8970  -5.8918  -5.8905  -5.8866  -5.8859  -5.8811  -5.8796  -5.8738
    -5.8681  -5.8666  -5.8168  -5.8131  -5.8089  -5.8031  -5.7967  -5.7935
    -5.7631  -5.7535  -5.7462  -5.7419  -5.7206  -5.7182  -5.7174  -5.7168
    -5.7135  -5.7123  -5.7122  -5.7104  -5.7087  -5.7081  -5.6950  -5.6946
    -5.6635  -5.6593  -5.6494  -5.6481  -5.6450  -5.6445  -5.6436  -5.6416
    -5.6384  -5.6371  -5.6364  -5.6345  -5.6286  -5.6260  -5.6085  -5.6082
    -5.6030  -5.6018  -5.5977  -5.5966  -5.5811  -5.5794  -5.5531  -5.5447
    -5.5425  -5.5402  -5.5256  -5.5222  -5.5208  -5.5184  -5.5182  -5.5150
    -5.5146  -5.5135  -5.5116  -5.5113  -5.4872  -5.4851  -5.4560  -5.4534
    -5.4531  -5.4511  -5.4503  -5.4488  -5.4479  -5.4461  -5.4444  -5.4424
    -5.4349  -5.4193  -5.4155  -5.4078  -5.4054  -5.4025  -5.3990  -5.3841
    -5.3823  -5.3745  -5.3742  -5.3733  -5.3732  -5.3730  -5.3718  -5.3669
    -5.3665  -5.3648  -5.3645  -5.3414  -5.3407  -5.3377  -5.3364  -5.3358
    -5.3353  -5.3348  -5.3335  -5.3272  -5.3268  -5.3266  -5.3258  -5.3249
    -5.3236  -5.2864  -5.2861  -5.2820  -5.2796  -5.2745  -5.2734  -5.2426
    -5.2416  -5.2410  -5.2387  -5.2376  -5.2373  -5.2325  -5.2319  -5.2272
    -5.2265  -5.2264  -5.2256  -5.1974  -5.1965  -5.1964  -5.1950  -5.1783
    -5.1768  -5.1755  -5.1753  -5.1501  -5.1484  -5.1366  -5.1344  -5.1293
    -5.1272  -5.1011  -5.1005  -5.0995  -5.0994  -5.0704  -5.0674  -4.5713
    -4.5691  -4.2997  -4.2975  -4.2882  -4.2864  -4.1528  -4.1386  -3.7731
    -3.6164  -3.6099  -3.1675  -2.9739  -2.9680  -2.9647  -2.9612  -2.9071
    -2.8946  -2.2544  -2.1703  -2.1667  -2.1553  -2.1484  -1.8068  -1.6466
    -1.6458  -1.6388  -1.6378  -1.3151  -0.5343  -0.5324  -0.5305  -0.5277
    -0.2515  -0.2499  -0.2449  -0.2433   0.0772   0.0882   0.1043   0.2277
     0.2355   1.1370   1.1540   1.2092   1.2199   1.3865   1.4298   1.4444
     1.5256   1.5286   1.5311   1.5422   2.2836   2.2976   3.0686   3.0715
     3.0757   3.0783   3.2684   3.2791   3.2845   3.2924   3.4180   3.4259
     3.8247   3.8415   3.9570   3.9588   3.9623   3.9636   4.1666   4.1823
     4.3677   4.3899   4.6991   4.7078   4.8938   4.8999   5.0532   5.0566
     5.1423   5.5815   5.6632   5.6703   5.6773   5.7698   5.8899   5.8933
     5.9367   5.9407   6.0752   6.0929   6.1089   6.1181   6.1824   6.1911
     6.1940   6.1960   6.3274   6.3633   6.3989   6.4077   6.6046   6.6436
     6.6469   6.6491   6.6973   6.7796   6.8827   6.9304   7.0321   7.0753
     7.1089   7.1169   7.1334   7.1408   7.1425   7.1577   7.6481   7.7295
     7.7550   7.8637   7.9600   8.1334   8.2153   8.2384   8.2682   8.3063
     8.3604   8.4397   8.4627   8.4949   8.5281   8.5622   8.6862   8.7189
     8.7447   8.7670   8.8819   8.9192   8.9322   8.9521   8.9592   9.0495
     9.0780   9.1490   9.1747   9.2149   9.2549   9.2964

     occupation numbers 
     1.0000   1.0000   1.0000   1.0000   1.0000   1.0000   1.0000   1.0000
     1.0000   1.0000   1.0000   1.0000   1.0000   1.0000   1.0000   1.0000
     1.0000   1.0000   1.0000   1.0000   1.0000   1.0000   1.0000   1.0000
     1.0000   1.0000   1.0000   1.0000   1.0000   1.0000   1.0000   1.0000
     1.0000   1.0000   1.0000   1.0000   1.0000   1.0000   1.0000   1.0000
     1.0000   1.0000   1.0000   1.0000   1.0000   1.0000   1.0000   1.0000
     1.0000   1.0000   1.0000   1.0000   1.0000   1.0000   1.0000   1.0000
     1.0000   1.0000   1.0000   1.0000   1.0000   1.0000   1.0000   1.0000
     1.0000   1.0000   1.0000   1.0000   1.0000   1.0000   1.0000   1.0000
     1.0000   1.0000   1.0000   1.0000   1.0000   1.0000   1.0000   1.0000
     1.0000   1.0000   1.0000   1.0000   1.0000   1.0000   1.0000   1.0000
     1.0000   1.0000   1.0000   1.0000   1.0000   1.0000   1.0000   1.0000
     1.0000   1.0000   1.0000   1.0000   1.0000   1.0000   1.0000   1.0000
     1.0000   1.0000   1.0000   1.0000   1.0000   1.0000   1.0000   1.0000
     1.0000   1.0000   1.0000   1.0000   1.0000   1.0000   1.0000   1.0000
     1.0000   1.0000   1.0000   1.0000   1.0000   1.0000   1.0000   1.0000
     1.0000   1.0000   1.0000   1.0000   1.0000   1.0000   1.0000   1.0000
     1.0000   1.0000   1.0000   1.0000   1.0000   1.0000   1.0000   1.0000
     1.0000   1.0000   1.0000   1.0000   1.0000   1.0000   1.0000   1.0000
     1.0000   1.0000   1.0000   1.0000   1.0000   1.0000   1.0000   1.0000
     1.0000   1.0000   1.0000   1.0000   1.0000   1.0000   1.0000   1.0000
     1.0000   1.0000   1.0000   1.0000   1.0000   1.0000   1.0000   1.0000
     1.0000   1.0000   1.0000   1.0000   1.0000   1.0000   1.0000   1.0000
     1.0000   1.0000   1.0000   1.0000   1.0000   1.0000   1.0000   1.0000
     1.0000   1.0000   1.0000   1.0000   1.0000   1.0000   1.0000   1.0000
     1.0000   1.0000   1.0000   1.0000   1.0000   1.0000   1.0000   1.0000
     1.0000   1.0000   1.0000   1.0000   1.0000   1.0000   1.0000   1.0000
     1.0000   1.0000   1.0000   1.0000   1.0000   1.0000   1.0000   1.0000
     1.0000   1.0000   1.0000   1.0000   1.0000   1.0000   1.0000   1.0000
     1.0000   1.0000   1.0000   1.0000   1.0000   1.0000   1.0000   1.0000
     1.0000   1.0000   1.0000   1.0000   1.0000   1.0000   1.0000   1.0000
     1.0000   1.0000   1.0000   1.0000   1.0000   1.0000   1.0000   1.0000
     1.0000   1.0000   1.0000   1.0000   1.0000   1.0000   1.0000   1.0000
     1.0000   1.0000   1.0000   1.0000   1.0000   1.0000   1.0000   1.0000
     1.0000   1.0000   1.0000   1.0000   1.0000   1.0000   1.0000   1.0000
     1.0000   1.0000   1.0000   1.0000   1.0000   1.0000   1.0000   1.0000
     1.0000   1.0000   1.0000   1.0000   1.0000   1.0000   1.0000   1.0000
     1.0000   1.0000   1.0000   1.0000   1.0000   1.0000   1.0000   1.0000
     1.0000   1.0000   1.0000   1.0000   1.0000   1.0000   1.0000   1.0000
     1.0000   1.0000   1.0000   1.0000   1.0000   1.0000   1.0000   1.0000
     1.0000   1.0000   1.0000   1.0000   1.0000   1.0000   1.0000   1.0000
     1.0000   1.0000   1.0000   1.0000   1.0000   1.0000   1.0000   1.0000
     1.0000   1.0000   1.0000   1.0000   1.0000   1.0000   1.0000   1.0000
     1.0000   1.0000   1.0000   1.0000   1.0000   1.0000   1.0000   1.0000
     1.0000   1.0000   1.0000   1.0000   1.0000   1.0000   1.0000   1.0000
     1.0000   1.0000   1.0000   1.0000   1.0000   1.0000   1.0000   1.0000
     1.0000   1.0000   1.0000   1.0000   1.0000   1.0000   1.0000   1.0000
     1.0000   1.0000   1.0000   1.0000   1.0000   1.0000   1.0000   1.0000
     1.0000   1.0000   1.0000   1.0000   1.0000   1.0000   1.0000   1.0000
     1.0000   1.0000   1.0000   1.0000   1.0000   1.0000   1.0000   1.0000
     1.0000   1.0000   1.0000   1.0000   1.0000   1.0000   1.0000   1.0000
     1.0000   1.0000   1.0000   1.0000   1.0000   1.0000   1.0000   1.0000
     1.0000   1.0000   1.0000   1.0000   1.0000   1.0000   1.0000   1.0000
     1.0000   1.0000   1.0000   1.0000   1.0000   1.0000   1.0000   1.0000
     1.0000   1.0000   1.0000   1.0000   1.0000   1.0000   1.0000   1.0000
     1.0000   1.0000   1.0000   1.0000   1.0000   1.0000   1.0000   1.0000
     1.0000   1.0000   1.0000   1.0000   1.0000   1.0000   1.0000   1.0000
     1.0000   1.0000   1.0000   1.0000   1.0000   1.0000   1.0000   1.0000
     1.0000   1.0000   1.0000   1.0000   1.0000   1.0000   1.0000   1.0000
     1.0000   1.0000   1.0000   1.0000   1.0000   1.0000   1.0000   1.0000
     1.0000   1.0000   1.0000   1.0000   1.0000   1.0000   1.0000   1.0000
     1.0000   1.0538   1.0597   1.0766   1.0790   1.0090   0.9413   0.9134
     0.7205   0.7124   0.7058   0.6756   0.0000   0.0000   0.0000   0.0000
     0.0000   0.0000   0.0000   0.0000   0.0000   0.0000   0.0000   0.0000
     0.0000   0.0000   0.0000   0.0000   0.0000   0.0000   0.0000   0.0000
     0.0000   0.0000   0.0000   0.0000   0.0000   0.0000   0.0000   0.0000
     0.0000   0.0000   0.0000   0.0000   0.0000   0.0000   0.0000   0.0000
     0.0000   0.0000   0.0000   0.0000   0.0000   0.0000   0.0000   0.0000
     0.0000   0.0000   0.0000   0.0000   0.0000   0.0000   0.0000   0.0000
     0.0000   0.0000   0.0000   0.0000   0.0000   0.0000   0.0000   0.0000
     0.0000   0.0000   0.0000   0.0000   0.0000   0.0000   0.0000   0.0000
     0.0000   0.0000   0.0000   0.0000   0.0000   0.0000   0.0000   0.0000
     0.0000   0.0000   0.0000   0.0000   0.0000   0.0000   0.0000   0.0000
     0.0000   0.0000   0.0000   0.0000   0.0000   0.0000   0.0000   0.0000
     0.0000   0.0000   0.0000   0.0000   0.0000   0.0000

          k =-0.5000-0.2887 0.0000 ( 64842 PWs)   bands (ev):

  -124.8241-124.8141-124.8109-124.8089-124.8071-124.8058-124.8053-124.8050
  -124.8046-124.8040-124.8029-124.8020-124.8014-124.8013-124.8010-124.8006
  -124.8002-124.7998-124.7992-124.7990-124.7988-124.7980-124.7977-124.7970
  -124.7960-124.7955-124.7948-124.7945-124.7921-124.7896-124.7893-124.7890
  -124.7886-124.7883-124.7879-124.7878-124.7877-124.7872-124.7870-124.7870
  -124.7868-124.7865-124.7860-124.7856-124.7853-124.7848-124.7844-124.7838
   -78.9802 -78.9780 -78.9733 -78.9723 -78.9702 -78.9700 -78.9696 -78.9684
   -78.9681 -78.9676 -78.9670 -78.9654 -78.9652 -78.9644 -78.9640 -78.9639
   -78.9637 -78.9633 -78.9632 -78.9626 -78.9622 -78.9618 -78.9615 -78.9612
   -78.9611 -78.9605 -78.9605 -78.9599 -78.9596 -78.9595 -78.9585 -78.9583
   -78.9580 -78.9578 -78.9574 -78.9569 -78.9566 -78.9562 -78.9560 -78.9558
   -78.9556 -78.9554 -78.9547 -78.9542 -78.9537 -78.9535 -78.9534 -78.9528
   -78.9523 -78.9519 -78.9515 -78.9512 -78.9511 -78.9508 -78.9506 -78.9479
   -78.9476 -78.9474 -78.9472 -78.9469 -78.9469 -78.9468 -78.9465 -78.9465
   -78.9462 -78.9460 -78.9460 -78.9454 -78.9450 -78.9450 -78.9442 -78.9436
   -78.9433 -78.9428 -78.9424 -78.9424 -78.9422 -78.9422 -78.9419 -78.9417
   -78.9415 -78.9411 -78.9408 -78.9403 -78.9400 -78.9395 -78.9394 -78.9393
   -78.9388 -78.9387 -78.9384 -78.9381 -78.9377 -78.9375 -78.9370 -78.9369
   -78.9364 -78.9362 -78.9361 -78.9360 -78.9358 -78.9356 -78.9353 -78.9353
   -78.9353 -78.9351 -78.9350 -78.9349 -78.9347 -78.9345 -78.9345 -78.9343
   -78.9343 -78.9342 -78.9340 -78.9338 -78.9337 -78.9336 -78.9335 -78.9331
   -78.9329 -78.9327 -78.9324 -78.9323 -78.9322 -78.9319 -78.9317 -78.9315
   -78.9311 -78.9309 -78.9304 -78.9303 -78.9303 -78.9302 -78.9300 -78.9291
   -78.9278 -78.9271 -78.9266 -78.9262 -78.9260 -78.9254 -78.9237 -78.9223
   -16.8172 -14.3842 -12.0099 -11.5965  -8.7806  -8.5407  -8.0663  -8.0517
    -7.2234  -7.2204  -6.9644  -6.9614  -6.7366  -6.7149  -6.7064  -6.6494
    -6.6431  -6.5589  -6.5569  -6.5472  -6.5449  -6.5440  -6.5331  -6.5327
    -6.5214  -6.5188  -6.4846  -6.4817  -6.4813  -6.4807  -6.4803  -6.4787
    -6.4768  -6.4766  -6.4611  -6.4580  -6.4561  -6.4549  -6.4240  -6.4192
    -6.3937  -6.3925  -6.3520  -6.3501  -6.3486  -6.3465  -6.3450  -6.3448
    -6.3423  -6.3414  -6.3245  -6.3198  -6.3162  -6.3154  -6.3138  -6.3119
    -6.2871  -6.2856  -6.2244  -6.2218  -6.2154  -6.2148  -6.1949  -6.1945
    -6.1942  -6.1923  -6.1788  -6.1779  -6.1671  -6.1633  -6.1613  -6.1585
    -6.1074  -6.1061  -6.1038  -6.1033  -6.0887  -6.0872  -6.0745  -6.0733
    -6.0722  -6.0689  -6.0678  -6.0672  -6.0131  -6.0128  -5.9983  -5.9950
    -5.9891  -5.9879  -5.9743  -5.9733  -5.9712  -5.9710  -5.9569  -5.9561
    -5.9334  -5.9326  -5.9321  -5.9297  -5.9285  -5.9272  -5.9236  -5.9215
    -5.8958  -5.8915  -5.8909  -5.8892  -5.8839  -5.8829  -5.8763  -5.8760
    -5.8685  -5.8661  -5.8142  -5.8128  -5.8078  -5.8056  -5.7959  -5.7939
    -5.7642  -5.7527  -5.7443  -5.7431  -5.7188  -5.7182  -5.7165  -5.7159
    -5.7140  -5.7126  -5.7124  -5.7117  -5.7086  -5.7064  -5.6971  -5.6964
    -5.6621  -5.6607  -5.6485  -5.6467  -5.6459  -5.6445  -5.6436  -5.6431
    -5.6382  -5.6364  -5.6362  -5.6357  -5.6285  -5.6264  -5.6067  -5.6057
    -5.6047  -5.6032  -5.5989  -5.5981  -5.5811  -5.5807  -5.5502  -5.5474
    -5.5417  -5.5406  -5.5241  -5.5213  -5.5208  -5.5198  -5.5193  -5.5183
    -5.5165  -5.5154  -5.5089  -5.5064  -5.4885  -5.4863  -5.4556  -5.4537
    -5.4530  -5.4529  -5.4522  -5.4495  -5.4474  -5.4472  -5.4429  -5.4397
    -5.4353  -5.4185  -5.4168  -5.4094  -5.4051  -5.4033  -5.3992  -5.3818
    -5.3809  -5.3762  -5.3754  -5.3745  -5.3732  -5.3723  -5.3699  -5.3661
    -5.3659  -5.3650  -5.3647  -5.3410  -5.3403  -5.3385  -5.3372  -5.3362
    -5.3339  -5.3338  -5.3333  -5.3273  -5.3271  -5.3264  -5.3261  -5.3256
    -5.3240  -5.2863  -5.2861  -5.2817  -5.2794  -5.2745  -5.2740  -5.2421
    -5.2413  -5.2402  -5.2396  -5.2380  -5.2370  -5.2322  -5.2319  -5.2270
    -5.2270  -5.2258  -5.2258  -5.1966  -5.1966  -5.1961  -5.1960  -5.1793
    -5.1758  -5.1755  -5.1743  -5.1509  -5.1473  -5.1376  -5.1336  -5.1296
    -5.1270  -5.1016  -5.1003  -5.0993  -5.0990  -5.0704  -5.0678  -4.5713
    -4.5694  -4.2982  -4.2979  -4.2886  -4.2870  -4.1521  -4.1384  -3.7723
    -3.6175  -3.6089  -3.1685  -2.9692  -2.9686  -2.9664  -2.9638  -2.9059
    -2.8957  -2.2521  -2.1732  -2.1663  -2.1568  -2.1458  -1.8058  -1.6474
    -1.6459  -1.6394  -1.6360  -1.3161  -0.5351  -0.5323  -0.5303  -0.5275
    -0.2521  -0.2479  -0.2462  -0.2428   0.0745   0.0890   0.1045   0.2284
     0.2339   1.1432   1.1454   1.2230   1.2316   1.3695   1.4388   1.4397
     1.5173   1.5285   1.5290   1.5415   2.2906   2.2930   3.0691   3.0704
     3.0768   3.0789   3.2675   3.2812   3.2848   3.2934   3.4205   3.4221
     3.8036   3.8598   3.9561   3.9588   3.9620   3.9670   4.1714   4.1756
     4.3677   4.3901   4.6810   4.7342   4.8950   4.8966   5.0513   5.0570
     5.1437   5.5304   5.5724   5.6692   5.6749   5.7951   5.8878   5.8941
     5.8988   6.0711   6.0776   6.1046   6.1161   6.1171   6.1881   6.1901
     6.1925   6.1976   6.3040   6.3726   6.4099   6.4157   6.5781   6.6040
     6.6470   6.6484   6.7049   6.7801   6.8054   6.9846   6.9970   7.1023
     7.1245   7.1366   7.1408   7.1428   7.1717   7.2134   7.5825   7.6758
     7.8834   7.9129   8.1055   8.1333   8.1904   8.2219   8.2433   8.2922
     8.2977   8.4701   8.4860   8.4966   8.5135   8.6609   8.6818   8.7395
     8.7478   8.7763   8.7879   8.8727   8.8851   8.9140   8.9470   8.9565
     8.9804   9.0897   9.1849   9.2068   9.2507   9.2914

     occupation numbers 
     1.0000   1.0000   1.0000   1.0000   1.0000   1.0000   1.0000   1.0000
     1.0000   1.0000   1.0000   1.0000   1.0000   1.0000   1.0000   1.0000
     1.0000   1.0000   1.0000   1.0000   1.0000   1.0000   1.0000   1.0000
     1.0000   1.0000   1.0000   1.0000   1.0000   1.0000   1.0000   1.0000
     1.0000   1.0000   1.0000   1.0000   1.0000   1.0000   1.0000   1.0000
     1.0000   1.0000   1.0000   1.0000   1.0000   1.0000   1.0000   1.0000
     1.0000   1.0000   1.0000   1.0000   1.0000   1.0000   1.0000   1.0000
     1.0000   1.0000   1.0000   1.0000   1.0000   1.0000   1.0000   1.0000
     1.0000   1.0000   1.0000   1.0000   1.0000   1.0000   1.0000   1.0000
     1.0000   1.0000   1.0000   1.0000   1.0000   1.0000   1.0000   1.0000
     1.0000   1.0000   1.0000   1.0000   1.0000   1.0000   1.0000   1.0000
     1.0000   1.0000   1.0000   1.0000   1.0000   1.0000   1.0000   1.0000
     1.0000   1.0000   1.0000   1.0000   1.0000   1.0000   1.0000   1.0000
     1.0000   1.0000   1.0000   1.0000   1.0000   1.0000   1.0000   1.0000
     1.0000   1.0000   1.0000   1.0000   1.0000   1.0000   1.0000   1.0000
     1.0000   1.0000   1.0000   1.0000   1.0000   1.0000   1.0000   1.0000
     1.0000   1.0000   1.0000   1.0000   1.0000   1.0000   1.0000   1.0000
     1.0000   1.0000   1.0000   1.0000   1.0000   1.0000   1.0000   1.0000
     1.0000   1.0000   1.0000   1.0000   1.0000   1.0000   1.0000   1.0000
     1.0000   1.0000   1.0000   1.0000   1.0000   1.0000   1.0000   1.0000
     1.0000   1.0000   1.0000   1.0000   1.0000   1.0000   1.0000   1.0000
     1.0000   1.0000   1.0000   1.0000   1.0000   1.0000   1.0000   1.0000
     1.0000   1.0000   1.0000   1.0000   1.0000   1.0000   1.0000   1.0000
     1.0000   1.0000   1.0000   1.0000   1.0000   1.0000   1.0000   1.0000
     1.0000   1.0000   1.0000   1.0000   1.0000   1.0000   1.0000   1.0000
     1.0000   1.0000   1.0000   1.0000   1.0000   1.0000   1.0000   1.0000
     1.0000   1.0000   1.0000   1.0000   1.0000   1.0000   1.0000   1.0000
     1.0000   1.0000   1.0000   1.0000   1.0000   1.0000   1.0000   1.0000
     1.0000   1.0000   1.0000   1.0000   1.0000   1.0000   1.0000   1.0000
     1.0000   1.0000   1.0000   1.0000   1.0000   1.0000   1.0000   1.0000
     1.0000   1.0000   1.0000   1.0000   1.0000   1.0000   1.0000   1.0000
     1.0000   1.0000   1.0000   1.0000   1.0000   1.0000   1.0000   1.0000
     1.0000   1.0000   1.0000   1.0000   1.0000   1.0000   1.0000   1.0000
     1.0000   1.0000   1.0000   1.0000   1.0000   1.0000   1.0000   1.0000
     1.0000   1.0000   1.0000   1.0000   1.0000   1.0000   1.0000   1.0000
     1.0000   1.0000   1.0000   1.0000   1.0000   1.0000   1.0000   1.0000
     1.0000   1.0000   1.0000   1.0000   1.0000   1.0000   1.0000   1.0000
     1.0000   1.0000   1.0000   1.0000   1.0000   1.0000   1.0000   1.0000
     1.0000   1.0000   1.0000   1.0000   1.0000   1.0000   1.0000   1.0000
     1.0000   1.0000   1.0000   1.0000   1.0000   1.0000   1.0000   1.0000
     1.0000   1.0000   1.0000   1.0000   1.0000   1.0000   1.0000   1.0000
     1.0000   1.0000   1.0000   1.0000   1.0000   1.0000   1.0000   1.0000
     1.0000   1.0000   1.0000   1.0000   1.0000   1.0000   1.0000   1.0000
     1.0000   1.0000   1.0000   1.0000   1.0000   1.0000   1.0000   1.0000
     1.0000   1.0000   1.0000   1.0000   1.0000   1.0000   1.0000   1.0000
     1.0000   1.0000   1.0000   1.0000   1.0000   1.0000   1.0000   1.0000
     1.0000   1.0000   1.0000   1.0000   1.0000   1.0000   1.0000   1.0000
     1.0000   1.0000   1.0000   1.0000   1.0000   1.0000   1.0000   1.0000
     1.0000   1.0000   1.0000   1.0000   1.0000   1.0000   1.0000   1.0000
     1.0000   1.0000   1.0000   1.0000   1.0000   1.0000   1.0000   1.0000
     1.0000   1.0000   1.0000   1.0000   1.0000   1.0000   1.0000   1.0000
     1.0000   1.0000   1.0000   1.0000   1.0000   1.0000   1.0000   1.0000
     1.0000   1.0000   1.0000   1.0000   1.0000   1.0000   1.0000   1.0000
     1.0000   1.0000   1.0000   1.0000   1.0000   1.0000   1.0000   1.0000
     1.0000   1.0000   1.0000   1.0000   1.0000   1.0000   1.0000   1.0000
     1.0000   1.0000   1.0000   1.0000   1.0000   1.0000   1.0000   1.0000
     1.0000   1.0000   1.0000   1.0000   1.0000   1.0000   1.0000   1.0000
     1.0000   1.0000   1.0000   1.0000   1.0000   1.0000   1.0000   1.0000
     1.0000   1.0000   1.0000   1.0000   1.0000   1.0000   1.0000   1.0000
     1.0000   1.0000   1.0000   1.0000   1.0000   1.0000   1.0000   1.0000
     1.0000   1.0000   1.0000   1.0000   1.0000   1.0000   1.0000   1.0000
     1.0000   1.0560   1.0567   1.0796   1.0811   1.0293   0.9243   0.9227
     0.7425   0.7128   0.7112   0.6775   0.0000   0.0000   0.0000   0.0000
     0.0000   0.0000   0.0000   0.0000   0.0000   0.0000   0.0000   0.0000
     0.0000   0.0000   0.0000   0.0000   0.0000   0.0000   0.0000   0.0000
     0.0000   0.0000   0.0000   0.0000   0.0000   0.0000   0.0000   0.0000
     0.0000   0.0000   0.0000   0.0000   0.0000   0.0000   0.0000   0.0000
     0.0000   0.0000   0.0000   0.0000   0.0000   0.0000   0.0000   0.0000
     0.0000   0.0000   0.0000   0.0000   0.0000   0.0000   0.0000   0.0000
     0.0000   0.0000   0.0000   0.0000   0.0000   0.0000   0.0000   0.0000
     0.0000   0.0000   0.0000   0.0000   0.0000   0.0000   0.0000   0.0000
     0.0000   0.0000   0.0000   0.0000   0.0000   0.0000   0.0000   0.0000
     0.0000   0.0000   0.0000   0.0000   0.0000   0.0000   0.0000   0.0000
     0.0000   0.0000   0.0000   0.0000   0.0000   0.0000   0.0000   0.0000
     0.0000   0.0000   0.0000   0.0000   0.0000   0.0000

          k =-0.5000-0.8660 0.0000 ( 64842 PWs)   bands (ev):

  -124.8241-124.8141-124.8109-124.8089-124.8071-124.8058-124.8053-124.8050
  -124.8046-124.8040-124.8029-124.8020-124.8014-124.8012-124.8010-124.8007
  -124.8002-124.7998-124.7992-124.7990-124.7988-124.7980-124.7977-124.7970
  -124.7960-124.7955-124.7948-124.7945-124.7921-124.7897-124.7892-124.7888
  -124.7886-124.7885-124.7879-124.7878-124.7874-124.7873-124.7872-124.7869
  -124.7868-124.7863-124.7861-124.7856-124.7853-124.7848-124.7844-124.7838
   -78.9799 -78.9781 -78.9733 -78.9723 -78.9701 -78.9699 -78.9694 -78.9691
   -78.9677 -78.9676 -78.9669 -78.9659 -78.9657 -78.9643 -78.9641 -78.9640
   -78.9636 -78.9634 -78.9631 -78.9629 -78.9624 -78.9621 -78.9619 -78.9618
   -78.9611 -78.9609 -78.9606 -78.9601 -78.9599 -78.9589 -78.9585 -78.9581
   -78.9579 -78.9576 -78.9574 -78.9568 -78.9567 -78.9562 -78.9560 -78.9559
   -78.9547 -78.9546 -78.9543 -78.9540 -78.9539 -78.9530 -78.9525 -78.9524
   -78.9519 -78.9517 -78.9512 -78.9509 -78.9508 -78.9506 -78.9505 -78.9481
   -78.9476 -78.9473 -78.9471 -78.9470 -78.9469 -78.9468 -78.9467 -78.9466
   -78.9464 -78.9464 -78.9460 -78.9456 -78.9454 -78.9451 -78.9446 -78.9443
   -78.9442 -78.9434 -78.9427 -78.9426 -78.9424 -78.9423 -78.9421 -78.9420
   -78.9417 -78.9414 -78.9411 -78.9408 -78.9406 -78.9404 -78.9397 -78.9392
   -78.9389 -78.9389 -78.9384 -78.9377 -78.9372 -78.9368 -78.9366 -78.9364
   -78.9362 -78.9362 -78.9360 -78.9358 -78.9358 -78.9353 -78.9352 -78.9350
   -78.9349 -78.9348 -78.9348 -78.9347 -78.9346 -78.9345 -78.9343 -78.9342
   -78.9342 -78.9340 -78.9339 -78.9338 -78.9337 -78.9336 -78.9334 -78.9333
   -78.9332 -78.9330 -78.9326 -78.9325 -78.9325 -78.9319 -78.9317 -78.9312
   -78.9307 -78.9307 -78.9305 -78.9302 -78.9300 -78.9300 -78.9295 -78.9290
   -78.9277 -78.9276 -78.9275 -78.9269 -78.9257 -78.9254 -78.9233 -78.9226
   -16.8172 -14.3841 -12.0100 -11.5965  -8.7806  -8.5407  -8.0658  -8.0521
    -7.2291  -7.2147  -6.9644  -6.9611  -6.7364  -6.7140  -6.7072  -6.6490
    -6.6438  -6.5599  -6.5566  -6.5466  -6.5463  -6.5410  -6.5315  -6.5302
    -6.5227  -6.5218  -6.4839  -6.4832  -6.4816  -6.4803  -6.4797  -6.4782
    -6.4771  -6.4751  -6.4599  -6.4577  -6.4573  -6.4563  -6.4272  -6.4180
    -6.3957  -6.3906  -6.3532  -6.3529  -6.3477  -6.3449  -6.3444  -6.3435
    -6.3427  -6.3413  -6.3246  -6.3201  -6.3164  -6.3148  -6.3134  -6.3123
    -6.2892  -6.2835  -6.2265  -6.2201  -6.2178  -6.2130  -6.1964  -6.1942
    -6.1935  -6.1908  -6.1797  -6.1781  -6.1648  -6.1630  -6.1617  -6.1601
    -6.1086  -6.1054  -6.1048  -6.1022  -6.0884  -6.0879  -6.0751  -6.0725
    -6.0707  -6.0689  -6.0687  -6.0677  -6.0137  -6.0115  -5.9991  -5.9939
    -5.9899  -5.9872  -5.9742  -5.9740  -5.9715  -5.9707  -5.9572  -5.9565
    -5.9327  -5.9325  -5.9315  -5.9292  -5.9281  -5.9262  -5.9250  -5.9238
    -5.8966  -5.8918  -5.8901  -5.8872  -5.8851  -5.8799  -5.8793  -5.8761
    -5.8675  -5.8672  -5.8163  -5.8129  -5.8089  -5.8035  -5.7958  -5.7943
    -5.7617  -5.7551  -5.7449  -5.7429  -5.7203  -5.7176  -5.7173  -5.7153
    -5.7146  -5.7137  -5.7123  -5.7095  -5.7091  -5.7085  -5.6953  -5.6947
    -5.6633  -5.6595  -5.6492  -5.6479  -5.6450  -5.6444  -5.6437  -5.6419
    -5.6379  -5.6372  -5.6365  -5.6350  -5.6291  -5.6252  -5.6081  -5.6076
    -5.6035  -5.6023  -5.5980  -5.5968  -5.5810  -5.5797  -5.5523  -5.5454
    -5.5422  -5.5405  -5.5246  -5.5225  -5.5208  -5.5183  -5.5179  -5.5165
    -5.5145  -5.5141  -5.5113  -5.5108  -5.4874  -5.4851  -5.4560  -5.4534
    -5.4531  -5.4511  -5.4506  -5.4487  -5.4477  -5.4469  -5.4436  -5.4427
    -5.4349  -5.4190  -5.4160  -5.4078  -5.4050  -5.4029  -5.3991  -5.3837
    -5.3825  -5.3748  -5.3741  -5.3734  -5.3731  -5.3728  -5.3716  -5.3665
    -5.3659  -5.3654  -5.3650  -5.3413  -5.3406  -5.3378  -5.3365  -5.3361
    -5.3350  -5.3345  -5.3338  -5.3271  -5.3266  -5.3264  -5.3260  -5.3244
    -5.3243  -5.2863  -5.2861  -5.2809  -5.2806  -5.2745  -5.2736  -5.2418
    -5.2411  -5.2404  -5.2401  -5.2384  -5.2368  -5.2323  -5.2320  -5.2271
    -5.2265  -5.2262  -5.2258  -5.1970  -5.1965  -5.1964  -5.1954  -5.1778
    -5.1761  -5.1760  -5.1758  -5.1498  -5.1483  -5.1361  -5.1351  -5.1285
    -5.1283  -5.1013  -5.1007  -5.0998  -5.0987  -5.0694  -5.0685  -4.5706
    -4.5699  -4.2980  -4.2964  -4.2900  -4.2874  -4.1527  -4.1385  -3.7731
    -3.6147  -3.6116  -3.1677  -2.9720  -2.9681  -2.9652  -2.9626  -2.9043
    -2.8974  -2.2536  -2.1712  -2.1662  -2.1537  -2.1499  -1.8066  -1.6480
    -1.6456  -1.6388  -1.6366  -1.3153  -0.5357  -0.5315  -0.5297  -0.5284
    -0.2489  -0.2484  -0.2471  -0.2450   0.0804   0.0847   0.1041   0.2287
     0.2343   1.1389   1.1522   1.2106   1.2230   1.3826   1.4325   1.4429
     1.5229   1.5307   1.5338   1.5383   2.2856   2.2960   3.0666   3.0683
     3.0789   3.0804   3.2728   3.2777   3.2841   3.2890   3.4190   3.4251
     3.8229   3.8429   3.9554   3.9571   3.9643   3.9654   4.1712   4.1778
     4.3759   4.3819   4.6946   4.7146   4.8953   4.8983   5.0533   5.0557
     5.1421   5.5655   5.6635   5.6701   5.7161   5.7493   5.8852   5.8985
     5.9147   5.9501   6.0769   6.0905   6.1053   6.1165   6.1819   6.1905
     6.1930   6.1973   6.3353   6.3496   6.4038   6.4185   6.6176   6.6438
     6.6476   6.6638   6.7318   6.7733   6.9018   6.9345   7.0447   7.0501
     7.1185   7.1251   7.1279   7.1402   7.1427   7.1634   7.5014   7.7090
     7.8108   7.8977   7.9368   8.1712   8.2184   8.2260   8.2527   8.2682
     8.3412   8.4430   8.4569   8.5094   8.5191   8.5653   8.6589   8.7212
     8.7234   8.7403   8.8863   8.9167   8.9422   8.9481   8.9637   9.0779
     9.1011   9.1251   9.1519   9.2007   9.2736   9.2840

     occupation numbers 
     1.0000   1.0000   1.0000   1.0000   1.0000   1.0000   1.0000   1.0000
     1.0000   1.0000   1.0000   1.0000   1.0000   1.0000   1.0000   1.0000
     1.0000   1.0000   1.0000   1.0000   1.0000   1.0000   1.0000   1.0000
     1.0000   1.0000   1.0000   1.0000   1.0000   1.0000   1.0000   1.0000
     1.0000   1.0000   1.0000   1.0000   1.0000   1.0000   1.0000   1.0000
     1.0000   1.0000   1.0000   1.0000   1.0000   1.0000   1.0000   1.0000
     1.0000   1.0000   1.0000   1.0000   1.0000   1.0000   1.0000   1.0000
     1.0000   1.0000   1.0000   1.0000   1.0000   1.0000   1.0000   1.0000
     1.0000   1.0000   1.0000   1.0000   1.0000   1.0000   1.0000   1.0000
     1.0000   1.0000   1.0000   1.0000   1.0000   1.0000   1.0000   1.0000
     1.0000   1.0000   1.0000   1.0000   1.0000   1.0000   1.0000   1.0000
     1.0000   1.0000   1.0000   1.0000   1.0000   1.0000   1.0000   1.0000
     1.0000   1.0000   1.0000   1.0000   1.0000   1.0000   1.0000   1.0000
     1.0000   1.0000   1.0000   1.0000   1.0000   1.0000   1.0000   1.0000
     1.0000   1.0000   1.0000   1.0000   1.0000   1.0000   1.0000   1.0000
     1.0000   1.0000   1.0000   1.0000   1.0000   1.0000   1.0000   1.0000
     1.0000   1.0000   1.0000   1.0000   1.0000   1.0000   1.0000   1.0000
     1.0000   1.0000   1.0000   1.0000   1.0000   1.0000   1.0000   1.0000
     1.0000   1.0000   1.0000   1.0000   1.0000   1.0000   1.0000   1.0000
     1.0000   1.0000   1.0000   1.0000   1.0000   1.0000   1.0000   1.0000
     1.0000   1.0000   1.0000   1.0000   1.0000   1.0000   1.0000   1.0000
     1.0000   1.0000   1.0000   1.0000   1.0000   1.0000   1.0000   1.0000
     1.0000   1.0000   1.0000   1.0000   1.0000   1.0000   1.0000   1.0000
     1.0000   1.0000   1.0000   1.0000   1.0000   1.0000   1.0000   1.0000
     1.0000   1.0000   1.0000   1.0000   1.0000   1.0000   1.0000   1.0000
     1.0000   1.0000   1.0000   1.0000   1.0000   1.0000   1.0000   1.0000
     1.0000   1.0000   1.0000   1.0000   1.0000   1.0000   1.0000   1.0000
     1.0000   1.0000   1.0000   1.0000   1.0000   1.0000   1.0000   1.0000
     1.0000   1.0000   1.0000   1.0000   1.0000   1.0000   1.0000   1.0000
     1.0000   1.0000   1.0000   1.0000   1.0000   1.0000   1.0000   1.0000
     1.0000   1.0000   1.0000   1.0000   1.0000   1.0000   1.0000   1.0000
     1.0000   1.0000   1.0000   1.0000   1.0000   1.0000   1.0000   1.0000
     1.0000   1.0000   1.0000   1.0000   1.0000   1.0000   1.0000   1.0000
     1.0000   1.0000   1.0000   1.0000   1.0000   1.0000   1.0000   1.0000
     1.0000   1.0000   1.0000   1.0000   1.0000   1.0000   1.0000   1.0000
     1.0000   1.0000   1.0000   1.0000   1.0000   1.0000   1.0000   1.0000
     1.0000   1.0000   1.0000   1.0000   1.0000   1.0000   1.0000   1.0000
     1.0000   1.0000   1.0000   1.0000   1.0000   1.0000   1.0000   1.0000
     1.0000   1.0000   1.0000   1.0000   1.0000   1.0000   1.0000   1.0000
     1.0000   1.0000   1.0000   1.0000   1.0000   1.0000   1.0000   1.0000
     1.0000   1.0000   1.0000   1.0000   1.0000   1.0000   1.0000   1.0000
     1.0000   1.0000   1.0000   1.0000   1.0000   1.0000   1.0000   1.0000
     1.0000   1.0000   1.0000   1.0000   1.0000   1.0000   1.0000   1.0000
     1.0000   1.0000   1.0000   1.0000   1.0000   1.0000   1.0000   1.0000
     1.0000   1.0000   1.0000   1.0000   1.0000   1.0000   1.0000   1.0000
     1.0000   1.0000   1.0000   1.0000   1.0000   1.0000   1.0000   1.0000
[...]
     atom   40 type  1   force =     0.00000000    0.00000000    0.00000000
     atom   41 type  1   force =     0.00000000    0.00000000    0.00000000
     atom   42 type  1   force =     0.00000000    0.00000000    0.00000000
     atom   43 type  1   force =     0.00000000    0.00000000    0.00000000
     atom   44 type  1   force =     0.00000000    0.00000000    0.00000000
     atom   45 type  1   force =     0.00000000    0.00000000    0.00000000
     atom   46 type  1   force =     0.00000000    0.00000000    0.00000000
     atom   47 type  1   force =     0.00000000    0.00000000    0.00000000
     atom   48 type  1   force =     0.00000000    0.00000000    0.00000000
     atom   49 type  3   force =     0.00000000    0.00000000    0.00000000
     atom   50 type  3   force =     0.00000000    0.00000000    0.00000000
     atom   51 type  3   force =     0.00000000    0.00000000    0.00000000
     atom   52 type  3   force =     0.00000000    0.00000000    0.00000000
     atom   53 type  3   force =     0.00000000    0.00000000    0.00000000
     atom   54 type  3   force =     0.00000000    0.00000000    0.00000000
     atom   55 type  2   force =     0.00000000    0.00000000    0.00000000
     atom   56 type  4   force =     0.00000000    0.00000000    0.00000000
     atom   57 type  4   force =     0.00000000    0.00000000    0.00000000
     atom   58 type  4   force =     0.00000000    0.00000000    0.00000000
     atom   59 type  4   force =     0.00000000    0.00000000    0.00000000
     atom   60 type  4   force =     0.00000000    0.00000000    0.00000000
     atom   61 type  4   force =     0.00000000    0.00000000    0.00000000
     atom   62 type  4   force =     0.00000000    0.00000000    0.00000000
     The SCF correction term to forces
     atom    1 type  1   force =    -0.00000000   -0.00000000    0.00000000
     atom    2 type  1   force =     0.00000000    0.00000000    0.00000000
     atom    3 type  1   force =     0.00001461    0.00001544    0.00000281
     atom    4 type  1   force =    -0.00001301   -0.00000283    0.00000578
     atom    5 type  1   force =    -0.00000000   -0.00000000    0.00000000
     atom    6 type  1   force =     0.00000000    0.00000000    0.00000000
     atom    7 type  1   force =     0.00000860    0.00002117    0.00000833
     atom    8 type  1   force =    -0.00000180   -0.00001482    0.00000234
     atom    9 type  1   force =    -0.00000000    0.00000000    0.00000000
     atom   10 type  1   force =     0.00000000    0.00000000    0.00000000
     atom   11 type  1   force =     0.00001585    0.00000715   -0.00001028
     atom   12 type  1   force =    -0.00002663   -0.00002161   -0.00000781
     atom   13 type  1   force =    -0.00000000   -0.00000000    0.00000000
     atom   14 type  1   force =     0.00000000    0.00000000    0.00000000
     atom   15 type  1   force =     0.00002864   -0.00000466   -0.00001278
     atom   16 type  1   force =    -0.00003554   -0.00000459    0.00001522
     atom   17 type  1   force =     0.00000000   -0.00000000    0.00000000
     atom   18 type  1   force =    -0.00000000   -0.00000000    0.00000000
     atom   19 type  1   force =    -0.00000309   -0.00001136    0.00001374
     atom   20 type  1   force =     0.00000537    0.00002759   -0.00000507
     atom   21 type  1   force =     0.00000000   -0.00000000    0.00000000
     atom   22 type  1   force =    -0.00000000    0.00000000    0.00000000
     atom   23 type  1   force =    -0.00002013   -0.00000084    0.00002726
     atom   24 type  1   force =     0.00001760    0.00001459   -0.00001211
     atom   25 type  1   force =    -0.00000000    0.00000000    0.00000000
     atom   26 type  1   force =     0.00000000    0.00000000    0.00000000
     atom   27 type  1   force =    -0.00002869   -0.00000859    0.00002370
     atom   28 type  1   force =     0.00004019   -0.00000703   -0.00002790
     atom   29 type  1   force =    -0.00000000    0.00000000    0.00000000
     atom   30 type  1   force =     0.00000000   -0.00000000    0.00000000
     atom   31 type  1   force =    -0.00001390   -0.00001765    0.00000877
     atom   32 type  1   force =     0.00001886    0.00001180   -0.00002018
     atom   33 type  1   force =     0.00000125   -0.00002718    0.00000194
     atom   34 type  1   force =    -0.00000363    0.00001398   -0.00002049
     atom   35 type  1   force =    -0.00001871   -0.00000973    0.00002957
     atom   36 type  1   force =     0.00001634    0.00001209   -0.00001647
     atom   37 type  1   force =    -0.00005181    0.00000245    0.00003952
     atom   38 type  1   force =     0.00003670    0.00000336   -0.00002638
     atom   39 type  1   force =    -0.00002000   -0.00001630    0.00001151
     atom   40 type  1   force =     0.00001686    0.00000912   -0.00002754
     atom   41 type  1   force =    -0.00000598   -0.00001084    0.00000537
     atom   42 type  1   force =     0.00001130   -0.00000128   -0.00002560
     atom   43 type  1   force =     0.00001150   -0.00001260    0.00001059
     atom   44 type  1   force =    -0.00000900    0.00003065    0.00000627
     atom   45 type  1   force =    -0.00001000   -0.00000115    0.00001843
     atom   46 type  1   force =     0.00002254    0.00000900   -0.00001408
     atom   47 type  1   force =    -0.00002876    0.00000607    0.00001578
     atom   48 type  1   force =     0.00003162   -0.00000524   -0.00004114
     atom   49 type  3   force =    -0.00001351   -0.00000087   -0.00000285
     atom   50 type  3   force =    -0.00000782   -0.00001404   -0.00000309
     atom   51 type  3   force =    -0.00000512   -0.00000163    0.00001381
     atom   52 type  3   force =    -0.00001771    0.00000796   -0.00000001
     atom   53 type  3   force =    -0.00000538   -0.00000230    0.00001209
     atom   54 type  3   force =    -0.00001053   -0.00000377   -0.00000643
     atom   55 type  2   force =    -0.00001385   -0.00000531   -0.00001074
     atom   56 type  4   force =    -0.00000057    0.00000342    0.00000234
     atom   57 type  4   force =    -0.00000121   -0.00000340   -0.00000263
     atom   58 type  4   force =    -0.00000287    0.00000064   -0.00000178
     atom   59 type  4   force =    -0.00000057    0.00000088    0.00000132
     atom   60 type  4   force =    -0.00000158   -0.00000069   -0.00000575
     atom   61 type  4   force =     0.00000074   -0.00000201    0.00000233
     atom   62 type  4   force =     0.00000224   -0.00000273    0.00000269

     DFT-D3 dispersion contribution to forces:
     atom    1 type  1   force =    -0.00000196    0.00000141    0.00328204
     atom    2 type  1   force =     0.00000098   -0.00000035    0.00328230
     atom    3 type  1   force =    -0.00000547   -0.00001563   -0.00317736
     atom    4 type  1   force =     0.00000140   -0.00000317   -0.00314483
     atom    5 type  1   force =    -0.00000056   -0.00000025    0.00327397
     atom    6 type  1   force =    -0.00000735    0.00000474    0.00327328
     atom    7 type  1   force =     0.00005464    0.00002850   -0.00318057
     atom    8 type  1   force =    -0.00019801    0.00037154   -0.00252881
     atom    9 type  1   force =     0.00000118   -0.00000225    0.00328025
     atom   10 type  1   force =     0.00000077    0.00000210    0.00326825
     atom   11 type  1   force =    -0.00001525    0.00000240   -0.00318223
     atom   12 type  1   force =     0.00003100    0.00003000   -0.00186881
     atom   13 type  1   force =     0.00000539    0.00000370    0.00326082
     atom   14 type  1   force =     0.00000313   -0.00000803    0.00327259
     atom   15 type  1   force =    -0.00008537   -0.00004530   -0.00317068
     atom   16 type  1   force =     0.00023874   -0.00035299   -0.00250303
     atom   17 type  1   force =     0.00000482   -0.00000389    0.00326866
     atom   18 type  1   force =    -0.00000299    0.00000330    0.00325822
     atom   19 type  1   force =     0.00000940    0.00009137   -0.00315643
     atom   20 type  1   force =    -0.00000003   -0.00011411   -0.00313492
     atom   21 type  1   force =     0.00000604   -0.00000133    0.00327068
     atom   22 type  1   force =     0.00000117   -0.00000416    0.00326053
     atom   23 type  1   force =     0.00025905    0.00034904   -0.00262668
     atom   24 type  1   force =    -0.00008989    0.00005064   -0.00314871
     atom   25 type  1   force =     0.00000012    0.00000515    0.00326735
     atom   26 type  1   force =    -0.00000216   -0.00000484    0.00326566
     atom   27 type  1   force =     0.00044162    0.00004967   -0.00263298
     atom   28 type  1   force =    -0.00046534   -0.00001778   -0.00252538
     atom   29 type  1   force =    -0.00000074    0.00000629    0.00326601
     atom   30 type  1   force =    -0.00000728   -0.00000087    0.00326673
     atom   31 type  1   force =     0.00008629   -0.00003381   -0.00315706
     atom   32 type  1   force =    -0.00026137   -0.00038541   -0.00249994
     atom   33 type  1   force =    -0.00002500   -0.00000511    0.00002900
     atom   34 type  1   force =     0.00001043    0.00000013    0.00002683
     atom   35 type  1   force =    -0.00000218    0.00001990   -0.00000078
     atom   36 type  1   force =     0.00000632    0.00002170    0.00002986
     atom   37 type  1   force =     0.00000961   -0.00000613   -0.00000181
     atom   38 type  1   force =     0.00000166    0.00001354    0.00006413
     atom   39 type  1   force =    -0.00001666   -0.00002933    0.00002955
     atom   40 type  1   force =     0.00001279   -0.00001584    0.00006576
     atom   41 type  1   force =     0.00001079    0.00000305    0.00002404
     atom   42 type  1   force =    -0.00000320    0.00000327    0.00000066
     atom   43 type  1   force =    -0.00000123   -0.00001542   -0.00000292
     atom   44 type  1   force =    -0.00000342    0.00000532    0.00002383
     atom   45 type  1   force =    -0.00000411    0.00000043    0.00006309
     atom   46 type  1   force =     0.00000058   -0.00000519   -0.00000426
     atom   47 type  1   force =    -0.00002342    0.00000230   -0.00000571
     atom   48 type  1   force =     0.00002764    0.00000784   -0.00002865
     atom   49 type  3   force =     0.00002879    0.00001076   -0.00080843
     atom   50 type  3   force =    -0.00007227    0.00014815   -0.00021713
     atom   51 type  3   force =    -0.00010382    0.00020728   -0.00018318
     atom   52 type  3   force =     0.00006915   -0.00015684   -0.00021348
     atom   53 type  3   force =     0.00008887   -0.00020761   -0.00017001
     atom   54 type  3   force =     0.00000084    0.00000581    0.00025133
     atom   55 type  2   force =     0.00000065    0.00000022   -0.00179530
     atom   56 type  4   force =    -0.00002886    0.00004194   -0.00169339
     atom   57 type  4   force =     0.00000411   -0.00001099    0.00000228
     atom   58 type  4   force =    -0.00000437    0.00001326    0.00000234
     atom   59 type  4   force =    -0.00000286    0.00000204   -0.00018599
     atom   60 type  4   force =     0.00000198   -0.00000041   -0.00008236
     atom   61 type  4   force =    -0.00000150   -0.00000775   -0.00019611
     atom   62 type  4   force =     0.00001674   -0.00005200   -0.00170211

     Total force =     0.008720     Total SCF correction =     0.000187

     DFT-D3 dispersion Force =     0.017748


     Computing stress (Cartesian axis) and pressure


     negative rho (up, down):  4.324E-03 0.000E+00
          total   stress  (Ry/bohr**3)                   (kbar)     P=       -3.06
  -0.00002548   0.00000009   0.00000041           -3.75        0.01        0.06
   0.00000009  -0.00002566   0.00000002            0.01       -3.77        0.00
   0.00000041   0.00000002  -0.00001129            0.06        0.00       -1.66

     kinetic stress (kbar)  12903.43     24.32     -2.69
                               24.32  12861.97     -1.22
                               -2.69     -1.22  12914.74

     local   stress (kbar)**********    653.97     34.62
                              653.97**********      9.85
                               34.62      9.851225046.84

     nonloc. stress (kbar)  -1217.63     -1.88     -0.16
                               -1.88  -1214.44     -0.08
                               -0.16     -0.08  -1251.08

     hartree stress (kbar) 633042.25   -245.11    -16.90
                             -245.11 633453.26     -5.08
                              -16.90     -5.08-576500.90

     exc-cor stress (kbar)  -6318.57     -1.24      0.01
                               -1.24  -6316.46      0.00
                                0.01      0.00  -6324.28

     corecor stress (kbar)    -68.39      0.39      0.01
                                0.39    -69.05      0.01
                                0.01      0.01    -69.17

     ewald   stress (kbar) 574168.37   -430.43    -14.83
                             -430.43 574893.78     -3.49
                              -14.83     -3.49-653812.71

     hubbard stress (kbar)      0.00      0.00      0.00
                                0.00      0.00      0.00
                                0.00      0.00      0.00

     DFT-D   stress (kbar)    -10.54     -0.00     -0.00
                               -0.00    -10.53     -0.00
                               -0.00     -0.00     -5.11

     XDM     stress (kbar)      0.00      0.00      0.00
                                0.00      0.00      0.00
                                0.00      0.00      0.00

     dft-nl  stress (kbar)      0.00      0.00      0.00
                                0.00      0.00      0.00
                                0.00      0.00      0.00

     TS-vdW  stress (kbar)      0.00      0.00      0.00
                                0.00      0.00      0.00
                                0.00      0.00      0.00

     MDB     stress (kbar)      0.00      0.00      0.00
                                0.00      0.00      0.00
                                0.00      0.00      0.00

     3D-RISM stress (kbar)      0.00      0.00      0.00
                                0.00      0.00      0.00
                                0.00      0.00      0.00

     Energy error            =      9.7E-05 Ry
     Gradient error          =      3.2E-03 Ry/Bohr

     number of scf cycles    =  22
     number of bfgs steps    =  21

     energy             old  =  -22294.0277790116 Ry
     energy             new  =  -22294.0278761798 Ry

     CASE: energy            _new < energy            _old

     new trust radius        =       0.0105883591 bohr
     new conv_thr            =       0.0000000194 Ry


ATOMIC_POSITIONS (angstrom)
Zn               0.0000000000        1.5094010000        1.2182900000    0   0   0
Zn               5.2287200000        1.5094010000        1.2182900000    0   0   0
Zn              -0.0005864020        1.5078862677        5.9548818743
Zn               5.2278703956        1.5081461845        5.9516828445
Zn              -1.3071800000        3.7735030000        1.2182900000    0   0   0
Zn               3.9215400000        3.7735030000        1.2182900000    0   0   0
Zn              -1.3045247336        3.7739012948        5.9549472102
Zn               3.9203743503        3.7726739225        5.9570087037
Zn              -2.6143600000        6.0376050000        1.2182900000    0   0   0
Zn               2.6143600000        6.0376050000        1.2182900000    0   0   0
Zn              -2.6155724125        6.0371767917        5.9551259309
Zn               2.6135145079        6.0373341851        5.9324256552
Zn              -3.9215400000        8.3017080000        1.2182900000    0   0   0
Zn               1.3071800000        8.3017080000        1.2182900000    0   0   0
Zn              -3.9252188789        8.2999875050        5.9551897730
Zn               1.3066459804        8.3005827814        5.9577928772
Zn               2.6143600000        1.5094010000        1.2182900000    0   0   0
Zn               7.8430800000        1.5094010000        1.2182900000    0   0   0
Zn               2.6140339186        1.5088497628        5.9528569240
Zn               7.8431166114        1.5067830378        5.9526007610
Zn               1.3071800000        3.7735030000        1.2182900000    0   0   0
Zn               6.5359000000        3.7735030000        1.2182900000    0   0   0
Zn               1.3073711883        3.7725006002        5.9616552071
Zn               6.5337090394        3.7738619578        5.9528915697
Zn               0.0000000000        6.0376050000        1.2182900000    0   0   0
Zn               5.2287200000        6.0376050000        1.2182900000    0   0   0
Zn               0.0003487807        6.0376490435        5.9620303986
Zn               5.2251588967        6.0370066815        5.9736215662
Zn              -1.3071800000        8.3017080000        1.2182900000    0   0   0
Zn               3.9215400000        8.3017080000        1.2182900000    0   0   0
Zn              -1.3066429010        8.3014300797        5.9534099072
Zn               3.9195715461        8.2992592916        5.9706737119
Zn               1.3049895838        0.7533227775        3.5850470209
Zn               6.5351754366        0.7536266466        3.5850989234
Zn               0.0000455044        3.0190782728        3.5826050967
Zn               5.2280459270        3.0183585504        3.5844492258
Zn              -1.3066444430        5.2825542058        3.5821183699
Zn               3.9232055161        5.2823387955        3.5842109231
Zn              -2.6159866411        7.5452622662        3.5849784114
Zn               2.6145161746        7.5480159359        3.5835019697
Zn               3.9223937450        0.7544041429        3.5837672106
Zn               9.1503802225        0.7529165768        3.5847008107
Zn               2.6138705994        3.0188626793        3.5866025451
Zn               7.8427056944        3.0183970059        3.5874213495
Zn               1.3042634047        5.2812525308        3.5879814366
Zn               6.5344194093        5.2833426390        3.5834417762
Zn              -0.0000371497        7.5459808101        3.5871147204
Zn               5.2278993018        7.5460932595        3.5873720210
C                2.7653066150        6.1548563519       10.8881129046
C                2.2128957164        7.2450008009       12.9925257609
C                2.2288417721        7.2445722913       11.5966380894
C                3.2223010195        5.0621585598       13.0137605508
C                3.2421083327        5.0519395617       11.6179874975
C                2.7221122852        6.1627804356       13.7134807701
N                2.8932969755        6.1991365334        9.4905510578
H                2.9387466747        5.2914145470        9.0338475253
H                1.8067167929        8.1094243796       13.5214696748
H                3.6149017671        4.2021388714       13.5593056898
H                3.6406530879        4.1826038665       11.0875509408
H                2.7284789428        6.1761328353       14.8036237130
H                1.8260327497        8.1011933654       11.0491274623
H                2.2365538811        6.8145994559        9.0168530522



     Writing config-only to output data dir ./tmp/Zn002_3layer_aniline_relax.save/ :
     XML data file
     NEW-OLD atomic charge density approx. for the potential

     negative rho (up, down):  4.327E-03 0.000E+00

     total cpu time spent up to now is    20482.3 secs

     Self-consistent Calculation

     iteration #  1     ecut=    40.00 Ry     beta= 0.40
     Davidson diagonalization with overlap

---- Real-time Memory Report at c_bands before calling an iterative solver
           627 MiB given to the printing process from OS
             0 MiB allocation reported by mallinfo(arena+hblkhd)
        178009 MiB available memory on the node where the printing process lives
------------------
