
     Program PWSCF v.7.3.1 starts on 26Mar2025 at 22:37:34 

     This program is part of the open-source Quantum ESPRESSO suite
     for quantum simulation of materials; please cite
         "P. Giannozzi et al., J. Phys.:Condens. Matter 21 395502 (2009);
         "P. Giannozzi et al., J. Phys.:Condens. Matter 29 465901 (2017);
         "P. Giannozzi et al., J. Chem. Phys. 152 154105 (2020);
          URL http://www.quantum-espresso.org", 
     in publications or presentations arising from this work. More details at
     http://www.quantum-espresso.org/quote

     Parallel version (MPI), running on    33 processors

     MPI processes distributed on     1 nodes
     527 MiB available memory on the printing compute node when the environment starts

     Waiting for input...
     Reading input from standard input

     Current dimensions of program PWSCF are:
     Max number of different atomic species (ntypx) = 10
     Max number of k-points (npk) =  40000
     Max angular momentum in pseudopotentials (lmaxx) =  4
     Found identity + ( -0.5000  0.0000  0.0000) symmetry
     This is a supercell, fractional translations are disabled

     R & G space division:  proc/nbgrp/npool/nimage =      33
     Subspace diagonalization in iterative solution of the eigenvalue problem:
     one sub-group per band group will be used
     custom distributed-memory algorithm (size of sub-group:  5*  5 procs)


     Parallelization info
     --------------------
     sticks:   dense  smooth     PW     G-vecs:    dense   smooth      PW
     Min         228     130     36                36393    15714    2270
     Max         230     131     37                36401    15723    2280
     Sum        7555    4303   1189              1201061   518755   75035

     Using Slab Decomposition



     bravais-lattice index     =            0
     lattice parameter (alat)  =      19.7617  a.u.
     unit-cell volume          =   15176.5939 (a.u.)^3
     number of atoms/cell      =           48
     number of atomic types    =            1
     number of electrons       =       960.00
     number of Kohn-Sham states=          576
     kinetic-energy cutoff     =      40.0000  Ry
     charge density cutoff     =     280.0000  Ry
     scf convergence threshold =      1.0E-05
     mixing beta               =       0.1000
     number of iterations used =            8  plain     mixing
     Exchange-correlation= SLA  PW   PBE  PBE
                           (   1   4   3   4   0   0   0)

     celldm(1)=  19.761696  celldm(2)=   0.000000  celldm(3)=   0.000000
     celldm(4)=   0.000000  celldm(5)=   0.000000  celldm(6)=   0.000000

     crystal axes: (cart. coord. in units of alat)
               a(1) = (   1.000000   0.000000   0.000000 )  
               a(2) = (  -0.500000   0.866025   0.000000 )  
               a(3) = (   0.000000   0.000000   2.270759 )  

     reciprocal axes: (cart. coord. in units 2 pi/alat)
               b(1) = (  1.000000  0.577350 -0.000000 )  
               b(2) = (  0.000000  1.154701  0.000000 )  
               b(3) = (  0.000000 -0.000000  0.440381 )  


     PseudoPot. # 1 for Zn read from file:
     /home/ys/qepseudo/SSSP_1.3.0_PBE_efficiency/Zn_pbe_v1.uspp.F.UPF
     MD5 check sum: df62231357ef9e81f77b2b3087fa5675
     Pseudo is Ultrasoft, Zval = 20.0
     Generated by new atomic code, or converted to UPF format
     Using radial grid of  943 points,  6 beta functions with: 
                l(1) =   0
                l(2) =   0
                l(3) =   1
                l(4) =   1
                l(5) =   2
                l(6) =   2
     Q(r) pseudized with  8 coefficients,  rinner =    1.100   1.100   1.100
                                                       1.100   1.100

     atomic species   valence    mass     pseudopotential
     Zn               20.00    65.38000     Zn( 1.00)

     No symmetry found


                                    s                        frac. trans.

      isym =  1     identity                                     

 cryst.   s( 1) = (     1          0          0      )
                  (     0          1          0      )
                  (     0          0          1      )

 cart.    s( 1) = (  1.0000000  0.0000000  0.0000000 )
                  (  0.0000000  1.0000000  0.0000000 )
                  (  0.0000000  0.0000000  1.0000000 )


   Cartesian axes

     site n.     atom                  positions (alat units)
         1        Zn     tau(   1) = (   0.0000000   0.1443375   0.1164998  )
         2        Zn     tau(   2) = (   0.5000000   0.1443375   0.1164998  )
         3        Zn     tau(   3) = (   0.0000000   0.1443375   0.5824993  )
         4        Zn     tau(   4) = (   0.5000000   0.1443375   0.5824993  )
         5        Zn     tau(   5) = (  -0.1250000   0.3608439   0.1164998  )
         6        Zn     tau(   6) = (   0.3750000   0.3608439   0.1164998  )
         7        Zn     tau(   7) = (  -0.1250000   0.3608439   0.5824993  )
         8        Zn     tau(   8) = (   0.3750000   0.3608439   0.5824993  )
         9        Zn     tau(   9) = (  -0.2500000   0.5773502   0.1164998  )
        10        Zn     tau(  10) = (   0.2500000   0.5773502   0.1164998  )
        11        Zn     tau(  11) = (  -0.2500000   0.5773502   0.5824993  )
        12        Zn     tau(  12) = (   0.2500000   0.5773502   0.5824993  )
        13        Zn     tau(  13) = (  -0.3750000   0.7938567   0.1164998  )
        14        Zn     tau(  14) = (   0.1250000   0.7938567   0.1164998  )
        15        Zn     tau(  15) = (  -0.3750000   0.7938567   0.5824993  )
        16        Zn     tau(  16) = (   0.1250000   0.7938567   0.5824993  )
        17        Zn     tau(  17) = (   0.2500000   0.1443375   0.1164998  )
        18        Zn     tau(  18) = (   0.7500000   0.1443375   0.1164998  )
        19        Zn     tau(  19) = (   0.2500000   0.1443375   0.5824993  )
        20        Zn     tau(  20) = (   0.7500000   0.1443375   0.5824993  )
        21        Zn     tau(  21) = (   0.1250000   0.3608439   0.1164998  )
        22        Zn     tau(  22) = (   0.6250000   0.3608439   0.1164998  )
        23        Zn     tau(  23) = (   0.1250000   0.3608439   0.5824993  )
        24        Zn     tau(  24) = (   0.6250000   0.3608439   0.5824993  )
        25        Zn     tau(  25) = (   0.0000000   0.5773502   0.1164998  )
        26        Zn     tau(  26) = (   0.5000000   0.5773502   0.1164998  )
        27        Zn     tau(  27) = (   0.0000000   0.5773502   0.5824993  )
        28        Zn     tau(  28) = (   0.5000000   0.5773502   0.5824993  )
        29        Zn     tau(  29) = (  -0.1250000   0.7938567   0.1164998  )
        30        Zn     tau(  30) = (   0.3750000   0.7938567   0.1164998  )
        31        Zn     tau(  31) = (  -0.1250000   0.7938567   0.5824993  )
        32        Zn     tau(  32) = (   0.3750000   0.7938567   0.5824993  )
        33        Zn     tau(  33) = (   0.1250000   0.0721688   0.3494996  )
        34        Zn     tau(  34) = (   0.6250000   0.0721688   0.3494996  )
        35        Zn     tau(  35) = (   0.0000000   0.2886752   0.3494996  )
        36        Zn     tau(  36) = (   0.5000000   0.2886752   0.3494996  )
        37        Zn     tau(  37) = (  -0.1250000   0.5051815   0.3494996  )
        38        Zn     tau(  38) = (   0.3750000   0.5051815   0.3494996  )
        39        Zn     tau(  39) = (  -0.2500000   0.7216879   0.3494996  )
        40        Zn     tau(  40) = (   0.2500000   0.7216879   0.3494996  )
        41        Zn     tau(  41) = (   0.3750000   0.0721688   0.3494996  )
        42        Zn     tau(  42) = (   0.8750000   0.0721688   0.3494996  )
        43        Zn     tau(  43) = (   0.2500000   0.2886752   0.3494996  )
        44        Zn     tau(  44) = (   0.7500000   0.2886752   0.3494996  )
        45        Zn     tau(  45) = (   0.1250000   0.5051815   0.3494996  )
        46        Zn     tau(  46) = (   0.6250000   0.5051815   0.3494996  )
        47        Zn     tau(  47) = (   0.0000000   0.7216879   0.3494996  )
        48        Zn     tau(  48) = (   0.5000000   0.7216879   0.3494996  )

   Crystallographic axes

     site n.     atom                  positions (cryst. coord.)
         1        Zn     tau(   1) = (  0.0833333  0.1666666  0.0513044  )
         2        Zn     tau(   2) = (  0.5833333  0.1666666  0.0513044  )
         3        Zn     tau(   3) = (  0.0833333  0.1666666  0.2565219  )
         4        Zn     tau(   4) = (  0.5833333  0.1666666  0.2565219  )
         5        Zn     tau(   5) = (  0.0833333  0.4166666  0.0513044  )
         6        Zn     tau(   6) = (  0.5833333  0.4166666  0.0513044  )
         7        Zn     tau(   7) = (  0.0833333  0.4166666  0.2565219  )
         8        Zn     tau(   8) = (  0.5833333  0.4166666  0.2565219  )
         9        Zn     tau(   9) = (  0.0833333  0.6666666  0.0513044  )
        10        Zn     tau(  10) = (  0.5833333  0.6666666  0.0513044  )
        11        Zn     tau(  11) = (  0.0833333  0.6666666  0.2565219  )
        12        Zn     tau(  12) = (  0.5833333  0.6666666  0.2565219  )
        13        Zn     tau(  13) = (  0.0833333  0.9166667  0.0513044  )
        14        Zn     tau(  14) = (  0.5833334  0.9166667  0.0513044  )
        15        Zn     tau(  15) = (  0.0833333  0.9166667  0.2565219  )
        16        Zn     tau(  16) = (  0.5833334  0.9166667  0.2565219  )
        17        Zn     tau(  17) = (  0.3333333  0.1666666  0.0513044  )
        18        Zn     tau(  18) = (  0.8333334  0.1666666  0.0513044  )
        19        Zn     tau(  19) = (  0.3333333  0.1666666  0.2565219  )
        20        Zn     tau(  20) = (  0.8333334  0.1666666  0.2565219  )
        21        Zn     tau(  21) = (  0.3333333  0.4166666  0.0513044  )
        22        Zn     tau(  22) = (  0.8333333  0.4166666  0.0513044  )
        23        Zn     tau(  23) = (  0.3333333  0.4166666  0.2565219  )
        24        Zn     tau(  24) = (  0.8333333  0.4166666  0.2565219  )
        25        Zn     tau(  25) = (  0.3333333  0.6666666  0.0513044  )
        26        Zn     tau(  26) = (  0.8333333  0.6666666  0.0513044  )
        27        Zn     tau(  27) = (  0.3333333  0.6666666  0.2565219  )
        28        Zn     tau(  28) = (  0.8333333  0.6666666  0.2565219  )
        29        Zn     tau(  29) = (  0.3333334  0.9166667  0.0513044  )
        30        Zn     tau(  30) = (  0.8333334  0.9166667  0.0513044  )
        31        Zn     tau(  31) = (  0.3333334  0.9166667  0.2565219  )
        32        Zn     tau(  32) = (  0.8333334  0.9166667  0.2565219  )
        33        Zn     tau(  33) = (  0.1666667  0.0833334  0.1539131  )
        34        Zn     tau(  34) = (  0.6666667  0.0833334  0.1539131  )
        35        Zn     tau(  35) = (  0.1666667  0.3333334  0.1539131  )
        36        Zn     tau(  36) = (  0.6666667  0.3333334  0.1539131  )
        37        Zn     tau(  37) = (  0.1666667  0.5833334  0.1539131  )
        38        Zn     tau(  38) = (  0.6666667  0.5833334  0.1539131  )
        39        Zn     tau(  39) = (  0.1666667  0.8333334  0.1539131  )
        40        Zn     tau(  40) = (  0.6666667  0.8333334  0.1539131  )
        41        Zn     tau(  41) = (  0.4166667  0.0833334  0.1539131  )
        42        Zn     tau(  42) = (  0.9166667  0.0833334  0.1539131  )
        43        Zn     tau(  43) = (  0.4166667  0.3333334  0.1539131  )
        44        Zn     tau(  44) = (  0.9166667  0.3333334  0.1539131  )
        45        Zn     tau(  45) = (  0.4166667  0.5833334  0.1539131  )
        46        Zn     tau(  46) = (  0.9166667  0.5833334  0.1539131  )
        47        Zn     tau(  47) = (  0.4166667  0.8333334  0.1539131  )
        48        Zn     tau(  48) = (  0.9166667  0.8333334  0.1539131  )

     number of k points=    10  Marzari-Vanderbilt smearing, width (Ry)=  0.0200
                       cart. coord. in units 2pi/alat
        k(    1) = (   0.0000000   0.0000000   0.0000000), wk =   0.1250000
        k(    2) = (   0.0000000   0.2886751   0.0000000), wk =   0.2500000
        k(    3) = (   0.0000000  -0.5773503   0.0000000), wk =   0.1250000
        k(    4) = (   0.2500000   0.1443376   0.0000000), wk =   0.2500000
        k(    5) = (   0.2500000   0.4330127   0.0000000), wk =   0.2500000
        k(    6) = (   0.2500000  -0.4330127   0.0000000), wk =   0.2500000
        k(    7) = (   0.2500000  -0.1443376   0.0000000), wk =   0.2500000
        k(    8) = (  -0.5000000  -0.2886751   0.0000000), wk =   0.1250000
        k(    9) = (  -0.5000000   0.0000000   0.0000000), wk =   0.2500000
        k(   10) = (  -0.5000000  -0.8660254   0.0000000), wk =   0.1250000

                       cryst. coord.
        k(    1) = (   0.0000000   0.0000000   0.0000000), wk =   0.1250000
        k(    2) = (   0.0000000   0.2500000   0.0000000), wk =   0.2500000
        k(    3) = (   0.0000000  -0.5000000   0.0000000), wk =   0.1250000
        k(    4) = (   0.2500000   0.0000000   0.0000000), wk =   0.2500000
        k(    5) = (   0.2500000   0.2500000   0.0000000), wk =   0.2500000
        k(    6) = (   0.2500000  -0.5000000   0.0000000), wk =   0.2500000
        k(    7) = (   0.2500000  -0.2500000   0.0000000), wk =   0.2500000
        k(    8) = (  -0.5000000   0.0000000   0.0000000), wk =   0.1250000
        k(    9) = (  -0.5000000   0.2500000   0.0000000), wk =   0.2500000
        k(   10) = (  -0.5000000  -0.5000000   0.0000000), wk =   0.1250000

     Dense  grid:  1201061 G-vectors     FFT dimensions: ( 108, 108, 240)

     Smooth grid:   518755 G-vectors     FFT dimensions: (  80,  80, 192)

     Dynamical RAM for                 wfc:      17.26 MB

     Dynamical RAM for     wfc (w. buffer):     189.88 MB

     Dynamical RAM for           str. fact:       0.56 MB

     Dynamical RAM for           local pot:       0.00 MB

     Dynamical RAM for          nlocal pot:      25.89 MB

     Dynamical RAM for                qrad:       1.34 MB

     Dynamical RAM for          rho,v,vnew:       3.80 MB

     Dynamical RAM for               rhoin:       1.27 MB

     Dynamical RAM for            rho*nmix:       8.89 MB

     Dynamical RAM for           G-vectors:       2.20 MB

     Dynamical RAM for          h,s,v(r/c):       2.42 MB

     Dynamical RAM for          <psi|beta>:       7.59 MB

     Dynamical RAM for                 psi:      34.52 MB

     Dynamical RAM for                hpsi:      34.52 MB

     Dynamical RAM for                spsi:      34.52 MB

     Dynamical RAM for      wfcinit/wfcrot:      46.32 MB

     Dynamical RAM for           addusdens:     129.95 MB

     Estimated static dynamical RAM per process >     229.61 MB

     Estimated max dynamical RAM per process >     368.45 MB

     Estimated total dynamical RAM >      11.87 GB

     Initial potential from superposition of free atoms

     starting charge     959.9932, renormalised to     960.0000

     negative rho (up, down):  4.194E-03 0.000E+00
     Starting wfcs are  624 randomized atomic wfcs

     total cpu time spent up to now is      123.5 secs

     Self-consistent Calculation

     iteration #  1     ecut=    40.00 Ry     beta= 0.10
     Davidson diagonalization with overlap

---- Real-time Memory Report at c_bands before calling an iterative solver
           294 MiB given to the printing process from OS
             0 MiB allocation reported by mallinfo(arena+hblkhd)
          2504 MiB available memory on the node where the printing process lives
------------------
     ethr =  1.00E-02,  avg # of iterations =  9.4

     Threshold (ethr) on eigenvalues was too large:
     Diagonalizing with lowered threshold

     Davidson diagonalization with overlap

---- Real-time Memory Report at c_bands before calling an iterative solver
           386 MiB given to the printing process from OS
             0 MiB allocation reported by mallinfo(arena+hblkhd)
          3647 MiB available memory on the node where the printing process lives
------------------
     ethr =  1.61E-04,  avg # of iterations = 11.2

     negative rho (up, down):  4.386E-03 0.000E+00

     total cpu time spent up to now is     1091.4 secs

     total energy              =  -22154.40925210 Ry
     estimated scf accuracy    <       1.57417206 Ry

     iteration #  2     ecut=    40.00 Ry     beta= 0.10
     Davidson diagonalization with overlap

---- Real-time Memory Report at c_bands before calling an iterative solver
           396 MiB given to the printing process from OS
             0 MiB allocation reported by mallinfo(arena+hblkhd)
          3739 MiB available memory on the node where the printing process lives
------------------
     ethr =  1.64E-04,  avg # of iterations =  1.8

     negative rho (up, down):  4.979E-03 0.000E+00

     total cpu time spent up to now is     1425.7 secs

     total energy              =  -22154.14885989 Ry
     estimated scf accuracy    <       0.80831262 Ry

     iteration #  3     ecut=    40.00 Ry     beta= 0.10
     Davidson diagonalization with overlap

---- Real-time Memory Report at c_bands before calling an iterative solver
           399 MiB given to the printing process from OS
             0 MiB allocation reported by mallinfo(arena+hblkhd)
          3828 MiB available memory on the node where the printing process lives
------------------
     ethr =  8.42E-05,  avg # of iterations =  2.6

     negative rho (up, down):  6.769E-03 0.000E+00

     total cpu time spent up to now is     1929.9 secs

     total energy              =  -22154.25472858 Ry
     estimated scf accuracy    <       0.12031437 Ry

     iteration #  4     ecut=    40.00 Ry     beta= 0.10
     Davidson diagonalization with overlap

---- Real-time Memory Report at c_bands before calling an iterative solver
           400 MiB given to the printing process from OS
             0 MiB allocation reported by mallinfo(arena+hblkhd)
          3763 MiB available memory on the node where the printing process lives
------------------
     c_bands:  1 eigenvalues not converged
     c_bands:  1 eigenvalues not converged
     ethr =  1.25E-05,  avg # of iterations = 11.3

     negative rho (up, down):  8.404E-03 0.000E+00

     total cpu time spent up to now is     2392.5 secs

     total energy              =  -22154.25430737 Ry
     estimated scf accuracy    <       0.02113022 Ry

     iteration #  5     ecut=    40.00 Ry     beta= 0.10
     Davidson diagonalization with overlap

---- Real-time Memory Report at c_bands before calling an iterative solver
           400 MiB given to the printing process from OS
             0 MiB allocation reported by mallinfo(arena+hblkhd)
          3751 MiB available memory on the node where the printing process lives
------------------
     ethr =  2.20E-06,  avg # of iterations =  9.0

     negative rho (up, down):  7.909E-03 0.000E+00

     total cpu time spent up to now is     2873.2 secs

     total energy              =  -22154.25456262 Ry
     estimated scf accuracy    <       0.00175253 Ry

     iteration #  6     ecut=    40.00 Ry     beta= 0.10
     Davidson diagonalization with overlap

---- Real-time Memory Report at c_bands before calling an iterative solver
           401 MiB given to the printing process from OS
             0 MiB allocation reported by mallinfo(arena+hblkhd)
          3895 MiB available memory on the node where the printing process lives
------------------
     ethr =  1.83E-07,  avg # of iterations =  3.0

     negative rho (up, down):  7.622E-03 0.000E+00

     total cpu time spent up to now is     3598.8 secs

     total energy              =  -22154.25375801 Ry
     estimated scf accuracy    <       0.00446312 Ry

     iteration #  7     ecut=    40.00 Ry     beta= 0.10
     Davidson diagonalization with overlap

---- Real-time Memory Report at c_bands before calling an iterative solver
           401 MiB given to the printing process from OS
             0 MiB allocation reported by mallinfo(arena+hblkhd)
          4009 MiB available memory on the node where the printing process lives
------------------
     ethr =  1.83E-07,  avg # of iterations =  3.0

     negative rho (up, down):  7.338E-03 0.000E+00

     total cpu time spent up to now is     4300.3 secs

     total energy              =  -22154.25534924 Ry
     estimated scf accuracy    <       0.00086946 Ry

     iteration #  8     ecut=    40.00 Ry     beta= 0.10
     Davidson diagonalization with overlap

---- Real-time Memory Report at c_bands before calling an iterative solver
           402 MiB given to the printing process from OS
             0 MiB allocation reported by mallinfo(arena+hblkhd)
          3773 MiB available memory on the node where the printing process lives
------------------
     ethr =  9.06E-08,  avg # of iterations =  1.0

     negative rho (up, down):  7.006E-03 0.000E+00

     total cpu time spent up to now is     4636.0 secs

     total energy              =  -22154.25488990 Ry
     estimated scf accuracy    <       0.00058857 Ry

     iteration #  9     ecut=    40.00 Ry     beta= 0.10
     Davidson diagonalization with overlap

---- Real-time Memory Report at c_bands before calling an iterative solver
           402 MiB given to the printing process from OS
             0 MiB allocation reported by mallinfo(arena+hblkhd)
          3740 MiB available memory on the node where the printing process lives
------------------
     ethr =  6.13E-08,  avg # of iterations =  3.0

     negative rho (up, down):  6.802E-03 0.000E+00

     total cpu time spent up to now is     5263.3 secs

     total energy              =  -22154.25538391 Ry
     estimated scf accuracy    <       0.00148606 Ry

     iteration # 10     ecut=    40.00 Ry     beta= 0.10
     Davidson diagonalization with overlap

---- Real-time Memory Report at c_bands before calling an iterative solver
           403 MiB given to the printing process from OS
             0 MiB allocation reported by mallinfo(arena+hblkhd)
          3745 MiB available memory on the node where the printing process lives
------------------
     ethr =  6.13E-08,  avg # of iterations =  2.0

     negative rho (up, down):  6.625E-03 0.000E+00

     total cpu time spent up to now is     5678.0 secs

     total energy              =  -22154.25514307 Ry
     estimated scf accuracy    <       0.00064076 Ry

     iteration # 11     ecut=    40.00 Ry     beta= 0.10
     Davidson diagonalization with overlap

---- Real-time Memory Report at c_bands before calling an iterative solver
           403 MiB given to the printing process from OS
             0 MiB allocation reported by mallinfo(arena+hblkhd)
          3736 MiB available memory on the node where the printing process lives
------------------
     ethr =  6.13E-08,  avg # of iterations =  2.0

     negative rho (up, down):  6.109E-03 0.000E+00

     total cpu time spent up to now is     6150.5 secs

     End of self-consistent calculation

          k = 0.0000 0.0000 0.0000 ( 64855 PWs)   bands (ev):

  -125.0676-125.0659-125.0659-125.0659-125.0659-125.0659-125.0659-125.0642
  -125.0641-125.0641-125.0641-125.0641-125.0641-125.0641-125.0641-125.0641
  -124.8624-124.8623-124.8606-124.8606-124.8606-124.8606-124.8606-124.8606
  -124.8606-124.8606-124.8606-124.8605-124.8605-124.8605-124.8589-124.8589
  -124.8589-124.8589-124.8589-124.8589-124.8589-124.8589-124.8589-124.8588
  -124.8588-124.8588-124.8588-124.8588-124.8588-124.8588-124.8588-124.8588
   -79.2341 -79.2341 -79.2341 -79.2275 -79.2275 -79.2275 -79.2275 -79.2275
   -79.2275 -79.2161 -79.2161 -79.2161 -79.2161 -79.2161 -79.2161 -79.2161
   -79.2142 -79.2142 -79.2142 -79.2141 -79.2141 -79.2141 -79.2141 -79.2141
   -79.2141 -79.2141 -79.2141 -79.2141 -79.2122 -79.2122 -79.2122 -79.2122
   -79.2122 -79.2122 -79.2122 -79.2122 -79.2121 -79.2075 -79.2075 -79.2075
   -79.2028 -79.2028 -79.2027 -79.2027 -79.2027 -79.2027 -79.1980 -79.1980
   -79.0256 -79.0256 -79.0256 -79.0255 -79.0255 -79.0255 -79.0193 -79.0190
   -79.0190 -79.0190 -79.0190 -79.0190 -79.0190 -79.0190 -79.0189 -79.0189
   -79.0189 -79.0189 -79.0189 -79.0189 -79.0173 -79.0173 -79.0173 -79.0173
   -79.0173 -79.0173 -79.0172 -79.0172 -79.0172 -79.0172 -79.0172 -79.0172
   -79.0154 -79.0154 -79.0154 -79.0154 -79.0154 -79.0154 -79.0154 -79.0154
   -79.0154 -79.0153 -79.0153 -79.0153 -79.0153 -79.0153 -79.0153 -79.0153
   -79.0153 -79.0153 -79.0077 -79.0077 -79.0077 -79.0077 -79.0077 -79.0077
   -79.0076 -79.0076 -79.0076 -79.0076 -79.0076 -79.0076 -79.0056 -79.0056
   -79.0056 -79.0056 -79.0056 -79.0056 -79.0056 -79.0055 -79.0055 -79.0055
   -79.0055 -79.0055 -78.9991 -78.9991 -78.9990 -78.9990 -78.9990 -78.9990
   -78.9943 -78.9943 -78.9943 -78.9943 -78.9943 -78.9943 -78.9942 -78.9942
   -78.9942 -78.9942 -78.9942 -78.9942 -78.9896 -78.9896 -78.9895 -78.9895
    -8.6235  -7.4007  -7.0923  -7.0693  -7.0693  -7.0693  -7.0693  -7.0693
    -7.0693  -6.9149  -6.9149  -6.9149  -6.7256  -6.7256  -6.7256  -6.6778
    -6.6778  -6.6778  -6.5891  -6.5891  -6.5891  -6.5891  -6.5891  -6.5891
    -6.5400  -6.5400  -6.5400  -6.5400  -6.5400  -6.5400  -6.5365  -6.5365
    -6.5365  -6.4793  -6.4793  -6.4793  -6.4793  -6.4793  -6.4793  -6.4325
    -6.4325  -6.4325  -6.4325  -6.4325  -6.4325  -6.3349  -6.3349  -6.3349
    -6.3349  -6.3349  -6.3349  -6.3333  -6.3333  -6.3333  -6.2735  -6.2735
    -6.2735  -6.2735  -6.2735  -6.2734  -6.2700  -6.2113  -6.2113  -6.2113
    -6.2113  -6.2113  -6.2113  -6.1715  -6.1715  -6.1715  -6.1715  -6.1715
    -6.1715  -6.1457  -6.1457  -6.1457  -6.1457  -6.1457  -6.1457  -6.1226
    -6.1226  -6.1223  -6.1223  -6.1223  -6.1223  -6.1223  -6.1223  -6.0972
    -6.0972  -6.0972  -6.0967  -6.0967  -6.0967  -6.0967  -6.0967  -6.0967
    -5.9942  -5.9942  -5.9942  -5.9942  -5.9942  -5.9942  -5.9161  -5.9161
    -5.8973  -5.8973  -5.8651  -5.8651  -5.8651  -5.8651  -5.8651  -5.8651
    -5.8632  -5.8632  -5.8632  -5.8632  -5.8632  -5.8632  -5.8323  -5.8323
    -5.8323  -5.7825  -5.7825  -5.7825  -5.7825  -5.7825  -5.7825  -5.7761
    -5.7761  -5.7761  -5.7761  -5.7761  -5.7761  -5.7758  -5.7758  -5.7758
    -5.7758  -5.7758  -5.7758  -5.7540  -5.7540  -5.7540  -5.7540  -5.7540
    -5.7540  -5.7453  -5.7453  -5.7453  -5.7453  -5.7453  -5.7453  -5.7284
    -5.7284  -5.7284  -5.7284  -5.7284  -5.7284  -5.7158  -5.7087  -5.7087
    -5.7087  -5.7087  -5.7087  -5.7087  -5.6969  -5.6969  -5.6969  -5.6108
    -5.6108  -5.5751  -5.5751  -5.5751  -5.5751  -5.5751  -5.5751  -5.5686
    -5.5686  -5.5686  -5.5686  -5.5686  -5.5686  -5.5456  -5.5456  -5.5456
    -5.5456  -5.5456  -5.5456  -5.5289  -5.5289  -5.5289  -5.5020  -5.5020
    -5.5020  -5.5020  -5.5020  -5.5020  -5.4934  -5.4934  -5.4934  -5.4934
    -5.4934  -5.4934  -5.4453  -5.4453  -5.4453  -5.4453  -5.4453  -5.4453
    -5.4336  -5.4336  -5.4336  -5.4330  -5.4330  -5.4330  -5.3967  -5.3967
    -5.3967  -5.3907  -5.3907  -5.3907  -5.3907  -5.3907  -5.3907  -5.3829
    -5.3829  -5.3617  -5.3617  -5.3192  -5.3192  -5.3192  -5.3192  -5.3192
    -5.3192  -5.2899  -5.2899  -5.2899  -5.2899  -5.2899  -5.2899  -5.2814
    -5.2814  -5.2814  -5.0709  -5.0709  -5.0709  -5.0708  -5.0708  -5.0708
    -4.3982  -4.3982  -4.3982  -4.3982  -4.3982  -4.3982  -3.4506  -2.1044
    -2.1044  -2.1044  -2.1044  -2.1044  -2.1044  -2.0207  -2.0207  -2.0207
    -2.0207  -2.0207  -2.0207  -0.8435  -0.8435  -0.8435  -0.7130  -0.6409
    -0.6409  -0.6409  -0.6409  -0.6409  -0.6409  -0.0855  -0.0855  -0.0855
     0.2441   0.2441   0.2441   1.5356   1.5356   1.5356   1.5356   1.5356
     1.5356   1.5800   1.5800   1.5800   1.5800   1.5800   1.5800   2.3082
     2.3082   2.3082   3.1074   3.3004   3.3004   3.3004   4.1407   4.1407
     4.1407   4.8830   4.8830   4.8830   4.8831   4.8831   4.8831   5.0712
     5.2546   5.4264   5.4264   5.4264   5.4264   5.4264   5.4264   5.4336
     5.4336   5.4336   5.4336   5.4336   5.4336   5.6043   5.6043   5.6043
     5.6043   5.6043   5.6043   6.1942   6.3884   6.5614   6.5614   6.5614
     6.8701   6.8701   6.8701   6.8701   6.8701   6.8701   7.0098   7.0098
     7.0098   7.0098   7.0098   7.0098   7.0906   7.0906   7.0906   7.0906
     7.0906   7.0906   7.1879   7.1879   7.1879   7.1879   7.1879   7.1879
     8.0332   8.0332   8.0332   8.0332   8.0332   8.0332   8.1442   8.1442
     8.1442   8.1442   8.1442   8.1442   8.1757   8.1757   8.1757   8.1757
     8.1757   8.1757   8.1992   8.3591   8.3752   8.3752   8.3752   9.2818

     occupation numbers 
     1.0000   1.0000   1.0000   1.0000   1.0000   1.0000   1.0000   1.0000
     1.0000   1.0000   1.0000   1.0000   1.0000   1.0000   1.0000   1.0000
     1.0000   1.0000   1.0000   1.0000   1.0000   1.0000   1.0000   1.0000
     1.0000   1.0000   1.0000   1.0000   1.0000   1.0000   1.0000   1.0000
     1.0000   1.0000   1.0000   1.0000   1.0000   1.0000   1.0000   1.0000
     1.0000   1.0000   1.0000   1.0000   1.0000   1.0000   1.0000   1.0000
     1.0000   1.0000   1.0000   1.0000   1.0000   1.0000   1.0000   1.0000
     1.0000   1.0000   1.0000   1.0000   1.0000   1.0000   1.0000   1.0000
     1.0000   1.0000   1.0000   1.0000   1.0000   1.0000   1.0000   1.0000
     1.0000   1.0000   1.0000   1.0000   1.0000   1.0000   1.0000   1.0000
     1.0000   1.0000   1.0000   1.0000   1.0000   1.0000   1.0000   1.0000
     1.0000   1.0000   1.0000   1.0000   1.0000   1.0000   1.0000   1.0000
     1.0000   1.0000   1.0000   1.0000   1.0000   1.0000   1.0000   1.0000
     1.0000   1.0000   1.0000   1.0000   1.0000   1.0000   1.0000   1.0000
     1.0000   1.0000   1.0000   1.0000   1.0000   1.0000   1.0000   1.0000
     1.0000   1.0000   1.0000   1.0000   1.0000   1.0000   1.0000   1.0000
     1.0000   1.0000   1.0000   1.0000   1.0000   1.0000   1.0000   1.0000
     1.0000   1.0000   1.0000   1.0000   1.0000   1.0000   1.0000   1.0000
     1.0000   1.0000   1.0000   1.0000   1.0000   1.0000   1.0000   1.0000
     1.0000   1.0000   1.0000   1.0000   1.0000   1.0000   1.0000   1.0000
     1.0000   1.0000   1.0000   1.0000   1.0000   1.0000   1.0000   1.0000
     1.0000   1.0000   1.0000   1.0000   1.0000   1.0000   1.0000   1.0000
     1.0000   1.0000   1.0000   1.0000   1.0000   1.0000   1.0000   1.0000
     1.0000   1.0000   1.0000   1.0000   1.0000   1.0000   1.0000   1.0000
     1.0000   1.0000   1.0000   1.0000   1.0000   1.0000   1.0000   1.0000
     1.0000   1.0000   1.0000   1.0000   1.0000   1.0000   1.0000   1.0000
     1.0000   1.0000   1.0000   1.0000   1.0000   1.0000   1.0000   1.0000
     1.0000   1.0000   1.0000   1.0000   1.0000   1.0000   1.0000   1.0000
     1.0000   1.0000   1.0000   1.0000   1.0000   1.0000   1.0000   1.0000
     1.0000   1.0000   1.0000   1.0000   1.0000   1.0000   1.0000   1.0000
     1.0000   1.0000   1.0000   1.0000   1.0000   1.0000   1.0000   1.0000
     1.0000   1.0000   1.0000   1.0000   1.0000   1.0000   1.0000   1.0000
     1.0000   1.0000   1.0000   1.0000   1.0000   1.0000   1.0000   1.0000
     1.0000   1.0000   1.0000   1.0000   1.0000   1.0000   1.0000   1.0000
     1.0000   1.0000   1.0000   1.0000   1.0000   1.0000   1.0000   1.0000
     1.0000   1.0000   1.0000   1.0000   1.0000   1.0000   1.0000   1.0000
     1.0000   1.0000   1.0000   1.0000   1.0000   1.0000   1.0000   1.0000
     1.0000   1.0000   1.0000   1.0000   1.0000   1.0000   1.0000   1.0000
     1.0000   1.0000   1.0000   1.0000   1.0000   1.0000   1.0000   1.0000
     1.0000   1.0000   1.0000   1.0000   1.0000   1.0000   1.0000   1.0000
     1.0000   1.0000   1.0000   1.0000   1.0000   1.0000   1.0000   1.0000
     1.0000   1.0000   1.0000   1.0000   1.0000   1.0000   1.0000   1.0000
     1.0000   1.0000   1.0000   1.0000   1.0000   1.0000   1.0000   1.0000
     1.0000   1.0000   1.0000   1.0000   1.0000   1.0000   1.0000   1.0000
     1.0000   1.0000   1.0000   1.0000   1.0000   1.0000   1.0000   1.0000
     1.0000   1.0000   1.0000   1.0000   1.0000   1.0000   1.0000   1.0000
     1.0000   1.0000   1.0000   1.0000   1.0000   1.0000   1.0000   1.0000
     1.0000   1.0000   1.0000   1.0000   1.0000   1.0000   1.0000   1.0000
     1.0000   1.0000   1.0000   1.0000   1.0000   1.0000   1.0000   1.0000
     1.0000   1.0000   1.0000   1.0000   1.0000   1.0000   1.0000   1.0000
     1.0000   1.0000   1.0000   1.0000   1.0000   1.0000   1.0000   1.0000
     1.0000   1.0000   1.0000   1.0000   1.0000   1.0000   1.0000   1.0000
     1.0000   1.0000   1.0000   1.0000   1.0000   1.0000   1.0000   1.0000
     1.0000   1.0000   1.0000   1.0000   1.0000   1.0000   1.0000   1.0000
     1.0000   1.0000   1.0000   1.0000   1.0000   1.0000   1.0000   1.0000
     1.0000   1.0000   1.0000   1.0000   1.0000   1.0000   1.0000   1.0000
     1.0000   1.0000   1.0000   1.0000   1.0000   1.0000   1.0000   1.0000
     1.0000   1.0000   1.0000   1.0000   1.0000   1.0000   1.0000   1.0000
     1.0000   1.0000   1.0000   1.0000   1.0000   1.0000   1.0000   1.0000
     1.0000   1.0000   1.0000   0.1846   0.1846   0.1846   0.1846   0.1846
     0.1846   0.1222   0.1222   0.1222   0.1222   0.1222   0.1222   0.0000
     0.0000   0.0000   0.0000   0.0000   0.0000   0.0000   0.0000   0.0000
     0.0000   0.0000   0.0000   0.0000   0.0000   0.0000   0.0000   0.0000
     0.0000   0.0000   0.0000   0.0000   0.0000   0.0000   0.0000   0.0000
     0.0000   0.0000   0.0000   0.0000   0.0000   0.0000   0.0000   0.0000
     0.0000   0.0000   0.0000   0.0000   0.0000   0.0000   0.0000   0.0000
     0.0000   0.0000   0.0000   0.0000   0.0000   0.0000   0.0000   0.0000
     0.0000   0.0000   0.0000   0.0000   0.0000   0.0000   0.0000   0.0000
     0.0000   0.0000   0.0000   0.0000   0.0000   0.0000   0.0000   0.0000
     0.0000   0.0000   0.0000   0.0000   0.0000   0.0000   0.0000   0.0000
     0.0000   0.0000   0.0000   0.0000   0.0000   0.0000   0.0000   0.0000
     0.0000   0.0000   0.0000   0.0000   0.0000   0.0000   0.0000   0.0000

          k = 0.0000 0.2887 0.0000 ( 64808 PWs)   bands (ev):

  -125.0675-125.0665-125.0661-125.0661-125.0655-125.0655-125.0652-125.0645
  -125.0645-125.0643-125.0641-125.0641-125.0641-125.0641-125.0639-125.0639
  -124.8622-124.8622-124.8613-124.8612-124.8609-124.8609-124.8608-124.8608
  -124.8602-124.8602-124.8602-124.8602-124.8600-124.8599-124.8593-124.8593
  -124.8592-124.8592-124.8590-124.8589-124.8589-124.8589-124.8589-124.8589
  -124.8588-124.8588-124.8588-124.8588-124.8586-124.8586-124.8585-124.8585
   -79.2334 -79.2334 -79.2328 -79.2288 -79.2288 -79.2279 -79.2279 -79.2260
   -79.2260 -79.2230 -79.2198 -79.2198 -79.2171 -79.2171 -79.2160 -79.2149
   -79.2145 -79.2145 -79.2137 -79.2137 -79.2134 -79.2131 -79.2131 -79.2128
   -79.2128 -79.2126 -79.2126 -79.2123 -79.2122 -79.2122 -79.2122 -79.2122
   -79.2119 -79.2119 -79.2104 -79.2104 -79.2092 -79.2082 -79.2082 -79.2071
   -79.2046 -79.2043 -79.2043 -79.2023 -79.2023 -79.2009 -79.1994 -79.1984
   -79.0249 -79.0249 -79.0248 -79.0248 -79.0243 -79.0242 -79.0203 -79.0203
   -79.0202 -79.0202 -79.0194 -79.0194 -79.0193 -79.0193 -79.0191 -79.0189
   -79.0180 -79.0179 -79.0176 -79.0176 -79.0175 -79.0175 -79.0175 -79.0175
   -79.0174 -79.0174 -79.0169 -79.0169 -79.0168 -79.0168 -79.0166 -79.0165
   -79.0158 -79.0158 -79.0158 -79.0158 -79.0155 -79.0155 -79.0154 -79.0154
   -79.0154 -79.0154 -79.0153 -79.0153 -79.0153 -79.0153 -79.0151 -79.0151
   -79.0150 -79.0150 -79.0145 -79.0144 -79.0114 -79.0114 -79.0113 -79.0113
   -79.0087 -79.0087 -79.0086 -79.0086 -79.0046 -79.0046 -79.0045 -79.0045
   -79.0043 -79.0043 -79.0042 -79.0042 -79.0020 -79.0020 -79.0019 -79.0019
   -79.0008 -79.0007 -78.9998 -78.9998 -78.9997 -78.9997 -78.9987 -78.9986
   -78.9961 -78.9960 -78.9958 -78.9958 -78.9958 -78.9958 -78.9939 -78.9939
   -78.9938 -78.9938 -78.9925 -78.9924 -78.9910 -78.9909 -78.9900 -78.9899
    -8.5047  -7.6212  -7.3008  -7.2491  -7.2491  -7.0297  -6.8987  -6.8725
    -6.8725  -6.8499  -6.8466  -6.8466  -6.7068  -6.6919  -6.6919  -6.6908
    -6.6753  -6.6625  -6.6381  -6.6381  -6.5899  -6.5806  -6.5774  -6.5774
    -6.5681  -6.5681  -6.5484  -6.5484  -6.5285  -6.5285  -6.5189  -6.5189
    -6.5169  -6.5124  -6.5124  -6.5092  -6.5092  -6.5027  -6.5027  -6.4869
    -6.4869  -6.4611  -6.4611  -6.4235  -6.4235  -6.3952  -6.3952  -6.3803
    -6.3803  -6.3759  -6.3220  -6.3172  -6.3172  -6.3157  -6.3157  -6.3152
    -6.3152  -6.2686  -6.2686  -6.2591  -6.2518  -6.2299  -6.2299  -6.2233
    -6.2233  -6.2218  -6.2217  -6.2217  -6.2082  -6.2082  -6.2047  -6.2047
    -6.1955  -6.1955  -6.1841  -6.1841  -6.1799  -6.1781  -6.1781  -6.1544
    -6.1383  -6.1235  -6.1235  -6.1141  -6.1141  -6.1006  -6.1006  -6.0934
    -6.0903  -6.0903  -6.0779  -6.0635  -6.0635  -6.0498  -6.0498  -6.0487
    -6.0487  -5.9589  -5.9589  -5.9587  -5.9587  -5.9433  -5.9407  -5.9368
    -5.9367  -5.9344  -5.9344  -5.9242  -5.9242  -5.9125  -5.9109  -5.9109
    -5.8928  -5.8928  -5.8889  -5.8854  -5.8817  -5.8739  -5.8739  -5.8682
    -5.8463  -5.8463  -5.8388  -5.8388  -5.8253  -5.8113  -5.7954  -5.7954
    -5.7950  -5.7950  -5.7864  -5.7864  -5.7765  -5.7765  -5.7761  -5.7728
    -5.7728  -5.7556  -5.7556  -5.7471  -5.7471  -5.7401  -5.7301  -5.7301
    -5.7140  -5.7126  -5.7126  -5.7047  -5.7047  -5.6970  -5.6970  -5.6949
    -5.6949  -5.6920  -5.6920  -5.6789  -5.6676  -5.6676  -5.6566  -5.6437
    -5.6393  -5.6393  -5.6329  -5.6329  -5.6180  -5.6180  -5.6173  -5.6158
    -5.6158  -5.6122  -5.6107  -5.6050  -5.6050  -5.5798  -5.5636  -5.5603
    -5.5603  -5.5559  -5.5559  -5.5475  -5.5475  -5.5449  -5.5449  -5.5433
    -5.5433  -5.5409  -5.5261  -5.5261  -5.5253  -5.5210  -5.5210  -5.5121
    -5.5121  -5.4910  -5.4910  -5.4622  -5.4599  -5.4576  -5.4576  -5.4537
    -5.4537  -5.4513  -5.4513  -5.4392  -5.4392  -5.4302  -5.4253  -5.4253
    -5.4229  -5.4189  -5.4138  -5.4136  -5.4018  -5.4018  -5.3990  -5.3990
    -5.3879  -5.3864  -5.3864  -5.3800  -5.3678  -5.3678  -5.3638  -5.3589
    -5.3452  -5.3452  -5.3407  -5.3318  -5.3202  -5.3202  -5.3140  -5.3108
    -5.3108  -5.3011  -5.3011  -5.2928  -5.2928  -5.2822  -5.2822  -5.1438
    -5.1438  -5.1289  -5.1289  -5.1234  -5.1234  -5.1050  -5.1043  -4.9476
    -4.9349  -4.6388  -4.6388  -3.8818  -3.8818  -3.4808  -3.3945  -3.3945
    -3.3657  -2.6741  -2.3023  -2.3023  -2.2229  -2.0220  -2.0220  -1.9721
    -1.9721  -1.5154  -1.5154  -1.2930  -1.2930  -1.1176  -0.7958  -0.5738
    -0.5738  -0.5617  -0.5617  -0.5528   0.0230   0.0230   0.2683   0.2683
     0.5591   0.5591   0.6328   0.8758   0.8975   0.8975   1.1829   1.1829
     1.5558   1.5558   2.2257   2.2257   2.6464   2.6958   2.6958   2.7203
     2.7818   2.7818   2.9492   2.9492   3.2193   3.5457   3.6898   3.6898
     3.9077   3.9077   4.1117   4.1844   4.1844   4.5558   4.5558   4.8010
     4.8010   4.8424   4.8424   5.1508   5.1508   5.1596   5.1596   5.1841
     5.3696   5.4256   5.4256   5.5676   5.6420   5.7928   5.7928   5.8063
     6.0861   6.0931   6.0931   6.2885   6.3103   6.3122   6.3122   6.5008
     6.5359   6.5359   6.5936   6.5936   6.7093   6.7473   6.7473   7.0094
     7.0094   7.0862   7.0862   7.1716   7.1716   7.2351   7.3081   7.3081
     7.3989   7.4208   7.4208   7.4464   7.4464   7.6559   7.6559   7.6571
     7.6571   7.6945   7.6945   7.7411   7.8461   7.8461   7.9450   7.9450
     8.0219   8.0219   8.1227   8.3072   8.3148   8.4708   8.6312   8.6312
     8.6956   8.6981   8.6981   8.8072   8.8072   8.8253   8.8253   8.8357

     occupation numbers 
     1.0000   1.0000   1.0000   1.0000   1.0000   1.0000   1.0000   1.0000
     1.0000   1.0000   1.0000   1.0000   1.0000   1.0000   1.0000   1.0000
     1.0000   1.0000   1.0000   1.0000   1.0000   1.0000   1.0000   1.0000
     1.0000   1.0000   1.0000   1.0000   1.0000   1.0000   1.0000   1.0000
     1.0000   1.0000   1.0000   1.0000   1.0000   1.0000   1.0000   1.0000
     1.0000   1.0000   1.0000   1.0000   1.0000   1.0000   1.0000   1.0000
     1.0000   1.0000   1.0000   1.0000   1.0000   1.0000   1.0000   1.0000
     1.0000   1.0000   1.0000   1.0000   1.0000   1.0000   1.0000   1.0000
     1.0000   1.0000   1.0000   1.0000   1.0000   1.0000   1.0000   1.0000
     1.0000   1.0000   1.0000   1.0000   1.0000   1.0000   1.0000   1.0000
     1.0000   1.0000   1.0000   1.0000   1.0000   1.0000   1.0000   1.0000
     1.0000   1.0000   1.0000   1.0000   1.0000   1.0000   1.0000   1.0000
     1.0000   1.0000   1.0000   1.0000   1.0000   1.0000   1.0000   1.0000
     1.0000   1.0000   1.0000   1.0000   1.0000   1.0000   1.0000   1.0000
     1.0000   1.0000   1.0000   1.0000   1.0000   1.0000   1.0000   1.0000
     1.0000   1.0000   1.0000   1.0000   1.0000   1.0000   1.0000   1.0000
     1.0000   1.0000   1.0000   1.0000   1.0000   1.0000   1.0000   1.0000
     1.0000   1.0000   1.0000   1.0000   1.0000   1.0000   1.0000   1.0000
     1.0000   1.0000   1.0000   1.0000   1.0000   1.0000   1.0000   1.0000
     1.0000   1.0000   1.0000   1.0000   1.0000   1.0000   1.0000   1.0000
     1.0000   1.0000   1.0000   1.0000   1.0000   1.0000   1.0000   1.0000
     1.0000   1.0000   1.0000   1.0000   1.0000   1.0000   1.0000   1.0000
     1.0000   1.0000   1.0000   1.0000   1.0000   1.0000   1.0000   1.0000
     1.0000   1.0000   1.0000   1.0000   1.0000   1.0000   1.0000   1.0000
     1.0000   1.0000   1.0000   1.0000   1.0000   1.0000   1.0000   1.0000
     1.0000   1.0000   1.0000   1.0000   1.0000   1.0000   1.0000   1.0000
     1.0000   1.0000   1.0000   1.0000   1.0000   1.0000   1.0000   1.0000
     1.0000   1.0000   1.0000   1.0000   1.0000   1.0000   1.0000   1.0000
     1.0000   1.0000   1.0000   1.0000   1.0000   1.0000   1.0000   1.0000
     1.0000   1.0000   1.0000   1.0000   1.0000   1.0000   1.0000   1.0000
     1.0000   1.0000   1.0000   1.0000   1.0000   1.0000   1.0000   1.0000
     1.0000   1.0000   1.0000   1.0000   1.0000   1.0000   1.0000   1.0000
     1.0000   1.0000   1.0000   1.0000   1.0000   1.0000   1.0000   1.0000
     1.0000   1.0000   1.0000   1.0000   1.0000   1.0000   1.0000   1.0000
     1.0000   1.0000   1.0000   1.0000   1.0000   1.0000   1.0000   1.0000
     1.0000   1.0000   1.0000   1.0000   1.0000   1.0000   1.0000   1.0000
     1.0000   1.0000   1.0000   1.0000   1.0000   1.0000   1.0000   1.0000
     1.0000   1.0000   1.0000   1.0000   1.0000   1.0000   1.0000   1.0000
     1.0000   1.0000   1.0000   1.0000   1.0000   1.0000   1.0000   1.0000
     1.0000   1.0000   1.0000   1.0000   1.0000   1.0000   1.0000   1.0000
     1.0000   1.0000   1.0000   1.0000   1.0000   1.0000   1.0000   1.0000
     1.0000   1.0000   1.0000   1.0000   1.0000   1.0000   1.0000   1.0000
     1.0000   1.0000   1.0000   1.0000   1.0000   1.0000   1.0000   1.0000
     1.0000   1.0000   1.0000   1.0000   1.0000   1.0000   1.0000   1.0000
     1.0000   1.0000   1.0000   1.0000   1.0000   1.0000   1.0000   1.0000
     1.0000   1.0000   1.0000   1.0000   1.0000   1.0000   1.0000   1.0000
     1.0000   1.0000   1.0000   1.0000   1.0000   1.0000   1.0000   1.0000
     1.0000   1.0000   1.0000   1.0000   1.0000   1.0000   1.0000   1.0000
     1.0000   1.0000   1.0000   1.0000   1.0000   1.0000   1.0000   1.0000
     1.0000   1.0000   1.0000   1.0000   1.0000   1.0000   1.0000   1.0000
     1.0000   1.0000   1.0000   1.0000   1.0000   1.0000   1.0000   1.0000
     1.0000   1.0000   1.0000   1.0000   1.0000   1.0000   1.0000   1.0000
     1.0000   1.0000   1.0000   1.0000   1.0000   1.0000   1.0000   1.0000
     1.0000   1.0000   1.0000   1.0000   1.0000   1.0000   1.0000   1.0000
     1.0000   1.0000   1.0000   1.0000   1.0000   1.0000   1.0000   1.0000
     1.0000   1.0000   1.0000   1.0000   1.0000   1.0000   1.0000   1.0000
     1.0000   1.0000   1.0000   1.0000   1.0000   1.0000   1.0000   1.0000
     1.0000   1.0000   1.0000   1.0000   1.0000   1.0000   1.0000   1.0000
     1.0000   1.0000   1.0000   1.0000   1.0000   1.0000   1.0000   1.0000
     1.0006   1.0006   1.0019   1.0374   1.0443   1.0443   0.9983   0.9983
     0.1540   0.1540   0.0000   0.0000   0.0000   0.0000   0.0000   0.0000
     0.0000   0.0000   0.0000   0.0000   0.0000   0.0000   0.0000   0.0000
     0.0000   0.0000   0.0000   0.0000   0.0000   0.0000   0.0000   0.0000
     0.0000   0.0000   0.0000   0.0000   0.0000   0.0000   0.0000   0.0000
     0.0000   0.0000   0.0000   0.0000   0.0000   0.0000   0.0000   0.0000
     0.0000   0.0000   0.0000   0.0000   0.0000   0.0000   0.0000   0.0000
     0.0000   0.0000   0.0000   0.0000   0.0000   0.0000   0.0000   0.0000
     0.0000   0.0000   0.0000   0.0000   0.0000   0.0000   0.0000   0.0000
     0.0000   0.0000   0.0000   0.0000   0.0000   0.0000   0.0000   0.0000
     0.0000   0.0000   0.0000   0.0000   0.0000   0.0000   0.0000   0.0000
     0.0000   0.0000   0.0000   0.0000   0.0000   0.0000   0.0000   0.0000
     0.0000   0.0000   0.0000   0.0000   0.0000   0.0000   0.0000   0.0000

          k = 0.0000-0.5774 0.0000 ( 64842 PWs)   bands (ev):

  -125.0671-125.0671-125.0662-125.0662-125.0650-125.0650-125.0650-125.0650
  -125.0646-125.0646-125.0641-125.0641-125.0641-125.0641-125.0638-125.0638
  -124.8619-124.8619-124.8618-124.8618-124.8610-124.8610-124.8609-124.8609
  -124.8598-124.8598-124.8598-124.8598-124.8597-124.8597-124.8597-124.8597
  -124.8594-124.8594-124.8593-124.8593-124.8589-124.8589-124.8589-124.8589
  -124.8588-124.8588-124.8588-124.8588-124.8585-124.8585-124.8584-124.8584
   -79.2313 -79.2313 -79.2313 -79.2313 -79.2289 -79.2289 -79.2278 -79.2278
   -79.2233 -79.2233 -79.2233 -79.2233 -79.2184 -79.2184 -79.2156 -79.2155
   -79.2146 -79.2146 -79.2132 -79.2132 -79.2132 -79.2132 -79.2128 -79.2127
   -79.2122 -79.2122 -79.2122 -79.2122 -79.2118 -79.2118 -79.2118 -79.2118
   -79.2103 -79.2102 -79.2102 -79.2102 -79.2069 -79.2069 -79.2069 -79.2069
   -79.2061 -79.2061 -79.2033 -79.2033 -79.2023 -79.2023 -79.1994 -79.1994
   -79.0228 -79.0228 -79.0228 -79.0228 -79.0227 -79.0227 -79.0227 -79.0227
   -79.0204 -79.0204 -79.0203 -79.0203 -79.0193 -79.0193 -79.0193 -79.0193
   -79.0187 -79.0187 -79.0185 -79.0185 -79.0177 -79.0177 -79.0176 -79.0176
   -79.0163 -79.0163 -79.0163 -79.0163 -79.0163 -79.0163 -79.0163 -79.0163
   -79.0159 -79.0159 -79.0159 -79.0159 -79.0154 -79.0154 -79.0154 -79.0154
   -79.0153 -79.0153 -79.0153 -79.0153 -79.0150 -79.0150 -79.0149 -79.0149
   -79.0148 -79.0148 -79.0148 -79.0148 -79.0147 -79.0147 -79.0147 -79.0147
   -79.0099 -79.0099 -79.0098 -79.0098 -79.0034 -79.0034 -79.0033 -79.0033
   -79.0018 -79.0018 -79.0018 -79.0018 -79.0017 -79.0017 -79.0017 -79.0017
   -78.9985 -78.9985 -78.9985 -78.9985 -78.9984 -78.9984 -78.9984 -78.9984
   -78.9977 -78.9977 -78.9976 -78.9976 -78.9949 -78.9949 -78.9948 -78.9948
   -78.9939 -78.9939 -78.9938 -78.9938 -78.9910 -78.9910 -78.9909 -78.9909
    -8.1568  -8.1568  -7.3179  -7.3179  -7.0262  -7.0262  -6.8642  -6.8642
    -6.8602  -6.8601  -6.7501  -6.7501  -6.7501  -6.7501  -6.6538  -6.6538
    -6.6475  -6.6475  -6.6475  -6.6475  -6.6245  -6.6245  -6.6073  -6.6073
    -6.6073  -6.6073  -6.5538  -6.5538  -6.5287  -6.5287  -6.5287  -6.5287
    -6.5063  -6.5063  -6.4878  -6.4878  -6.4878  -6.4878  -6.4633  -6.4633
    -6.4633  -6.4633  -6.4608  -6.4608  -6.4500  -6.4500  -6.4265  -6.4265
    -6.4217  -6.4217  -6.4217  -6.4217  -6.3102  -6.3102  -6.3018  -6.3018
    -6.2928  -6.2928  -6.2928  -6.2928  -6.2916  -6.2916  -6.2706  -6.2706
    -6.2706  -6.2706  -6.2363  -6.2363  -6.2211  -6.2211  -6.2211  -6.2211
    -6.2062  -6.2062  -6.2010  -6.2010  -6.1704  -6.1704  -6.1417  -6.1417
    -6.1115  -6.1115  -6.1032  -6.1032  -6.0824  -6.0824  -6.0824  -6.0824
    -6.0618  -6.0618  -6.0618  -6.0618  -6.0416  -6.0416  -6.0320  -6.0320
    -6.0259  -6.0259  -6.0220  -6.0220  -6.0095  -6.0095  -5.9898  -5.9898
    -5.9898  -5.9898  -5.9467  -5.9467  -5.9453  -5.9453  -5.9151  -5.9151
    -5.9051  -5.9051  -5.8720  -5.8720  -5.8720  -5.8720  -5.8146  -5.8146
    -5.8092  -5.8092  -5.8083  -5.8083  -5.8083  -5.8083  -5.8053  -5.8053
    -5.7871  -5.7871  -5.7844  -5.7844  -5.7757  -5.7757  -5.7757  -5.7757
    -5.7677  -5.7677  -5.7671  -5.7671  -5.7671  -5.7671  -5.7560  -5.7560
    -5.7537  -5.7537  -5.7537  -5.7537  -5.6749  -5.6749  -5.6735  -5.6735
    -5.6669  -5.6669  -5.6453  -5.6453  -5.6453  -5.6453  -5.6311  -5.6311
    -5.6234  -5.6234  -5.6043  -5.6043  -5.6043  -5.6043  -5.5941  -5.5941
    -5.5700  -5.5700  -5.5432  -5.5432  -5.5287  -5.5287  -5.5287  -5.5287
    -5.5260  -5.5260  -5.5260  -5.5260  -5.5227  -5.5227  -5.5206  -5.5205
    -5.4987  -5.4987  -5.4987  -5.4987  -5.4885  -5.4885  -5.4878  -5.4878
    -5.4864  -5.4864  -5.4787  -5.4787  -5.4637  -5.4637  -5.4637  -5.4637
    -5.4507  -5.4507  -5.4507  -5.4507  -5.4394  -5.4394  -5.4224  -5.4224
    -5.4154  -5.4154  -5.4154  -5.4154  -5.4120  -5.4120  -5.4114  -5.4114
    -5.4046  -5.4046  -5.4021  -5.4021  -5.4004  -5.4003  -5.3701  -5.3701
    -5.3625  -5.3625  -5.3625  -5.3625  -5.3238  -5.3238  -5.3238  -5.3238
    -5.2537  -5.2537  -5.2537  -5.2537  -5.2354  -5.2354  -5.2339  -5.2339
    -5.2339  -5.2339  -5.2009  -5.2009  -5.1982  -5.1982  -4.7026  -4.7026
    -4.4189  -4.4189  -4.4188  -4.4188  -3.7290  -3.7290  -3.1110  -3.1109
    -3.0623  -3.0623  -3.0623  -3.0623  -2.3919  -2.3919  -2.2406  -2.2406
    -1.7587  -1.7587  -1.7587  -1.7587  -0.7559  -0.7559  -0.7559  -0.7559
    -0.3262  -0.3262  -0.3262  -0.3262  -0.0909  -0.0909   0.0125   0.0125
     1.0204   1.0204   1.0486   1.0486   1.3373   1.3373   1.3693   1.3693
     1.3693   1.3693   2.2229   2.2229   2.8992   2.8992   2.8992   2.8992
     3.1011   3.1011   3.1011   3.1011   3.3215   3.3215   3.5547   3.5547
     3.8659   3.8659   3.8659   3.8659   3.9977   3.9977   4.2572   4.2572
     4.4467   4.4467   4.7453   4.7453   4.8573   4.8573   5.4817   5.4817
     5.5227   5.5227   5.7144   5.7144   5.8003   5.8003   5.9290   5.9290
     5.9290   5.9290   5.9825   5.9825   5.9825   5.9825   6.1535   6.1535
     6.1535   6.1535   6.4243   6.4243   6.5590   6.5590   6.6328   6.6328
     6.6579   6.6579   6.8381   6.8381   6.8661   6.8661   7.0129   7.0129
     7.0129   7.0129   7.5806   7.5806   7.7355   7.7355   8.0638   8.0638
     8.0890   8.0890   8.0890   8.0890   8.2783   8.2783   8.4660   8.4660
     8.4660   8.4660   8.6242   8.6242   8.6242   8.6242   8.6606   8.6606
     8.7359   8.7359   8.8049   8.8049   8.9990   8.9990   8.9990   8.9990

     occupation numbers 
     1.0000   1.0000   1.0000   1.0000   1.0000   1.0000   1.0000   1.0000
     1.0000   1.0000   1.0000   1.0000   1.0000   1.0000   1.0000   1.0000
     1.0000   1.0000   1.0000   1.0000   1.0000   1.0000   1.0000   1.0000
     1.0000   1.0000   1.0000   1.0000   1.0000   1.0000   1.0000   1.0000
     1.0000   1.0000   1.0000   1.0000   1.0000   1.0000   1.0000   1.0000
     1.0000   1.0000   1.0000   1.0000   1.0000   1.0000   1.0000   1.0000
     1.0000   1.0000   1.0000   1.0000   1.0000   1.0000   1.0000   1.0000
     1.0000   1.0000   1.0000   1.0000   1.0000   1.0000   1.0000   1.0000
     1.0000   1.0000   1.0000   1.0000   1.0000   1.0000   1.0000   1.0000
     1.0000   1.0000   1.0000   1.0000   1.0000   1.0000   1.0000   1.0000
     1.0000   1.0000   1.0000   1.0000   1.0000   1.0000   1.0000   1.0000
     1.0000   1.0000   1.0000   1.0000   1.0000   1.0000   1.0000   1.0000
     1.0000   1.0000   1.0000   1.0000   1.0000   1.0000   1.0000   1.0000
     1.0000   1.0000   1.0000   1.0000   1.0000   1.0000   1.0000   1.0000
     1.0000   1.0000   1.0000   1.0000   1.0000   1.0000   1.0000   1.0000
     1.0000   1.0000   1.0000   1.0000   1.0000   1.0000   1.0000   1.0000
     1.0000   1.0000   1.0000   1.0000   1.0000   1.0000   1.0000   1.0000
     1.0000   1.0000   1.0000   1.0000   1.0000   1.0000   1.0000   1.0000
     1.0000   1.0000   1.0000   1.0000   1.0000   1.0000   1.0000   1.0000
     1.0000   1.0000   1.0000   1.0000   1.0000   1.0000   1.0000   1.0000
     1.0000   1.0000   1.0000   1.0000   1.0000   1.0000   1.0000   1.0000
     1.0000   1.0000   1.0000   1.0000   1.0000   1.0000   1.0000   1.0000
     1.0000   1.0000   1.0000   1.0000   1.0000   1.0000   1.0000   1.0000
     1.0000   1.0000   1.0000   1.0000   1.0000   1.0000   1.0000   1.0000
     1.0000   1.0000   1.0000   1.0000   1.0000   1.0000   1.0000   1.0000
     1.0000   1.0000   1.0000   1.0000   1.0000   1.0000   1.0000   1.0000
     1.0000   1.0000   1.0000   1.0000   1.0000   1.0000   1.0000   1.0000
     1.0000   1.0000   1.0000   1.0000   1.0000   1.0000   1.0000   1.0000
     1.0000   1.0000   1.0000   1.0000   1.0000   1.0000   1.0000   1.0000
     1.0000   1.0000   1.0000   1.0000   1.0000   1.0000   1.0000   1.0000
     1.0000   1.0000   1.0000   1.0000   1.0000   1.0000   1.0000   1.0000
     1.0000   1.0000   1.0000   1.0000   1.0000   1.0000   1.0000   1.0000
     1.0000   1.0000   1.0000   1.0000   1.0000   1.0000   1.0000   1.0000
     1.0000   1.0000   1.0000   1.0000   1.0000   1.0000   1.0000   1.0000
     1.0000   1.0000   1.0000   1.0000   1.0000   1.0000   1.0000   1.0000
     1.0000   1.0000   1.0000   1.0000   1.0000   1.0000   1.0000   1.0000
     1.0000   1.0000   1.0000   1.0000   1.0000   1.0000   1.0000   1.0000
     1.0000   1.0000   1.0000   1.0000   1.0000   1.0000   1.0000   1.0000
     1.0000   1.0000   1.0000   1.0000   1.0000   1.0000   1.0000   1.0000
     1.0000   1.0000   1.0000   1.0000   1.0000   1.0000   1.0000   1.0000
     1.0000   1.0000   1.0000   1.0000   1.0000   1.0000   1.0000   1.0000
     1.0000   1.0000   1.0000   1.0000   1.0000   1.0000   1.0000   1.0000
     1.0000   1.0000   1.0000   1.0000   1.0000   1.0000   1.0000   1.0000
     1.0000   1.0000   1.0000   1.0000   1.0000   1.0000   1.0000   1.0000
     1.0000   1.0000   1.0000   1.0000   1.0000   1.0000   1.0000   1.0000
     1.0000   1.0000   1.0000   1.0000   1.0000   1.0000   1.0000   1.0000
     1.0000   1.0000   1.0000   1.0000   1.0000   1.0000   1.0000   1.0000
     1.0000   1.0000   1.0000   1.0000   1.0000   1.0000   1.0000   1.0000
     1.0000   1.0000   1.0000   1.0000   1.0000   1.0000   1.0000   1.0000
     1.0000   1.0000   1.0000   1.0000   1.0000   1.0000   1.0000   1.0000
     1.0000   1.0000   1.0000   1.0000   1.0000   1.0000   1.0000   1.0000
     1.0000   1.0000   1.0000   1.0000   1.0000   1.0000   1.0000   1.0000
     1.0000   1.0000   1.0000   1.0000   1.0000   1.0000   1.0000   1.0000
     1.0000   1.0000   1.0000   1.0000   1.0000   1.0000   1.0000   1.0000
     1.0000   1.0000   1.0000   1.0000   1.0000   1.0000   1.0000   1.0000
     1.0000   1.0000   1.0000   1.0000   1.0000   1.0000   1.0000   1.0000
     1.0000   1.0000   1.0000   1.0000   1.0000   1.0000   1.0000   1.0000
     1.0000   1.0000   1.0000   1.0000   1.0000   1.0000   1.0000   1.0000
     1.0000   1.0000   1.0000   1.0000   1.0000   1.0000   1.0000   1.0000
     1.0812   1.0812   1.0833   1.0833   0.6574   0.6574   0.5689   0.5689
     0.5689   0.5689   0.0000   0.0000   0.0000   0.0000   0.0000   0.0000
     0.0000   0.0000   0.0000   0.0000   0.0000   0.0000   0.0000   0.0000
     0.0000   0.0000   0.0000   0.0000   0.0000   0.0000   0.0000   0.0000
     0.0000   0.0000   0.0000   0.0000   0.0000   0.0000   0.0000   0.0000
     0.0000   0.0000   0.0000   0.0000   0.0000   0.0000   0.0000   0.0000
     0.0000   0.0000   0.0000   0.0000   0.0000   0.0000   0.0000   0.0000
     0.0000   0.0000   0.0000   0.0000   0.0000   0.0000   0.0000   0.0000
     0.0000   0.0000   0.0000   0.0000   0.0000   0.0000   0.0000   0.0000
     0.0000   0.0000   0.0000   0.0000   0.0000   0.0000   0.0000   0.0000
     0.0000   0.0000   0.0000   0.0000   0.0000   0.0000   0.0000   0.0000
     0.0000   0.0000   0.0000   0.0000   0.0000   0.0000   0.0000   0.0000
     0.0000   0.0000   0.0000   0.0000   0.0000   0.0000   0.0000   0.0000

          k = 0.2500 0.1443 0.0000 ( 64808 PWs)   bands (ev):

  -125.0675-125.0665-125.0661-125.0661-125.0655-125.0655-125.0652-125.0645
  -125.0645-125.0643-125.0641-125.0641-125.0641-125.0641-125.0639-125.0639
  -124.8622-124.8622-124.8613-124.8612-124.8609-124.8609-124.8608-124.8608
  -124.8602-124.8602-124.8602-124.8602-124.8600-124.8599-124.8593-124.8593
  -124.8592-124.8592-124.8590-124.8589-124.8589-124.8589-124.8589-124.8589
  -124.8588-124.8588-124.8588-124.8588-124.8586-124.8586-124.8585-124.8585
   -79.2334 -79.2334 -79.2328 -79.2288 -79.2288 -79.2279 -79.2279 -79.2260
   -79.2260 -79.2230 -79.2198 -79.2198 -79.2171 -79.2171 -79.2160 -79.2149
   -79.2145 -79.2145 -79.2137 -79.2137 -79.2134 -79.2131 -79.2131 -79.2128
   -79.2128 -79.2126 -79.2126 -79.2123 -79.2122 -79.2122 -79.2122 -79.2122
   -79.2119 -79.2119 -79.2104 -79.2104 -79.2092 -79.2082 -79.2082 -79.2071
   -79.2046 -79.2043 -79.2043 -79.2023 -79.2023 -79.2009 -79.1994 -79.1984
   -79.0249 -79.0249 -79.0248 -79.0248 -79.0243 -79.0242 -79.0203 -79.0203
   -79.0202 -79.0202 -79.0194 -79.0194 -79.0193 -79.0193 -79.0191 -79.0189
   -79.0180 -79.0179 -79.0176 -79.0176 -79.0175 -79.0175 -79.0175 -79.0175
   -79.0174 -79.0174 -79.0169 -79.0169 -79.0168 -79.0168 -79.0166 -79.0165
   -79.0158 -79.0158 -79.0158 -79.0158 -79.0155 -79.0155 -79.0154 -79.0154
   -79.0154 -79.0154 -79.0153 -79.0153 -79.0153 -79.0153 -79.0151 -79.0151
   -79.0150 -79.0150 -79.0145 -79.0145 -79.0114 -79.0114 -79.0113 -79.0113
   -79.0087 -79.0087 -79.0086 -79.0086 -79.0046 -79.0046 -79.0045 -79.0045
   -79.0043 -79.0043 -79.0042 -79.0042 -79.0020 -79.0020 -79.0019 -79.0019
   -79.0008 -79.0007 -78.9998 -78.9998 -78.9997 -78.9997 -78.9987 -78.9986
   -78.9961 -78.9960 -78.9958 -78.9958 -78.9958 -78.9958 -78.9939 -78.9939
   -78.9938 -78.9938 -78.9925 -78.9924 -78.9910 -78.9909 -78.9900 -78.9899
    -8.5047  -7.6212  -7.3008  -7.2491  -7.2491  -7.0297  -6.8987  -6.8725
    -6.8725  -6.8499  -6.8466  -6.8466  -6.7068  -6.6919  -6.6919  -6.6908
    -6.6753  -6.6625  -6.6381  -6.6381  -6.5899  -6.5806  -6.5774  -6.5774
    -6.5681  -6.5681  -6.5484  -6.5484  -6.5285  -6.5285  -6.5189  -6.5189
    -6.5169  -6.5124  -6.5124  -6.5092  -6.5092  -6.5027  -6.5027  -6.4869
    -6.4869  -6.4611  -6.4611  -6.4235  -6.4235  -6.3952  -6.3952  -6.3803
    -6.3803  -6.3759  -6.3220  -6.3172  -6.3172  -6.3157  -6.3157  -6.3152
    -6.3152  -6.2686  -6.2686  -6.2591  -6.2518  -6.2299  -6.2299  -6.2233
    -6.2233  -6.2218  -6.2217  -6.2217  -6.2082  -6.2082  -6.2047  -6.2047
    -6.1955  -6.1955  -6.1841  -6.1841  -6.1799  -6.1781  -6.1781  -6.1544
    -6.1383  -6.1235  -6.1235  -6.1141  -6.1141  -6.1006  -6.1006  -6.0934
    -6.0903  -6.0903  -6.0779  -6.0635  -6.0635  -6.0498  -6.0498  -6.0487
    -6.0487  -5.9589  -5.9589  -5.9587  -5.9587  -5.9433  -5.9407  -5.9368
    -5.9367  -5.9344  -5.9344  -5.9242  -5.9242  -5.9125  -5.9109  -5.9109
    -5.8928  -5.8928  -5.8889  -5.8854  -5.8817  -5.8739  -5.8739  -5.8682
    -5.8463  -5.8463  -5.8388  -5.8388  -5.8253  -5.8113  -5.7954  -5.7954
    -5.7950  -5.7950  -5.7864  -5.7864  -5.7765  -5.7765  -5.7761  -5.7728
    -5.7728  -5.7556  -5.7556  -5.7471  -5.7471  -5.7401  -5.7301  -5.7301
    -5.7140  -5.7126  -5.7126  -5.7047  -5.7047  -5.6970  -5.6970  -5.6949
    -5.6949  -5.6920  -5.6920  -5.6789  -5.6676  -5.6676  -5.6566  -5.6437
    -5.6393  -5.6393  -5.6329  -5.6329  -5.6180  -5.6180  -5.6173  -5.6158
    -5.6158  -5.6122  -5.6107  -5.6050  -5.6050  -5.5798  -5.5636  -5.5603
    -5.5603  -5.5559  -5.5559  -5.5475  -5.5475  -5.5449  -5.5449  -5.5433
    -5.5433  -5.5409  -5.5261  -5.5261  -5.5253  -5.5210  -5.5210  -5.5121
    -5.5121  -5.4910  -5.4910  -5.4622  -5.4599  -5.4576  -5.4576  -5.4537
    -5.4537  -5.4513  -5.4513  -5.4392  -5.4392  -5.4302  -5.4253  -5.4253
    -5.4229  -5.4189  -5.4138  -5.4136  -5.4018  -5.4018  -5.3990  -5.3990
    -5.3879  -5.3864  -5.3864  -5.3800  -5.3678  -5.3678  -5.3638  -5.3589
    -5.3452  -5.3452  -5.3407  -5.3318  -5.3202  -5.3202  -5.3140  -5.3108
    -5.3108  -5.3011  -5.3011  -5.2928  -5.2928  -5.2822  -5.2822  -5.1438
    -5.1438  -5.1289  -5.1289  -5.1234  -5.1234  -5.1050  -5.1043  -4.9476
    -4.9349  -4.6388  -4.6388  -3.8818  -3.8818  -3.4808  -3.3945  -3.3945
    -3.3657  -2.6741  -2.3023  -2.3023  -2.2229  -2.0220  -2.0220  -1.9721
    -1.9721  -1.5154  -1.5154  -1.2930  -1.2930  -1.1176  -0.7958  -0.5738
    -0.5738  -0.5617  -0.5617  -0.5528   0.0230   0.0230   0.2683   0.2683
     0.5591   0.5591   0.6328   0.8758   0.8975   0.8975   1.1829   1.1829
     1.5558   1.5558   2.2257   2.2257   2.6464   2.6958   2.6958   2.7203
     2.7818   2.7818   2.9492   2.9492   3.2193   3.5457   3.6898   3.6898
     3.9077   3.9077   4.1117   4.1844   4.1844   4.5558   4.5558   4.8010
     4.8010   4.8424   4.8424   5.1508   5.1508   5.1596   5.1596   5.1841
     5.3696   5.4256   5.4256   5.5676   5.6420   5.7928   5.7928   5.8063
     6.0861   6.0931   6.0931   6.2885   6.3103   6.3122   6.3122   6.5008
     6.5359   6.5359   6.5936   6.5936   6.7093   6.7473   6.7473   7.0094
     7.0094   7.0862   7.0862   7.1716   7.1716   7.2351   7.3081   7.3081
     7.3989   7.4208   7.4208   7.4464   7.4464   7.6559   7.6559   7.6571
     7.6571   7.6945   7.6945   7.7411   7.8461   7.8461   7.9450   7.9450
     8.0219   8.0219   8.1228   8.3072   8.3147   8.4708   8.6312   8.6312
     8.6956   8.6981   8.6981   8.8072   8.8072   8.8253   8.8253   8.8357

     occupation numbers 
     1.0000   1.0000   1.0000   1.0000   1.0000   1.0000   1.0000   1.0000
     1.0000   1.0000   1.0000   1.0000   1.0000   1.0000   1.0000   1.0000
     1.0000   1.0000   1.0000   1.0000   1.0000   1.0000   1.0000   1.0000
     1.0000   1.0000   1.0000   1.0000   1.0000   1.0000   1.0000   1.0000
     1.0000   1.0000   1.0000   1.0000   1.0000   1.0000   1.0000   1.0000
     1.0000   1.0000   1.0000   1.0000   1.0000   1.0000   1.0000   1.0000
     1.0000   1.0000   1.0000   1.0000   1.0000   1.0000   1.0000   1.0000
     1.0000   1.0000   1.0000   1.0000   1.0000   1.0000   1.0000   1.0000
     1.0000   1.0000   1.0000   1.0000   1.0000   1.0000   1.0000   1.0000
     1.0000   1.0000   1.0000   1.0000   1.0000   1.0000   1.0000   1.0000
     1.0000   1.0000   1.0000   1.0000   1.0000   1.0000   1.0000   1.0000
     1.0000   1.0000   1.0000   1.0000   1.0000   1.0000   1.0000   1.0000
     1.0000   1.0000   1.0000   1.0000   1.0000   1.0000   1.0000   1.0000
     1.0000   1.0000   1.0000   1.0000   1.0000   1.0000   1.0000   1.0000
     1.0000   1.0000   1.0000   1.0000   1.0000   1.0000   1.0000   1.0000
     1.0000   1.0000   1.0000   1.0000   1.0000   1.0000   1.0000   1.0000
     1.0000   1.0000   1.0000   1.0000   1.0000   1.0000   1.0000   1.0000
     1.0000   1.0000   1.0000   1.0000   1.0000   1.0000   1.0000   1.0000
     1.0000   1.0000   1.0000   1.0000   1.0000   1.0000   1.0000   1.0000
     1.0000   1.0000   1.0000   1.0000   1.0000   1.0000   1.0000   1.0000
     1.0000   1.0000   1.0000   1.0000   1.0000   1.0000   1.0000   1.0000
     1.0000   1.0000   1.0000   1.0000   1.0000   1.0000   1.0000   1.0000
     1.0000   1.0000   1.0000   1.0000   1.0000   1.0000   1.0000   1.0000
     1.0000   1.0000   1.0000   1.0000   1.0000   1.0000   1.0000   1.0000
     1.0000   1.0000   1.0000   1.0000   1.0000   1.0000   1.0000   1.0000
     1.0000   1.0000   1.0000   1.0000   1.0000   1.0000   1.0000   1.0000
     1.0000   1.0000   1.0000   1.0000   1.0000   1.0000   1.0000   1.0000
     1.0000   1.0000   1.0000   1.0000   1.0000   1.0000   1.0000   1.0000
     1.0000   1.0000   1.0000   1.0000   1.0000   1.0000   1.0000   1.0000
     1.0000   1.0000   1.0000   1.0000   1.0000   1.0000   1.0000   1.0000
     1.0000   1.0000   1.0000   1.0000   1.0000   1.0000   1.0000   1.0000
     1.0000   1.0000   1.0000   1.0000   1.0000   1.0000   1.0000   1.0000
     1.0000   1.0000   1.0000   1.0000   1.0000   1.0000   1.0000   1.0000
     1.0000   1.0000   1.0000   1.0000   1.0000   1.0000   1.0000   1.0000
     1.0000   1.0000   1.0000   1.0000   1.0000   1.0000   1.0000   1.0000
     1.0000   1.0000   1.0000   1.0000   1.0000   1.0000   1.0000   1.0000
     1.0000   1.0000   1.0000   1.0000   1.0000   1.0000   1.0000   1.0000
     1.0000   1.0000   1.0000   1.0000   1.0000   1.0000   1.0000   1.0000
     1.0000   1.0000   1.0000   1.0000   1.0000   1.0000   1.0000   1.0000
     1.0000   1.0000   1.0000   1.0000   1.0000   1.0000   1.0000   1.0000
     1.0000   1.0000   1.0000   1.0000   1.0000   1.0000   1.0000   1.0000
     1.0000   1.0000   1.0000   1.0000   1.0000   1.0000   1.0000   1.0000
     1.0000   1.0000   1.0000   1.0000   1.0000   1.0000   1.0000   1.0000
     1.0000   1.0000   1.0000   1.0000   1.0000   1.0000   1.0000   1.0000
     1.0000   1.0000   1.0000   1.0000   1.0000   1.0000   1.0000   1.0000
     1.0000   1.0000   1.0000   1.0000   1.0000   1.0000   1.0000   1.0000
     1.0000   1.0000   1.0000   1.0000   1.0000   1.0000   1.0000   1.0000
     1.0000   1.0000   1.0000   1.0000   1.0000   1.0000   1.0000   1.0000
     1.0000   1.0000   1.0000   1.0000   1.0000   1.0000   1.0000   1.0000
     1.0000   1.0000   1.0000   1.0000   1.0000   1.0000   1.0000   1.0000
     1.0000   1.0000   1.0000   1.0000   1.0000   1.0000   1.0000   1.0000
     1.0000   1.0000   1.0000   1.0000   1.0000   1.0000   1.0000   1.0000
     1.0000   1.0000   1.0000   1.0000   1.0000   1.0000   1.0000   1.0000
     1.0000   1.0000   1.0000   1.0000   1.0000   1.0000   1.0000   1.0000
     1.0000   1.0000   1.0000   1.0000   1.0000   1.0000   1.0000   1.0000
     1.0000   1.0000   1.0000   1.0000   1.0000   1.0000   1.0000   1.0000
     1.0000   1.0000   1.0000   1.0000   1.0000   1.0000   1.0000   1.0000
     1.0000   1.0000   1.0000   1.0000   1.0000   1.0000   1.0000   1.0000
     1.0000   1.0000   1.0000   1.0000   1.0000   1.0000   1.0000   1.0000
     1.0006   1.0006   1.0019   1.0374   1.0443   1.0443   0.9983   0.9983
     0.1540   0.1540   0.0000   0.0000   0.0000   0.0000   0.0000   0.0000
     0.0000   0.0000   0.0000   0.0000   0.0000   0.0000   0.0000   0.0000
     0.0000   0.0000   0.0000   0.0000   0.0000   0.0000   0.0000   0.0000
     0.0000   0.0000   0.0000   0.0000   0.0000   0.0000   0.0000   0.0000
     0.0000   0.0000   0.0000   0.0000   0.0000   0.0000   0.0000   0.0000
     0.0000   0.0000   0.0000   0.0000   0.0000   0.0000   0.0000   0.0000
     0.0000   0.0000   0.0000   0.0000   0.0000   0.0000   0.0000   0.0000
     0.0000   0.0000   0.0000   0.0000   0.0000   0.0000   0.0000   0.0000
     0.0000   0.0000   0.0000   0.0000   0.0000   0.0000   0.0000   0.0000
     0.0000   0.0000   0.0000   0.0000   0.0000   0.0000   0.0000   0.0000
     0.0000   0.0000   0.0000   0.0000   0.0000   0.0000   0.0000   0.0000
     0.0000   0.0000   0.0000   0.0000   0.0000   0.0000   0.0000   0.0000

          k = 0.2500 0.4330 0.0000 ( 64876 PWs)   bands (ev):

  -125.0672-125.0668-125.0667-125.0656-125.0656-125.0651-125.0649-125.0649
  -125.0645-125.0645-125.0644-125.0644-125.0640-125.0639-125.0639-125.0637
  -124.8620-124.8619-124.8615-124.8615-124.8614-124.8614-124.8604-124.8604
  -124.8603-124.8603-124.8598-124.8597-124.8596-124.8596-124.8595-124.8595
  -124.8592-124.8592-124.8592-124.8592-124.8591-124.8591-124.8591-124.8591
  -124.8588-124.8587-124.8587-124.8587-124.8586-124.8586-124.8585-124.8584
   -79.2324 -79.2308 -79.2308 -79.2303 -79.2303 -79.2281 -79.2281 -79.2260
   -79.2260 -79.2256 -79.2221 -79.2213 -79.2176 -79.2176 -79.2157 -79.2152
   -79.2152 -79.2141 -79.2141 -79.2139 -79.2139 -79.2132 -79.2130 -79.2130
   -79.2126 -79.2126 -79.2125 -79.2125 -79.2120 -79.2119 -79.2119 -79.2117
   -79.2107 -79.2089 -79.2089 -79.2075 -79.2075 -79.2075 -79.2068 -79.2068
   -79.2061 -79.2061 -79.2046 -79.2046 -79.2020 -79.2005 -79.2005 -79.1991
   -79.0240 -79.0239 -79.0223 -79.0223 -79.0222 -79.0222 -79.0218 -79.0218
   -79.0217 -79.0217 -79.0196 -79.0196 -79.0195 -79.0195 -79.0188 -79.0186
   -79.0183 -79.0183 -79.0181 -79.0181 -79.0176 -79.0176 -79.0175 -79.0175
   -79.0171 -79.0170 -79.0170 -79.0170 -79.0169 -79.0169 -79.0164 -79.0163
   -79.0162 -79.0162 -79.0161 -79.0161 -79.0158 -79.0158 -79.0157 -79.0157
   -79.0157 -79.0157 -79.0156 -79.0156 -79.0153 -79.0152 -79.0152 -79.0152
   -79.0151 -79.0151 -79.0150 -79.0149 -79.0136 -79.0135 -79.0128 -79.0127
   -79.0091 -79.0091 -79.0090 -79.0090 -79.0057 -79.0056 -79.0056 -79.0056
   -79.0023 -79.0022 -79.0005 -79.0005 -79.0004 -79.0004 -78.9991 -78.9990
   -78.9990 -78.9990 -78.9990 -78.9990 -78.9984 -78.9984 -78.9983 -78.9983
   -78.9977 -78.9977 -78.9976 -78.9976 -78.9962 -78.9962 -78.9961 -78.9961
   -78.9936 -78.9935 -78.9921 -78.9921 -78.9920 -78.9920 -78.9907 -78.9906
    -8.2709  -7.8241  -7.8241  -7.1122  -6.9146  -6.8404  -6.8404  -6.8043
    -6.8043  -6.7975  -6.7975  -6.7932  -6.7932  -6.7692  -6.7279  -6.7279
    -6.6988  -6.6988  -6.6553  -6.6553  -6.6235  -6.6091  -6.6091  -6.6048
    -6.6048  -6.5882  -6.5882  -6.5679  -6.5679  -6.5602  -6.5602  -6.5437
    -6.5346  -6.5346  -6.4918  -6.4918  -6.4719  -6.4719  -6.4695  -6.4621
    -6.4621  -6.4406  -6.4398  -6.4179  -6.4127  -6.4127  -6.4119  -6.4119
    -6.4030  -6.4030  -6.3926  -6.3696  -6.3696  -6.3127  -6.3017  -6.3017
    -6.2971  -6.2971  -6.2923  -6.2923  -6.2919  -6.2784  -6.2673  -6.2631
    -6.2631  -6.2551  -6.2489  -6.2489  -6.2440  -6.2440  -6.2419  -6.2221
    -6.2221  -6.2018  -6.2018  -6.1777  -6.1777  -6.1661  -6.1475  -6.1452
    -6.1412  -6.1412  -6.1180  -6.1180  -6.1082  -6.1082  -6.0945  -6.0887
    -6.0559  -6.0559  -6.0464  -6.0464  -6.0418  -6.0334  -6.0197  -6.0197
    -5.9972  -5.9915  -5.9915  -5.9887  -5.9798  -5.9798  -5.9723  -5.9723
    -5.9698  -5.9698  -5.9568  -5.9486  -5.9417  -5.9158  -5.9158  -5.9074
    -5.9074  -5.9061  -5.8987  -5.8910  -5.8910  -5.8861  -5.8857  -5.8774
    -5.8774  -5.8533  -5.8533  -5.8463  -5.8463  -5.8337  -5.8336  -5.8327
    -5.8321  -5.8289  -5.8289  -5.8080  -5.7969  -5.7969  -5.7933  -5.7722
    -5.7629  -5.7629  -5.7557  -5.7521  -5.7521  -5.7497  -5.7131  -5.7131
    -5.6936  -5.6936  -5.6913  -5.6913  -5.6572  -5.6540  -5.6540  -5.6529
    -5.6529  -5.6465  -5.6325  -5.6306  -5.6306  -5.6236  -5.6236  -5.5923
    -5.5923  -5.5923  -5.5916  -5.5916  -5.5824  -5.5824  -5.5806  -5.5806
    -5.5781  -5.5781  -5.5740  -5.5740  -5.5663  -5.5663  -5.5490  -5.5490
    -5.5483  -5.5483  -5.5443  -5.5399  -5.5360  -5.5360  -5.5146  -5.5146
    -5.5123  -5.5094  -5.5094  -5.5069  -5.5027  -5.4834  -5.4834  -5.4817
    -5.4789  -5.4789  -5.4656  -5.4609  -5.4609  -5.4596  -5.4596  -5.4574
    -5.4574  -5.4553  -5.4553  -5.4427  -5.4427  -5.4402  -5.4402  -5.4332
    -5.4332  -5.4306  -5.4174  -5.4174  -5.4093  -5.4093  -5.4092  -5.3982
    -5.3946  -5.3860  -5.3860  -5.3746  -5.3746  -5.3741  -5.3688  -5.3675
    -5.3643  -5.3643  -5.3348  -5.3275  -5.3275  -5.3079  -5.3079  -5.2819
    -5.2754  -5.2754  -5.2725  -5.2725  -5.2714  -5.2714  -5.2564  -5.2281
    -5.1865  -5.1865  -5.1825  -5.1825  -5.1440  -5.1440  -5.0650  -5.0650
    -4.4567  -4.2337  -4.2337  -4.0445  -4.0445  -3.2458  -3.2458  -3.1959
    -3.1456  -2.8781  -2.8781  -2.8501  -2.8501  -2.7812  -2.7812  -1.7968
    -1.7968  -1.7021  -1.7021  -1.4141  -1.4141  -0.8456  -0.4764  -0.4764
    -0.4131  -0.4131  -0.3241  -0.2421   0.2937   0.3494   0.3494   0.4228
     0.4228   0.6991   0.6991   0.7882   0.9694   0.9694   1.0857   1.4148
     1.4148   1.9752   1.9752   2.5301   2.5511   2.8196   2.9849   3.0898
     3.3250   3.3250   3.3632   3.3632   3.4430   3.4459   3.4459   3.5740
     3.5740   3.6665   3.8897   3.8897   4.3740   4.3740   4.3910   4.4240
     4.4426   4.4426   4.5658   4.5658   4.8777   4.9321   5.1383   5.1383
     5.2197   5.2197   5.4098   5.4435   5.4435   5.4512   5.4512   5.5995
     5.8610   5.8610   6.0590   6.0590   6.0899   6.1230   6.1230   6.5414
     6.5414   6.5422   6.6429   6.6449   6.6449   6.7257   6.9511   6.9981
     6.9981   7.0010   7.0047   7.0047   7.0429   7.0429   7.1625   7.1625
     7.1750   7.1750   7.2085   7.2085   7.2212   7.2212   7.4346   7.4346
     8.0892   8.2139   8.2139   8.3420   8.3610   8.3780   8.3780   8.5125
     8.5125   8.5380   8.5455   8.5818   8.5818   8.6202   8.6202   8.6574
     8.6774   8.6774   8.6937   8.7412   8.7950   8.7950   9.0053   9.0053

     occupation numbers 
     1.0000   1.0000   1.0000   1.0000   1.0000   1.0000   1.0000   1.0000
     1.0000   1.0000   1.0000   1.0000   1.0000   1.0000   1.0000   1.0000
     1.0000   1.0000   1.0000   1.0000   1.0000   1.0000   1.0000   1.0000
     1.0000   1.0000   1.0000   1.0000   1.0000   1.0000   1.0000   1.0000
     1.0000   1.0000   1.0000   1.0000   1.0000   1.0000   1.0000   1.0000
     1.0000   1.0000   1.0000   1.0000   1.0000   1.0000   1.0000   1.0000
     1.0000   1.0000   1.0000   1.0000   1.0000   1.0000   1.0000   1.0000
     1.0000   1.0000   1.0000   1.0000   1.0000   1.0000   1.0000   1.0000
     1.0000   1.0000   1.0000   1.0000   1.0000   1.0000   1.0000   1.0000
     1.0000   1.0000   1.0000   1.0000   1.0000   1.0000   1.0000   1.0000
     1.0000   1.0000   1.0000   1.0000   1.0000   1.0000   1.0000   1.0000
     1.0000   1.0000   1.0000   1.0000   1.0000   1.0000   1.0000   1.0000
     1.0000   1.0000   1.0000   1.0000   1.0000   1.0000   1.0000   1.0000
     1.0000   1.0000   1.0000   1.0000   1.0000   1.0000   1.0000   1.0000
     1.0000   1.0000   1.0000   1.0000   1.0000   1.0000   1.0000   1.0000
     1.0000   1.0000   1.0000   1.0000   1.0000   1.0000   1.0000   1.0000
     1.0000   1.0000   1.0000   1.0000   1.0000   1.0000   1.0000   1.0000
     1.0000   1.0000   1.0000   1.0000   1.0000   1.0000   1.0000   1.0000
     1.0000   1.0000   1.0000   1.0000   1.0000   1.0000   1.0000   1.0000
     1.0000   1.0000   1.0000   1.0000   1.0000   1.0000   1.0000   1.0000
     1.0000   1.0000   1.0000   1.0000   1.0000   1.0000   1.0000   1.0000
     1.0000   1.0000   1.0000   1.0000   1.0000   1.0000   1.0000   1.0000
     1.0000   1.0000   1.0000   1.0000   1.0000   1.0000   1.0000   1.0000
     1.0000   1.0000   1.0000   1.0000   1.0000   1.0000   1.0000   1.0000
     1.0000   1.0000   1.0000   1.0000   1.0000   1.0000   1.0000   1.0000
     1.0000   1.0000   1.0000   1.0000   1.0000   1.0000   1.0000   1.0000
     1.0000   1.0000   1.0000   1.0000   1.0000   1.0000   1.0000   1.0000
     1.0000   1.0000   1.0000   1.0000   1.0000   1.0000   1.0000   1.0000
     1.0000   1.0000   1.0000   1.0000   1.0000   1.0000   1.0000   1.0000
     1.0000   1.0000   1.0000   1.0000   1.0000   1.0000   1.0000   1.0000
     1.0000   1.0000   1.0000   1.0000   1.0000   1.0000   1.0000   1.0000
     1.0000   1.0000   1.0000   1.0000   1.0000   1.0000   1.0000   1.0000
     1.0000   1.0000   1.0000   1.0000   1.0000   1.0000   1.0000   1.0000
     1.0000   1.0000   1.0000   1.0000   1.0000   1.0000   1.0000   1.0000
     1.0000   1.0000   1.0000   1.0000   1.0000   1.0000   1.0000   1.0000
     1.0000   1.0000   1.0000   1.0000   1.0000   1.0000   1.0000   1.0000
     1.0000   1.0000   1.0000   1.0000   1.0000   1.0000   1.0000   1.0000
     1.0000   1.0000   1.0000   1.0000   1.0000   1.0000   1.0000   1.0000
     1.0000   1.0000   1.0000   1.0000   1.0000   1.0000   1.0000   1.0000
     1.0000   1.0000   1.0000   1.0000   1.0000   1.0000   1.0000   1.0000
     1.0000   1.0000   1.0000   1.0000   1.0000   1.0000   1.0000   1.0000
     1.0000   1.0000   1.0000   1.0000   1.0000   1.0000   1.0000   1.0000
     1.0000   1.0000   1.0000   1.0000   1.0000   1.0000   1.0000   1.0000
     1.0000   1.0000   1.0000   1.0000   1.0000   1.0000   1.0000   1.0000
     1.0000   1.0000   1.0000   1.0000   1.0000   1.0000   1.0000   1.0000
     1.0000   1.0000   1.0000   1.0000   1.0000   1.0000   1.0000   1.0000
     1.0000   1.0000   1.0000   1.0000   1.0000   1.0000   1.0000   1.0000
     1.0000   1.0000   1.0000   1.0000   1.0000   1.0000   1.0000   1.0000
     1.0000   1.0000   1.0000   1.0000   1.0000   1.0000   1.0000   1.0000
     1.0000   1.0000   1.0000   1.0000   1.0000   1.0000   1.0000   1.0000
     1.0000   1.0000   1.0000   1.0000   1.0000   1.0000   1.0000   1.0000
     1.0000   1.0000   1.0000   1.0000   1.0000   1.0000   1.0000   1.0000
     1.0000   1.0000   1.0000   1.0000   1.0000   1.0000   1.0000   1.0000
     1.0000   1.0000   1.0000   1.0000   1.0000   1.0000   1.0000   1.0000
     1.0000   1.0000   1.0000   1.0000   1.0000   1.0000   1.0000   1.0000
     1.0000   1.0000   1.0000   1.0000   1.0000   1.0000   1.0000   1.0000
     1.0000   1.0000   1.0000   1.0000   1.0000   1.0000   1.0000   1.0000
     1.0000   1.0000   1.0000   1.0000   1.0000   1.0000   1.0000   1.0000
     1.0000   1.0000   1.0000   1.0000   1.0000   1.0000   1.0000   1.0000
     1.0000   1.0052   1.0052   1.0159   1.0686   1.0686   1.0779   0.4455
     0.4455   0.0003   0.0003   0.0000   0.0000   0.0000   0.0000   0.0000
     0.0000   0.0000   0.0000   0.0000   0.0000   0.0000   0.0000   0.0000
     0.0000   0.0000   0.0000   0.0000   0.0000   0.0000   0.0000   0.0000
     0.0000   0.0000   0.0000   0.0000   0.0000   0.0000   0.0000   0.0000
     0.0000   0.0000   0.0000   0.0000   0.0000   0.0000   0.0000   0.0000
     0.0000   0.0000   0.0000   0.0000   0.0000   0.0000   0.0000   0.0000
     0.0000   0.0000   0.0000   0.0000   0.0000   0.0000   0.0000   0.0000
     0.0000   0.0000   0.0000   0.0000   0.0000   0.0000   0.0000   0.0000
     0.0000   0.0000   0.0000   0.0000   0.0000   0.0000   0.0000   0.0000
     0.0000   0.0000   0.0000   0.0000   0.0000   0.0000   0.0000   0.0000
     0.0000   0.0000   0.0000   0.0000   0.0000   0.0000   0.0000   0.0000
     0.0000   0.0000   0.0000   0.0000   0.0000   0.0000   0.0000   0.0000

          k = 0.2500-0.4330 0.0000 ( 64876 PWs)   bands (ev):

  -125.0672-125.0668-125.0667-125.0656-125.0656-125.0651-125.0649-125.0649
  -125.0645-125.0645-125.0644-125.0644-125.0640-125.0639-125.0639-125.0637
  -124.8620-124.8619-124.8615-124.8615-124.8614-124.8614-124.8604-124.8604
  -124.8603-124.8603-124.8598-124.8597-124.8596-124.8596-124.8595-124.8595
  -124.8592-124.8592-124.8592-124.8592-124.8591-124.8591-124.8591-124.8591
  -124.8588-124.8587-124.8587-124.8587-124.8586-124.8586-124.8585-124.8584
   -79.2324 -79.2308 -79.2308 -79.2303 -79.2303 -79.2281 -79.2281 -79.2260
   -79.2260 -79.2256 -79.2221 -79.2213 -79.2176 -79.2176 -79.2157 -79.2152
   -79.2152 -79.2141 -79.2141 -79.2139 -79.2139 -79.2132 -79.2130 -79.2130
   -79.2126 -79.2126 -79.2125 -79.2125 -79.2120 -79.2119 -79.2119 -79.2117
   -79.2107 -79.2089 -79.2089 -79.2075 -79.2075 -79.2075 -79.2068 -79.2068
   -79.2061 -79.2061 -79.2046 -79.2046 -79.2020 -79.2005 -79.2005 -79.1991
   -79.0240 -79.0239 -79.0223 -79.0223 -79.0222 -79.0222 -79.0218 -79.0218
   -79.0217 -79.0217 -79.0196 -79.0196 -79.0195 -79.0195 -79.0188 -79.0186
   -79.0183 -79.0183 -79.0181 -79.0181 -79.0176 -79.0176 -79.0175 -79.0175
   -79.0171 -79.0170 -79.0170 -79.0170 -79.0169 -79.0169 -79.0164 -79.0163
   -79.0162 -79.0162 -79.0161 -79.0161 -79.0158 -79.0158 -79.0157 -79.0157
   -79.0157 -79.0157 -79.0156 -79.0156 -79.0153 -79.0152 -79.0152 -79.0152
   -79.0151 -79.0151 -79.0150 -79.0149 -79.0136 -79.0135 -79.0128 -79.0127
   -79.0091 -79.0091 -79.0090 -79.0090 -79.0057 -79.0056 -79.0056 -79.0056
   -79.0023 -79.0022 -79.0005 -79.0005 -79.0004 -79.0004 -78.9991 -78.9990
   -78.9990 -78.9990 -78.9990 -78.9990 -78.9984 -78.9984 -78.9983 -78.9983
   -78.9977 -78.9977 -78.9976 -78.9976 -78.9962 -78.9962 -78.9961 -78.9961
   -78.9936 -78.9935 -78.9921 -78.9921 -78.9920 -78.9920 -78.9907 -78.9906
    -8.2709  -7.8241  -7.8241  -7.1122  -6.9146  -6.8404  -6.8404  -6.8043
    -6.8043  -6.7975  -6.7975  -6.7932  -6.7932  -6.7692  -6.7279  -6.7279
    -6.6988  -6.6988  -6.6553  -6.6553  -6.6235  -6.6091  -6.6091  -6.6048
    -6.6048  -6.5882  -6.5882  -6.5679  -6.5679  -6.5602  -6.5602  -6.5437
    -6.5346  -6.5346  -6.4918  -6.4918  -6.4719  -6.4719  -6.4695  -6.4621
    -6.4621  -6.4406  -6.4398  -6.4179  -6.4127  -6.4127  -6.4119  -6.4119
    -6.4030  -6.4030  -6.3926  -6.3696  -6.3696  -6.3127  -6.3017  -6.3017
    -6.2971  -6.2971  -6.2923  -6.2923  -6.2919  -6.2784  -6.2673  -6.2631
[...]
     1.0000   1.0000   1.0000   1.0000   1.0000   1.0000   1.0000   1.0000
     1.0000   1.0000   1.0000   1.0000   1.0000   1.0000   1.0000   1.0000
     1.0000   1.0000   1.0000   1.0000   1.0000   1.0000   1.0000   1.0000
     1.0000   1.0000   1.0000   1.0000   1.0000   1.0000   1.0000   1.0000
     1.0000   1.0000   1.0000   1.0000   1.0000   1.0000   1.0000   1.0000
     1.0000   1.0000   1.0000   1.0000   1.0000   1.0000   1.0000   1.0000
     1.0000   1.0000   1.0000   1.0000   1.0000   1.0000   1.0000   1.0000
     1.0000   1.0000   1.0000   1.0000   1.0000   1.0000   1.0000   1.0000
     1.0000   1.0000   1.0000   1.0000   1.0000   1.0000   1.0000   1.0000
     1.0000   1.0000   1.0000   1.0000   1.0000   1.0000   1.0000   1.0000
     1.0000   1.0000   1.0000   1.0000   1.0000   1.0000   1.0000   1.0000
     1.0000   1.0000   1.0000   1.0000   1.0000   1.0000   1.0000   1.0000
     1.0000   1.0000   1.0000   1.0000   1.0000   1.0000   1.0000   1.0000
     1.0000   1.0000   1.0000   1.0000   1.0000   1.0000   1.0000   1.0000
     1.0000   1.0000   1.0000   1.0000   1.0000   1.0000   1.0000   1.0000
     1.0000   1.0000   1.0000   1.0000   1.0000   1.0000   1.0000   1.0000
     1.0000   1.0000   1.0000   1.0000   1.0000   1.0000   1.0000   1.0000
     1.0000   1.0000   1.0000   1.0000   1.0000   1.0000   1.0000   1.0000
     1.0000   1.0000   1.0000   1.0000   1.0000   1.0000   1.0000   1.0000
     1.0000   1.0000   1.0000   1.0000   1.0000   1.0000   1.0000   1.0000
     1.0000   1.0000   1.0000   1.0000   1.0000   1.0000   1.0000   1.0000
     1.0000   1.0000   1.0000   1.0000   1.0000   1.0000   1.0000   1.0000
     1.0000   1.0000   1.0000   1.0000   1.0000   1.0000   1.0000   1.0000
     1.0000   1.0000   1.0000   1.0000   1.0000   1.0000   1.0000   1.0000
     1.0000   1.0000   1.0000   1.0000   1.0000   1.0000   1.0000   1.0000
     1.0000   1.0000   1.0000   1.0000   1.0000   1.0000   1.0000   1.0000
     1.0000   1.0000   1.0000   1.0000   1.0000   1.0000   1.0000   1.0000
     1.0000   1.0000   1.0000   1.0000   1.0000   1.0000   1.0000   1.0000
     1.0000   1.0000   1.0000   1.0000   1.0000   1.0000   1.0000   1.0000
     1.0000   1.0000   1.0000   1.0000   1.0000   1.0000   1.0000   1.0000
     1.0000   1.0000   1.0000   1.0000   1.0000   1.0000   1.0000   1.0000
     1.0000   1.0000   1.0000   1.0000   1.0000   1.0000   1.0000   1.0000
     1.0000   1.0000   1.0000   1.0000   1.0000   1.0000   1.0000   1.0000
     1.0000   1.0000   1.0000   1.0000   1.0000   1.0000   1.0000   1.0000
     1.0000   1.0000   1.0000   1.0000   1.0000   1.0000   1.0000   1.0000
     1.0000   1.0000   1.0000   1.0000   1.0000   1.0000   1.0000   1.0000
     1.0000   1.0000   1.0000   1.0000   1.0000   1.0000   1.0000   1.0000
     1.0000   1.0000   1.0000   1.0000   1.0000   1.0000   1.0000   1.0000
     1.0000   1.0000   1.0000   1.0000   1.0000   1.0000   1.0000   1.0000
     1.0000   1.0000   1.0000   1.0000   1.0000   1.0000   1.0000   1.0000
     1.0000   1.0000   1.0000   1.0000   1.0000   1.0000   1.0000   1.0000
     1.0000   1.0000   1.0000   1.0000   1.0000   1.0000   1.0000   1.0000
     1.0000   1.0000   1.0000   1.0000   1.0000   1.0000   1.0000   1.0000
     1.0000   1.0000   1.0000   1.0000   1.0000   1.0000   1.0000   1.0000
     1.0000   1.0000   1.0000   1.0000   1.0000   1.0000   1.0000   1.0000
     1.0000   1.0000   1.0000   1.0000   1.0000   1.0000   1.0000   1.0000
     1.0000   1.0000   1.0000   1.0000   1.0000   1.0000   1.0000   1.0000
     1.0000   1.0000   1.0000   1.0000   1.0000   1.0000   1.0000   1.0000
     1.0000   1.0000   1.0000   1.0000   1.0000   1.0000   1.0000   1.0000
     1.0000   1.0000   1.0000   1.0000   1.0000   1.0000   1.0000   1.0000
     1.0000   1.0000   1.0000   1.0000   1.0000   1.0000   1.0000   1.0000
     1.0000   1.0000   1.0000   1.0000   1.0000   1.0000   1.0000   1.0000
     1.0000   1.0052   1.0052   1.0159   1.0686   1.0686   1.0779   0.4455
     0.4455   0.0003   0.0003   0.0000   0.0000   0.0000   0.0000   0.0000
     0.0000   0.0000   0.0000   0.0000   0.0000   0.0000   0.0000   0.0000
     0.0000   0.0000   0.0000   0.0000   0.0000   0.0000   0.0000   0.0000
     0.0000   0.0000   0.0000   0.0000   0.0000   0.0000   0.0000   0.0000
     0.0000   0.0000   0.0000   0.0000   0.0000   0.0000   0.0000   0.0000
     0.0000   0.0000   0.0000   0.0000   0.0000   0.0000   0.0000   0.0000
     0.0000   0.0000   0.0000   0.0000   0.0000   0.0000   0.0000   0.0000
     0.0000   0.0000   0.0000   0.0000   0.0000   0.0000   0.0000   0.0000
     0.0000   0.0000   0.0000   0.0000   0.0000   0.0000   0.0000   0.0000
     0.0000   0.0000   0.0000   0.0000   0.0000   0.0000   0.0000   0.0000
     0.0000   0.0000   0.0000   0.0000   0.0000   0.0000   0.0000   0.0000
     0.0000   0.0000   0.0000   0.0000   0.0000   0.0000   0.0000   0.0000

          k =-0.5000-0.8660 0.0000 ( 64842 PWs)   bands (ev):

  -125.0671-125.0671-125.0662-125.0662-125.0650-125.0650-125.0650-125.0650
  -125.0646-125.0646-125.0641-125.0641-125.0641-125.0641-125.0638-125.0638
  -124.8619-124.8619-124.8618-124.8618-124.8610-124.8610-124.8609-124.8609
  -124.8598-124.8598-124.8598-124.8598-124.8597-124.8597-124.8597-124.8597
  -124.8594-124.8594-124.8593-124.8593-124.8589-124.8589-124.8589-124.8589
  -124.8588-124.8588-124.8588-124.8588-124.8585-124.8585-124.8584-124.8584
   -79.2313 -79.2313 -79.2313 -79.2313 -79.2289 -79.2289 -79.2278 -79.2278
   -79.2233 -79.2233 -79.2233 -79.2233 -79.2184 -79.2184 -79.2156 -79.2156
   -79.2146 -79.2146 -79.2132 -79.2132 -79.2132 -79.2132 -79.2128 -79.2127
   -79.2122 -79.2122 -79.2122 -79.2122 -79.2118 -79.2118 -79.2118 -79.2118
   -79.2103 -79.2103 -79.2102 -79.2102 -79.2069 -79.2069 -79.2069 -79.2069
   -79.2061 -79.2061 -79.2033 -79.2033 -79.2023 -79.2023 -79.1994 -79.1994
   -79.0228 -79.0228 -79.0228 -79.0228 -79.0227 -79.0227 -79.0227 -79.0227
   -79.0204 -79.0204 -79.0203 -79.0203 -79.0193 -79.0193 -79.0193 -79.0193
   -79.0187 -79.0187 -79.0185 -79.0185 -79.0177 -79.0177 -79.0176 -79.0176
   -79.0163 -79.0163 -79.0163 -79.0163 -79.0163 -79.0163 -79.0163 -79.0163
   -79.0159 -79.0159 -79.0159 -79.0159 -79.0154 -79.0154 -79.0154 -79.0154
   -79.0153 -79.0153 -79.0153 -79.0153 -79.0150 -79.0150 -79.0149 -79.0149
   -79.0148 -79.0148 -79.0148 -79.0148 -79.0147 -79.0147 -79.0147 -79.0147
   -79.0099 -79.0099 -79.0098 -79.0098 -79.0034 -79.0034 -79.0033 -79.0033
   -79.0018 -79.0018 -79.0018 -79.0018 -79.0017 -79.0017 -79.0017 -79.0017
   -78.9985 -78.9985 -78.9985 -78.9985 -78.9984 -78.9984 -78.9984 -78.9984
   -78.9977 -78.9977 -78.9976 -78.9976 -78.9949 -78.9949 -78.9948 -78.9948
   -78.9939 -78.9939 -78.9938 -78.9938 -78.9910 -78.9910 -78.9909 -78.9909
    -8.1568  -8.1568  -7.3179  -7.3179  -7.0262  -7.0262  -6.8642  -6.8642
    -6.8602  -6.8601  -6.7501  -6.7501  -6.7501  -6.7501  -6.6538  -6.6538
    -6.6475  -6.6475  -6.6475  -6.6475  -6.6245  -6.6245  -6.6073  -6.6073
    -6.6073  -6.6073  -6.5538  -6.5538  -6.5287  -6.5287  -6.5287  -6.5287
    -6.5063  -6.5063  -6.4878  -6.4878  -6.4878  -6.4878  -6.4633  -6.4633
    -6.4633  -6.4633  -6.4608  -6.4608  -6.4500  -6.4500  -6.4265  -6.4265
    -6.4217  -6.4217  -6.4217  -6.4217  -6.3102  -6.3102  -6.3018  -6.3018
    -6.2928  -6.2928  -6.2928  -6.2928  -6.2916  -6.2916  -6.2706  -6.2706
    -6.2706  -6.2706  -6.2363  -6.2363  -6.2211  -6.2211  -6.2211  -6.2211
    -6.2062  -6.2062  -6.2010  -6.2010  -6.1704  -6.1704  -6.1417  -6.1417
    -6.1115  -6.1115  -6.1032  -6.1032  -6.0824  -6.0824  -6.0824  -6.0824
    -6.0618  -6.0618  -6.0618  -6.0618  -6.0416  -6.0416  -6.0320  -6.0320
    -6.0259  -6.0259  -6.0220  -6.0220  -6.0095  -6.0095  -5.9898  -5.9898
    -5.9898  -5.9898  -5.9467  -5.9467  -5.9453  -5.9453  -5.9151  -5.9151
    -5.9051  -5.9051  -5.8720  -5.8720  -5.8720  -5.8720  -5.8146  -5.8146
    -5.8092  -5.8092  -5.8083  -5.8083  -5.8083  -5.8083  -5.8053  -5.8053
    -5.7871  -5.7871  -5.7844  -5.7844  -5.7757  -5.7757  -5.7757  -5.7757
    -5.7677  -5.7677  -5.7671  -5.7671  -5.7671  -5.7671  -5.7560  -5.7560
    -5.7537  -5.7537  -5.7537  -5.7537  -5.6749  -5.6749  -5.6735  -5.6735
    -5.6669  -5.6669  -5.6453  -5.6453  -5.6453  -5.6453  -5.6311  -5.6311
    -5.6234  -5.6234  -5.6043  -5.6043  -5.6043  -5.6043  -5.5941  -5.5941
    -5.5700  -5.5700  -5.5432  -5.5432  -5.5287  -5.5287  -5.5287  -5.5287
    -5.5260  -5.5260  -5.5260  -5.5260  -5.5227  -5.5227  -5.5205  -5.5205
    -5.4987  -5.4987  -5.4987  -5.4987  -5.4885  -5.4885  -5.4878  -5.4878
    -5.4864  -5.4864  -5.4787  -5.4787  -5.4637  -5.4637  -5.4637  -5.4637
    -5.4507  -5.4507  -5.4507  -5.4507  -5.4394  -5.4394  -5.4224  -5.4224
    -5.4154  -5.4154  -5.4154  -5.4154  -5.4120  -5.4120  -5.4114  -5.4114
    -5.4046  -5.4046  -5.4021  -5.4021  -5.4004  -5.4004  -5.3701  -5.3701
    -5.3626  -5.3625  -5.3625  -5.3625  -5.3238  -5.3238  -5.3238  -5.3238
    -5.2537  -5.2537  -5.2537  -5.2537  -5.2354  -5.2354  -5.2339  -5.2339
    -5.2339  -5.2339  -5.2009  -5.2009  -5.1982  -5.1982  -4.7026  -4.7026
    -4.4189  -4.4189  -4.4189  -4.4188  -3.7290  -3.7290  -3.1109  -3.1109
    -3.0623  -3.0623  -3.0623  -3.0623  -2.3919  -2.3919  -2.2406  -2.2406
    -1.7587  -1.7587  -1.7587  -1.7587  -0.7559  -0.7559  -0.7559  -0.7559
    -0.3262  -0.3262  -0.3262  -0.3262  -0.0909  -0.0909   0.0125   0.0125
     1.0204   1.0204   1.0486   1.0486   1.3373   1.3373   1.3693   1.3693
     1.3693   1.3693   2.2229   2.2229   2.8992   2.8992   2.8992   2.8992
     3.1011   3.1011   3.1011   3.1011   3.3215   3.3215   3.5547   3.5547
     3.8659   3.8659   3.8659   3.8659   3.9977   3.9977   4.2571   4.2572
     4.4467   4.4467   4.7453   4.7453   4.8573   4.8573   5.4817   5.4817
     5.5227   5.5227   5.7144   5.7144   5.8003   5.8003   5.9290   5.9290
     5.9290   5.9290   5.9825   5.9825   5.9825   5.9825   6.1535   6.1535
     6.1535   6.1535   6.4243   6.4243   6.5590   6.5590   6.6328   6.6328
     6.6579   6.6579   6.8381   6.8381   6.8661   6.8661   7.0129   7.0129
     7.0129   7.0129   7.5806   7.5806   7.7355   7.7355   8.0638   8.0638
     8.0890   8.0890   8.0890   8.0890   8.2783   8.2783   8.4660   8.4660
     8.4660   8.4660   8.6242   8.6242   8.6242   8.6242   8.6606   8.6606
     8.7359   8.7359   8.8049   8.8049   8.9990   8.9990   8.9990   8.9990

     occupation numbers 
     1.0000   1.0000   1.0000   1.0000   1.0000   1.0000   1.0000   1.0000
     1.0000   1.0000   1.0000   1.0000   1.0000   1.0000   1.0000   1.0000
     1.0000   1.0000   1.0000   1.0000   1.0000   1.0000   1.0000   1.0000
     1.0000   1.0000   1.0000   1.0000   1.0000   1.0000   1.0000   1.0000
     1.0000   1.0000   1.0000   1.0000   1.0000   1.0000   1.0000   1.0000
     1.0000   1.0000   1.0000   1.0000   1.0000   1.0000   1.0000   1.0000
     1.0000   1.0000   1.0000   1.0000   1.0000   1.0000   1.0000   1.0000
     1.0000   1.0000   1.0000   1.0000   1.0000   1.0000   1.0000   1.0000
     1.0000   1.0000   1.0000   1.0000   1.0000   1.0000   1.0000   1.0000
     1.0000   1.0000   1.0000   1.0000   1.0000   1.0000   1.0000   1.0000
     1.0000   1.0000   1.0000   1.0000   1.0000   1.0000   1.0000   1.0000
     1.0000   1.0000   1.0000   1.0000   1.0000   1.0000   1.0000   1.0000
     1.0000   1.0000   1.0000   1.0000   1.0000   1.0000   1.0000   1.0000
     1.0000   1.0000   1.0000   1.0000   1.0000   1.0000   1.0000   1.0000
     1.0000   1.0000   1.0000   1.0000   1.0000   1.0000   1.0000   1.0000
     1.0000   1.0000   1.0000   1.0000   1.0000   1.0000   1.0000   1.0000
     1.0000   1.0000   1.0000   1.0000   1.0000   1.0000   1.0000   1.0000
     1.0000   1.0000   1.0000   1.0000   1.0000   1.0000   1.0000   1.0000
     1.0000   1.0000   1.0000   1.0000   1.0000   1.0000   1.0000   1.0000
     1.0000   1.0000   1.0000   1.0000   1.0000   1.0000   1.0000   1.0000
     1.0000   1.0000   1.0000   1.0000   1.0000   1.0000   1.0000   1.0000
     1.0000   1.0000   1.0000   1.0000   1.0000   1.0000   1.0000   1.0000
     1.0000   1.0000   1.0000   1.0000   1.0000   1.0000   1.0000   1.0000
     1.0000   1.0000   1.0000   1.0000   1.0000   1.0000   1.0000   1.0000
     1.0000   1.0000   1.0000   1.0000   1.0000   1.0000   1.0000   1.0000
     1.0000   1.0000   1.0000   1.0000   1.0000   1.0000   1.0000   1.0000
     1.0000   1.0000   1.0000   1.0000   1.0000   1.0000   1.0000   1.0000
     1.0000   1.0000   1.0000   1.0000   1.0000   1.0000   1.0000   1.0000
     1.0000   1.0000   1.0000   1.0000   1.0000   1.0000   1.0000   1.0000
     1.0000   1.0000   1.0000   1.0000   1.0000   1.0000   1.0000   1.0000
     1.0000   1.0000   1.0000   1.0000   1.0000   1.0000   1.0000   1.0000
     1.0000   1.0000   1.0000   1.0000   1.0000   1.0000   1.0000   1.0000
     1.0000   1.0000   1.0000   1.0000   1.0000   1.0000   1.0000   1.0000
     1.0000   1.0000   1.0000   1.0000   1.0000   1.0000   1.0000   1.0000
     1.0000   1.0000   1.0000   1.0000   1.0000   1.0000   1.0000   1.0000
     1.0000   1.0000   1.0000   1.0000   1.0000   1.0000   1.0000   1.0000
     1.0000   1.0000   1.0000   1.0000   1.0000   1.0000   1.0000   1.0000
     1.0000   1.0000   1.0000   1.0000   1.0000   1.0000   1.0000   1.0000
     1.0000   1.0000   1.0000   1.0000   1.0000   1.0000   1.0000   1.0000
     1.0000   1.0000   1.0000   1.0000   1.0000   1.0000   1.0000   1.0000
     1.0000   1.0000   1.0000   1.0000   1.0000   1.0000   1.0000   1.0000
     1.0000   1.0000   1.0000   1.0000   1.0000   1.0000   1.0000   1.0000
     1.0000   1.0000   1.0000   1.0000   1.0000   1.0000   1.0000   1.0000
     1.0000   1.0000   1.0000   1.0000   1.0000   1.0000   1.0000   1.0000
     1.0000   1.0000   1.0000   1.0000   1.0000   1.0000   1.0000   1.0000
     1.0000   1.0000   1.0000   1.0000   1.0000   1.0000   1.0000   1.0000
     1.0000   1.0000   1.0000   1.0000   1.0000   1.0000   1.0000   1.0000
     1.0000   1.0000   1.0000   1.0000   1.0000   1.0000   1.0000   1.0000
     1.0000   1.0000   1.0000   1.0000   1.0000   1.0000   1.0000   1.0000
     1.0000   1.0000   1.0000   1.0000   1.0000   1.0000   1.0000   1.0000
     1.0000   1.0000   1.0000   1.0000   1.0000   1.0000   1.0000   1.0000
     1.0000   1.0000   1.0000   1.0000   1.0000   1.0000   1.0000   1.0000
     1.0000   1.0000   1.0000   1.0000   1.0000   1.0000   1.0000   1.0000
     1.0000   1.0000   1.0000   1.0000   1.0000   1.0000   1.0000   1.0000
     1.0000   1.0000   1.0000   1.0000   1.0000   1.0000   1.0000   1.0000
     1.0000   1.0000   1.0000   1.0000   1.0000   1.0000   1.0000   1.0000
     1.0000   1.0000   1.0000   1.0000   1.0000   1.0000   1.0000   1.0000
     1.0000   1.0000   1.0000   1.0000   1.0000   1.0000   1.0000   1.0000
     1.0000   1.0000   1.0000   1.0000   1.0000   1.0000   1.0000   1.0000
     1.0812   1.0812   1.0833   1.0833   0.6574   0.6574   0.5689   0.5689
     0.5689   0.5689   0.0000   0.0000   0.0000   0.0000   0.0000   0.0000
     0.0000   0.0000   0.0000   0.0000   0.0000   0.0000   0.0000   0.0000
     0.0000   0.0000   0.0000   0.0000   0.0000   0.0000   0.0000   0.0000
     0.0000   0.0000   0.0000   0.0000   0.0000   0.0000   0.0000   0.0000
     0.0000   0.0000   0.0000   0.0000   0.0000   0.0000   0.0000   0.0000
     0.0000   0.0000   0.0000   0.0000   0.0000   0.0000   0.0000   0.0000
     0.0000   0.0000   0.0000   0.0000   0.0000   0.0000   0.0000   0.0000
     0.0000   0.0000   0.0000   0.0000   0.0000   0.0000   0.0000   0.0000
     0.0000   0.0000   0.0000   0.0000   0.0000   0.0000   0.0000   0.0000
     0.0000   0.0000   0.0000   0.0000   0.0000   0.0000   0.0000   0.0000
     0.0000   0.0000   0.0000   0.0000   0.0000   0.0000   0.0000   0.0000
     0.0000   0.0000   0.0000   0.0000   0.0000   0.0000   0.0000   0.0000

     the Fermi energy is     1.4323 ev

!    total energy              =  -22154.25533428 Ry
     estimated scf accuracy    <       0.00000241 Ry
     smearing contrib. (-TS)   =       0.00133725 Ry
     internal energy E=F+TS    =  -22154.25667154 Ry

     The total energy is F=E-TS. E is the sum of the following terms:
     one-electron contribution = -144865.59836385 Ry
     hartree contribution      =   72366.24679360 Ry
     xc contribution           =   -2024.15304499 Ry
     ewald contribution        =   52369.24794370 Ry

     convergence has been achieved in  11 iterations

     Writing all to output data dir ./tmp/Zn002.save/ :
     XML data file, charge density, pseudopotentials, collected wavefunctions

     init_run     :    121.57s CPU    123.21s WALL (       1 calls)
     electrons    :   5976.36s CPU   6027.11s WALL (       1 calls)

     Called by init_run:
     wfcinit      :    120.20s CPU    121.38s WALL (       1 calls)
     wfcinit:atom :      0.05s CPU      0.14s WALL (      10 calls)
     wfcinit:wfcr :    119.18s CPU    120.01s WALL (      10 calls)
     potinit      :      0.09s CPU      0.09s WALL (       1 calls)
     hinit0       :      0.07s CPU      0.07s WALL (       1 calls)

     Called by electrons:
     c_bands      :   5601.39s CPU   5648.39s WALL (      12 calls)
     sum_band     :    361.35s CPU    364.30s WALL (      12 calls)
     v_of_rho     :      0.84s CPU      0.88s WALL (      12 calls)
     v_h          :      0.06s CPU      0.06s WALL (      12 calls)
     v_xc         :      0.78s CPU      0.82s WALL (      12 calls)
     newd         :     13.53s CPU     14.69s WALL (      12 calls)
     mix_rho      :      0.10s CPU      0.11s WALL (      12 calls)

     Called by c_bands:
     init_us_2    :      4.44s CPU      4.49s WALL (     250 calls)
     cegterg      :   5590.56s CPU   5636.97s WALL (     120 calls)

     Called by sum_band:
     sum_band:wei :      0.05s CPU      0.06s WALL (      12 calls)
     sum_band:loo :    351.42s CPU    353.44s WALL (      12 calls)
     sum_band:buf :      0.80s CPU      1.10s WALL (     120 calls)
     sum_band:ini :      2.15s CPU      2.16s WALL (     120 calls)
     sum_band:cal :    302.42s CPU    303.79s WALL (     120 calls)
     sum_band:bec :      2.50s CPU      2.51s WALL (     120 calls)
     addusdens    :      9.65s CPU     10.56s WALL (      12 calls)
                                        0.00s GPU  (      12 calls)
     addusd:skk   :      0.10s CPU      0.14s WALL (      12 calls)
                                        0.00s GPU  (      12 calls)

     Called by *egterg:
     cdiaghg      :    338.67s CPU    350.93s WALL (     703 calls)
     cegterg:over :    982.21s CPU    985.79s WALL (     593 calls)
     cegterg:upda :    394.75s CPU    397.84s WALL (     593 calls)
     cegterg:last :   1484.75s CPU   1492.63s WALL (     231 calls)
     cdiaghg:chol :     21.71s CPU     21.77s WALL (     703 calls)
     cdiaghg:inve :      3.41s CPU      3.42s WALL (     703 calls)
     cdiaghg:para :     90.07s CPU     91.87s WALL (    1406 calls)
     h_psi        :   1602.57s CPU   1612.90s WALL (     723 calls)
     s_psi        :    640.82s CPU    642.50s WALL (     723 calls)
     g_psi        :      0.87s CPU      0.87s WALL (     593 calls)

     Called by h_psi:
     h_psi:calbec :    751.21s CPU    754.98s WALL (     723 calls)
     vloc_psi     :    205.19s CPU    206.73s WALL (     723 calls)
     add_vuspsi   :    644.82s CPU    646.79s WALL (     723 calls)

     General routines
     calbec       :   1053.62s CPU   1058.77s WALL (     843 calls)
     fft          :      0.59s CPU      0.65s WALL (     154 calls)
     ffts         :      0.03s CPU      0.03s WALL (      24 calls)
     fftw         :    217.59s CPU    219.17s WALL (  412444 calls)
     interpolate  :      0.05s CPU      0.06s WALL (      12 calls)

     Parallel routines

     PWSCF        :      1h41m CPU      1h42m WALL


   This run was terminated on:   0:20:12  27Mar2025            

=------------------------------------------------------------------------------=
   JOB DONE.
=------------------------------------------------------------------------------=
