--------------------------------------------------------------------------
WARNING: There was an error initializing an OpenFabrics device.

  Local host:   ga01
  Local device: mlx5_0
--------------------------------------------------------------------------

     Program PWSCF v.7.3.1 starts on 31Mar2025 at  1:56:10 

     This program is part of the open-source Quantum ESPRESSO suite
     for quantum simulation of materials; please cite
         "P. Giannozzi et al., J. Phys.:Condens. Matter 21 395502 (2009);
         "P. Giannozzi et al., J. Phys.:Condens. Matter 29 465901 (2017);
         "P. Giannozzi et al., J. Chem. Phys. 152 154105 (2020);
          URL http://www.quantum-espresso.org", 
     in publications or presentations arising from this work. More details at
     http://www.quantum-espresso.org/quote

     Parallel version (MPI), running on    31 processors

     MPI processes distributed on     1 nodes
     197505 MiB available memory on the printing compute node when the environment starts

     Waiting for input...
     Reading input from standard input
Warning: card &CELL ignored
Warning: card   CELL_DOFREE = 'ALL' ignored
Warning: card / ignored

     Current dimensions of program PWSCF are:
     Max number of different atomic species (ntypx) = 10
     Max number of k-points (npk) =  40000
     Max angular momentum in pseudopotentials (lmaxx) =  4
     file C.pbe-n-kjpaw_psl.1.0.0.UPF: wavefunction(s)  2S 2P renormalized

     R & G space division:  proc/nbgrp/npool/nimage =      31
     Subspace diagonalization in iterative solution of the eigenvalue problem:
     a serial algorithm will be used


     Parallelization info
     --------------------
     sticks:   dense  smooth     PW     G-vecs:    dense   smooth      PW
     Min        1603     916    233               269117   116246   14961
     Max        1604     917    235               269120   116251   14965
     Sum       49717   28417   7237              8342671  3603727  463837

     Using Slab Decomposition



     bravais-lattice index     =            1
     lattice parameter (alat)  =      47.2432  a.u.
     unit-cell volume          =  105442.7265 (a.u.)^3
     number of atoms/cell      =           15
     number of atomic types    =            3
     number of electrons       =        36.00
     number of Kohn-Sham states=           22
     kinetic-energy cutoff     =      40.0000  Ry
     charge density cutoff     =     280.0000  Ry
     scf convergence threshold =      1.0E-06
     mixing beta               =       0.4000
     number of iterations used =            8  plain     mixing
     energy convergence thresh.=      1.0E-05
     force convergence thresh. =      5.0E-04
     Exchange-correlation= PBE
                           (   1   4   3   4   0   0   0)
     nstep                     =          100


     celldm(1)=  47.243153  celldm(2)=   0.000000  celldm(3)=   0.000000
     celldm(4)=   0.000000  celldm(5)=   0.000000  celldm(6)=   0.000000

     crystal axes: (cart. coord. in units of alat)
               a(1) = (   1.000000   0.000000   0.000000 )  
               a(2) = (   0.000000   1.000000   0.000000 )  
               a(3) = (   0.000000   0.000000   1.000000 )  

     reciprocal axes: (cart. coord. in units 2 pi/alat)
               b(1) = (  1.000000  0.000000  0.000000 )  
               b(2) = (  0.000000  1.000000  0.000000 )  
               b(3) = (  0.000000  0.000000  1.000000 )  


     PseudoPot. # 1 for N  read from file:
     /home/yongsang/Research/PSID_server_room/qe/[00]QE/qepseudo/SSSP_1.3.0_PBE_efficiency/N.pbe-n-radius_5.UPF
     MD5 check sum: 16739722b17309cd8fe442a2ace49922
     Pseudo is Ultrasoft + core correction, Zval =  5.0
     Generated using "atomic" code by A. Dal Corso  v.5.1
     Using radial grid of 1085 points,  4 beta functions with: 
                l(1) =   0
                l(2) =   0
                l(3) =   1
                l(4) =   1
     Q(r) pseudized with 0 coefficients 


     PseudoPot. # 2 for C  read from file:
     /home/yongsang/Research/PSID_server_room/qe/[00]QE/qepseudo/SSSP_1.3.0_PBE_efficiency/C.pbe-n-kjpaw_psl.1.0.0.UPF
     MD5 check sum: 5d2aebdfa2cae82b50a7e79e9516da0f
     Pseudo is Projector augmented-wave + core cor, Zval =  4.0
     Generated using "atomic" code by A. Dal Corso  v.5.1
     Shape of augmentation charge: PSQ
     Using radial grid of 1073 points,  4 beta functions with: 
                l(1) =   0
                l(2) =   0
                l(3) =   1
                l(4) =   1
     Q(r) pseudized with 0 coefficients 


     PseudoPot. # 3 for H  read from file:
     /home/yongsang/Research/PSID_server_room/qe/[00]QE/qepseudo/SSSP_1.3.0_PBE_efficiency/H.pbe-rrkjus_psl.1.0.0.UPF
     MD5 check sum: f52b6d4d1c606e5624b1dc7b2218f220
     Pseudo is Ultrasoft, Zval =  1.0
     Generated using "atomic" code by A. Dal Corso  v.5.1
     Using radial grid of  929 points,  2 beta functions with: 
                l(1) =   0
                l(2) =   0
     Q(r) pseudized with 0 coefficients 


     atomic species   valence    mass     pseudopotential
     N                 5.00    14.00674     N ( 1.00)
     C                 4.00    12.01070     C ( 1.00)
     H                 1.00     1.00794     H ( 1.00)

     No symmetry found


                                    s                        frac. trans.

      isym =  1     identity                                     

 cryst.   s( 1) = (     1          0          0      )
                  (     0          1          0      )
                  (     0          0          1      )

 cart.    s( 1) = (  1.0000000  0.0000000  0.0000000 )
                  (  0.0000000  1.0000000  0.0000000 )
                  (  0.0000000  0.0000000  1.0000000 )


     point group C_1 (1)    
     there are  1 classes
     the character table:

       E    
A      1.00

     the symmetry operations in each class and the name of the first element:

     E        1
          identity                                               

   Cartesian axes

     site n.     atom                  positions (alat units)
         1        N      tau(   1) = (  -0.0899204   0.0098615   0.0224301  )
         2        C      tau(   2) = (  -0.0345483   0.0090028   0.0096753  )
         3        C      tau(   3) = (  -0.0063146   0.0570834   0.0023462  )
         4        C      tau(   4) = (  -0.0073068  -0.0399188   0.0044780  )
         5        C      tau(   5) = (   0.0482166   0.0561559  -0.0100980  )
         6        C      tau(   6) = (   0.0472286  -0.0406509  -0.0079605  )
         7        C      tau(   7) = (   0.0749594   0.0073370  -0.0152587  )
         8        H      tau(   8) = (  -0.0265645   0.0951686   0.0062829  )
         9        H      tau(   9) = (  -0.0283140  -0.0773792   0.0100818  )
        10        H      tau(  10) = (   0.0697478   0.0932934  -0.0157237  )
        11        H      tau(  11) = (   0.0679967  -0.0784317  -0.0119247  )
        12        H      tau(  12) = (   0.1171662   0.0066934  -0.0248793  )
        13        H      tau(  13) = (  -0.1099011  -0.0248283   0.0125552  )
        14        H      tau(  14) = (  -0.1094228   0.0436972   0.0092031  )
        15        H      tau(  15) = (  -0.0940346   0.0121482   0.0595043  )

     --------------------------------------------
     DFT-D3 Dispersion Correction (3-body terms):
     --------------------------------------------
       Reference C6 values for interpolation: 

         atom   Coordination number   C6
         H          0.912             6.05
         H          0.000            15.18
         C          0.000            98.23
         C          0.987            86.49
         C          1.998            58.72
         C          2.999            51.56
         C          3.984            36.41
         N          0.000            50.54
         N          0.994            44.25
         N          2.014            39.35
         N          2.990            31.16

       Values used:

         atom   Coordination number  R0_AB[au]  C6      C8
         N          4.060            2.478     31.16    687.49
         C          3.152            2.750     50.52   1461.03
         C          3.158            2.750     50.47   1459.56
         C          3.158            2.750     50.47   1459.58
         C          3.125            2.750     50.72   1466.90
         C          3.125            2.750     50.72   1466.89
         C          3.127            2.750     50.71   1466.60
         H          1.003            2.062      6.18     74.68
         H          1.003            2.062      6.18     74.68
         H          1.003            2.062      6.18     74.68
         H          1.003            2.062      6.18     74.68
         H          1.003            2.062      6.18     74.68
         H          1.004            2.062      6.18     74.67
         H          1.004            2.062      6.18     74.67
         H          1.016            2.062      6.17     74.55

         Molecular C6 ( Ry / a.u.^6 ) =      4634.14


   Crystallographic axes

     site n.     atom                  positions (cryst. coord.)
         1        N      tau(   1) = ( -0.0899204  0.0098615  0.0224301  )
         2        C      tau(   2) = ( -0.0345483  0.0090028  0.0096753  )
         3        C      tau(   3) = ( -0.0063146  0.0570834  0.0023462  )
         4        C      tau(   4) = ( -0.0073068 -0.0399188  0.0044780  )
         5        C      tau(   5) = (  0.0482166  0.0561559 -0.0100980  )
         6        C      tau(   6) = (  0.0472286 -0.0406509 -0.0079605  )
         7        C      tau(   7) = (  0.0749594  0.0073370 -0.0152587  )
         8        H      tau(   8) = ( -0.0265645  0.0951686  0.0062829  )
         9        H      tau(   9) = ( -0.0283140 -0.0773792  0.0100818  )
        10        H      tau(  10) = (  0.0697478  0.0932934 -0.0157237  )
        11        H      tau(  11) = (  0.0679967 -0.0784317 -0.0119247  )
        12        H      tau(  12) = (  0.1171662  0.0066934 -0.0248793  )
        13        H      tau(  13) = ( -0.1099011 -0.0248283  0.0125552  )
        14        H      tau(  14) = ( -0.1094228  0.0436972  0.0092031  )
        15        H      tau(  15) = ( -0.0940346  0.0121482  0.0595043  )

     number of k points=     5  Marzari-Vanderbilt smearing, width (Ry)=  0.0200
                       cart. coord. in units 2pi/alat
        k(    1) = (   0.0000000   0.0000000   0.0000000), wk =   0.2222222
        k(    2) = (   0.0000000   0.3333333   0.0000000), wk =   0.4444444
        k(    3) = (   0.3333333   0.0000000   0.0000000), wk =   0.4444444
        k(    4) = (   0.3333333   0.3333333   0.0000000), wk =   0.4444444
        k(    5) = (   0.3333333  -0.3333333   0.0000000), wk =   0.4444444

                       cryst. coord.
        k(    1) = (   0.0000000   0.0000000   0.0000000), wk =   0.2222222
        k(    2) = (   0.0000000   0.3333333   0.0000000), wk =   0.4444444
        k(    3) = (   0.3333333   0.0000000   0.0000000), wk =   0.4444444
        k(    4) = (   0.3333333   0.3333333   0.0000000), wk =   0.4444444
        k(    5) = (   0.3333333  -0.3333333   0.0000000), wk =   0.4444444

     Dense  grid:  8342671 G-vectors     FFT dimensions: ( 256, 256, 256)

     Smooth grid:  3603727 G-vectors     FFT dimensions: ( 192, 192, 192)

     Dynamical RAM for                 wfc:       4.88 MB

     Dynamical RAM for     wfc (w. buffer):      29.27 MB

     Dynamical RAM for           str. fact:      12.32 MB

     Dynamical RAM for           local pot:       0.00 MB

     Dynamical RAM for          nlocal pot:      15.96 MB

     Dynamical RAM for                qrad:       1.15 MB

     Dynamical RAM for          rho,v,vnew:      25.82 MB

     Dynamical RAM for               rhoin:       8.61 MB

     Dynamical RAM for            rho*nmix:      65.70 MB

     Dynamical RAM for           G-vectors:      16.29 MB

     Dynamical RAM for          h,s,v(r/c):       0.09 MB

     Dynamical RAM for          <psi|beta>:       0.02 MB

     Dynamical RAM for                 psi:       9.76 MB

     Dynamical RAM for                hpsi:       9.76 MB

     Dynamical RAM for                spsi:       9.76 MB

     Dynamical RAM for      wfcinit/wfcrot:      15.99 MB

     Dynamical RAM for           addusdens:     209.43 MB

     Dynamical RAM for          addusforce:     268.98 MB

     Dynamical RAM for         addusstress:     205.32 MB

     Estimated static dynamical RAM per process >     148.34 MB

     Estimated max dynamical RAM per process >     483.02 MB

     Estimated total dynamical RAM >      14.62 GB
[ga01:1898786] 30 more processes have sent help message help-mpi-btl-openib.txt / error in device init
[ga01:1898786] Set MCA parameter "orte_base_help_aggregate" to 0 to see all help / error messages

     Initial potential from superposition of free atoms

     starting charge      36.9997, renormalised to      36.0000

     negative rho (up, down):  8.843E-03 0.000E+00
     Starting wfcs are   36 randomized atomic wfcs
     Checking if some PAW data can be deallocated... 
       PAW data deallocated on   19 nodes for type:  2

     total cpu time spent up to now is       10.6 secs

     Self-consistent Calculation

     iteration #  1     ecut=    40.00 Ry     beta= 0.40
     Davidson diagonalization with overlap

---- Real-time Memory Report at c_bands before calling an iterative solver
           478 MiB given to the printing process from OS
             0 MiB allocation reported by mallinfo(arena+hblkhd)
        191256 MiB available memory on the node where the printing process lives
------------------
     ethr =  1.00E-02,  avg # of iterations =  2.0

     negative rho (up, down):  1.016E-02 0.000E+00

     total cpu time spent up to now is       20.7 secs

     total energy              =    -139.57352296 Ry
     estimated scf accuracy    <       2.86498068 Ry

     iteration #  2     ecut=    40.00 Ry     beta= 0.40
     Davidson diagonalization with overlap

---- Real-time Memory Report at c_bands before calling an iterative solver
           549 MiB given to the printing process from OS
             0 MiB allocation reported by mallinfo(arena+hblkhd)
        190146 MiB available memory on the node where the printing process lives
------------------
     ethr =  7.96E-03,  avg # of iterations =  2.0

     negative rho (up, down):  1.110E-02 0.000E+00

     total cpu time spent up to now is       30.1 secs

     total energy              =    -139.77093402 Ry
     estimated scf accuracy    <       0.30209053 Ry

     iteration #  3     ecut=    40.00 Ry     beta= 0.40
     Davidson diagonalization with overlap

---- Real-time Memory Report at c_bands before calling an iterative solver
           552 MiB given to the printing process from OS
             0 MiB allocation reported by mallinfo(arena+hblkhd)
        190026 MiB available memory on the node where the printing process lives
------------------
     ethr =  8.39E-04,  avg # of iterations =  5.0

     negative rho (up, down):  1.181E-02 0.000E+00

     total cpu time spent up to now is       40.8 secs

     total energy              =    -139.79816779 Ry
     estimated scf accuracy    <       0.05082185 Ry

     iteration #  4     ecut=    40.00 Ry     beta= 0.40
     Davidson diagonalization with overlap

---- Real-time Memory Report at c_bands before calling an iterative solver
           557 MiB given to the printing process from OS
             0 MiB allocation reported by mallinfo(arena+hblkhd)
        189912 MiB available memory on the node where the printing process lives
------------------
     ethr =  1.41E-04,  avg # of iterations =  2.0

     negative rho (up, down):  1.209E-02 0.000E+00

     total cpu time spent up to now is       49.9 secs

     total energy              =    -139.80124119 Ry
     estimated scf accuracy    <       0.00756405 Ry

     iteration #  5     ecut=    40.00 Ry     beta= 0.40
     Davidson diagonalization with overlap

---- Real-time Memory Report at c_bands before calling an iterative solver
           561 MiB given to the printing process from OS
             0 MiB allocation reported by mallinfo(arena+hblkhd)
        189798 MiB available memory on the node where the printing process lives
------------------
     ethr =  2.10E-05,  avg # of iterations = 15.0

     negative rho (up, down):  1.217E-02 0.000E+00

     total cpu time spent up to now is       60.9 secs

     total energy              =    -139.80135123 Ry
     estimated scf accuracy    <       0.00113326 Ry

     iteration #  6     ecut=    40.00 Ry     beta= 0.40
     Davidson diagonalization with overlap

---- Real-time Memory Report at c_bands before calling an iterative solver
           565 MiB given to the printing process from OS
             0 MiB allocation reported by mallinfo(arena+hblkhd)
        189665 MiB available memory on the node where the printing process lives
------------------
     ethr =  3.15E-06,  avg # of iterations =  4.0

     negative rho (up, down):  1.216E-02 0.000E+00

     total cpu time spent up to now is       71.7 secs

     total energy              =    -139.80165721 Ry
     estimated scf accuracy    <       0.00040173 Ry

     iteration #  7     ecut=    40.00 Ry     beta= 0.40
     Davidson diagonalization with overlap

---- Real-time Memory Report at c_bands before calling an iterative solver
           567 MiB given to the printing process from OS
             0 MiB allocation reported by mallinfo(arena+hblkhd)
        189548 MiB available memory on the node where the printing process lives
------------------
     ethr =  1.12E-06,  avg # of iterations =  2.0

     negative rho (up, down):  1.218E-02 0.000E+00

     total cpu time spent up to now is       80.3 secs

     total energy              =    -139.80168024 Ry
     estimated scf accuracy    <       0.00003064 Ry

     iteration #  8     ecut=    40.00 Ry     beta= 0.40
     Davidson diagonalization with overlap

---- Real-time Memory Report at c_bands before calling an iterative solver
           571 MiB given to the printing process from OS
             0 MiB allocation reported by mallinfo(arena+hblkhd)
        189433 MiB available memory on the node where the printing process lives
------------------
     ethr =  8.51E-08,  avg # of iterations =  3.0

     negative rho (up, down):  1.218E-02 0.000E+00

     total cpu time spent up to now is       90.6 secs

     total energy              =    -139.80169399 Ry
     estimated scf accuracy    <       0.00001245 Ry

     iteration #  9     ecut=    40.00 Ry     beta= 0.40
     Davidson diagonalization with overlap

---- Real-time Memory Report at c_bands before calling an iterative solver
           575 MiB given to the printing process from OS
             0 MiB allocation reported by mallinfo(arena+hblkhd)
        189312 MiB available memory on the node where the printing process lives
------------------
     ethr =  3.46E-08,  avg # of iterations =  2.0

     negative rho (up, down):  1.220E-02 0.000E+00

     total cpu time spent up to now is       99.4 secs

     total energy              =    -139.80169484 Ry
     estimated scf accuracy    <       0.00000117 Ry

     iteration # 10     ecut=    40.00 Ry     beta= 0.40
     Davidson diagonalization with overlap

---- Real-time Memory Report at c_bands before calling an iterative solver
           579 MiB given to the printing process from OS
             0 MiB allocation reported by mallinfo(arena+hblkhd)
        189206 MiB available memory on the node where the printing process lives
------------------
     ethr =  3.24E-09,  avg # of iterations =  2.0

     negative rho (up, down):  1.221E-02 0.000E+00

     total cpu time spent up to now is      108.5 secs

     End of self-consistent calculation

          k = 0.0000 0.0000 0.0000 (450991 PWs)   bands (ev):

   -29.8147 -24.1599 -21.6685 -21.4565 -19.1463 -18.8010 -18.5561 -17.2764
   -16.5169 -14.8947 -13.8075 -13.4135 -13.0664 -11.9464 -11.4041 -11.0821
    -9.2687  -9.1619  -4.3916  -4.1299  -4.0184  -2.7102

     occupation numbers 
     1.0000   1.0000   1.0000   1.0000   1.0000   1.0000   1.0000   1.0000
     1.0000   1.0000   1.0000   1.0000   1.0000   1.0000   1.0000   1.0000
     1.0000   1.0000   0.0000   0.0000   0.0000   0.0000

          k = 0.0000 0.3333 0.0000 (450515 PWs)   bands (ev):

   -29.8147 -24.1599 -21.6685 -21.4565 -19.1463 -18.8010 -18.5560 -17.2764
   -16.5169 -14.8947 -13.8075 -13.4135 -13.0664 -11.9464 -11.4040 -11.0821
    -9.2687  -9.1619  -4.3916  -4.1299  -4.0184  -2.7102

     occupation numbers 
     1.0000   1.0000   1.0000   1.0000   1.0000   1.0000   1.0000   1.0000
     1.0000   1.0000   1.0000   1.0000   1.0000   1.0000   1.0000   1.0000
     1.0000   1.0000   0.0000   0.0000   0.0000   0.0000

          k = 0.3333 0.0000 0.0000 (450515 PWs)   bands (ev):

   -29.8147 -24.1599 -21.6685 -21.4565 -19.1463 -18.8010 -18.5560 -17.2764
   -16.5169 -14.8947 -13.8075 -13.4135 -13.0664 -11.9464 -11.4040 -11.0821
    -9.2687  -9.1619  -4.3916  -4.1299  -4.0184  -2.7102

     occupation numbers 
     1.0000   1.0000   1.0000   1.0000   1.0000   1.0000   1.0000   1.0000
     1.0000   1.0000   1.0000   1.0000   1.0000   1.0000   1.0000   1.0000
     1.0000   1.0000   0.0000   0.0000   0.0000   0.0000

          k = 0.3333 0.3333 0.0000 (450333 PWs)   bands (ev):

   -29.8147 -24.1598 -21.6685 -21.4565 -19.1463 -18.8010 -18.5560 -17.2764
   -16.5169 -14.8947 -13.8075 -13.4135 -13.0664 -11.9464 -11.4040 -11.0821
    -9.2687  -9.1619  -4.3916  -4.1299  -4.0184  -2.7102

     occupation numbers 
     1.0000   1.0000   1.0000   1.0000   1.0000   1.0000   1.0000   1.0000
     1.0000   1.0000   1.0000   1.0000   1.0000   1.0000   1.0000   1.0000
     1.0000   1.0000   0.0000   0.0000   0.0000   0.0000

          k = 0.3333-0.3333 0.0000 (450333 PWs)   bands (ev):

   -29.8147 -24.1598 -21.6685 -21.4565 -19.1463 -18.8010 -18.5560 -17.2764
   -16.5169 -14.8947 -13.8075 -13.4135 -13.0664 -11.9464 -11.4040 -11.0821
    -9.2687  -9.1619  -4.3916  -4.1299  -4.0184  -2.7102

     occupation numbers 
     1.0000   1.0000   1.0000   1.0000   1.0000   1.0000   1.0000   1.0000
     1.0000   1.0000   1.0000   1.0000   1.0000   1.0000   1.0000   1.0000
     1.0000   1.0000   0.0000   0.0000   0.0000   0.0000

     the Fermi energy is    -6.0915 ev

!    total energy              =    -139.80169480 Ry
     estimated scf accuracy    <       0.00000015 Ry
     smearing contrib. (-TS)   =      -0.00000000 Ry
     internal energy E=F+TS    =    -139.80169480 Ry

     The total energy is F=E-TS. E is the sum of the following terms:
     one-electron contribution =    -552.99384008 Ry
     hartree contribution      =     275.90553395 Ry
     xc contribution           =     -38.44738503 Ry
     ewald contribution        =     212.74794763 Ry
     DFT-D3 Dispersion         =      -0.00962690 Ry
     one-center paw contrib.   =     -37.00432438 Ry
      -> PAW hartree energy AE =       0.00000000 Ry
      -> PAW hartree energy PS =       0.00000000 Ry
      -> PAW xc energy AE      =       0.00000000 Ry
      -> PAW xc energy PS      =       0.00000000 Ry
      -> total E_H with PAW    =     275.90553395 Ry
      -> total E_XC with PAW   =     -38.44738503 Ry

     convergence has been achieved in  10 iterations

     negative rho (up, down):  1.221E-02 0.000E+00

     Forces acting on atoms (cartesian axes, Ry/au):

     atom    1 type  1   force =    -0.04366834   -0.00528043   -0.13433459
     atom    2 type  2   force =     0.12489515   -0.00357653   -0.04370441
     atom    3 type  2   force =    -0.01086311   -0.01252689    0.00244703
     atom    4 type  2   force =    -0.01054520    0.01316825    0.00155436
     atom    5 type  2   force =    -0.00905377   -0.01580396    0.00401404
     atom    6 type  2   force =    -0.00852485    0.01625627    0.00344196
     atom    7 type  2   force =    -0.01372988   -0.00000340    0.00346035
     atom    8 type  3   force =    -0.00680320    0.01295315    0.00016666
     atom    9 type  3   force =    -0.00719407   -0.01270600    0.00077090
     atom   10 type  3   force =     0.00189494    0.00956285   -0.00083194
     atom   11 type  3   force =     0.00172140   -0.00963181   -0.00042358
     atom   12 type  3   force =     0.00958805   -0.00016244   -0.00276661
     atom   13 type  3   force =    -0.00328712    0.00525361   -0.02162975
     atom   14 type  3   force =    -0.00424258   -0.00738677   -0.02414327
     atom   15 type  3   force =    -0.02018740    0.00988410    0.21197884
     The non-local contrib.  to forces
     atom    1 type  1   force =    -0.15891265    0.01405728    0.05096579
     atom    2 type  2   force =    -0.56416039    0.00810640    0.11935029
     atom    3 type  2   force =    -0.11348477   -0.09088604    0.03684647
     atom    4 type  2   force =    -0.11050567    0.09473416    0.03214455
     atom    5 type  2   force =    -0.10215621   -0.03778811    0.02521835
     atom    6 type  2   force =    -0.10097365    0.04103835    0.02338215
     atom    7 type  2   force =    -0.07111913    0.00104923    0.01377222
     atom    8 type  3   force =     0.03503299   -0.07194115   -0.00685722
     atom    9 type  3   force =     0.03646761    0.07086195   -0.01000859
     atom   10 type  3   force =    -0.04137725   -0.06996396    0.01077063
     atom   11 type  3   force =    -0.03994020    0.07120077    0.00763911
     atom   12 type  3   force =    -0.08001198    0.00122248    0.01819568
     atom   13 type  3   force =     0.04763024    0.08427332    0.02313870
     atom   14 type  3   force =     0.04639638   -0.08227615    0.03113072
     atom   15 type  3   force =     0.01397207   -0.00850007   -0.13475770
     The ionic contribution  to forces
     atom    1 type  1   force =    -8.49102742    0.03328455    0.90444330
     atom    2 type  2   force =    -1.82001992    0.01701187    0.31437670
     atom    3 type  2   force =    -1.46302246    6.91302685    0.18959451
     atom    4 type  2   force =    -1.60890449   -6.86785981    0.49250363
     atom    5 type  2   force =     4.34257209    6.23242675   -1.12056012
     atom    6 type  2   force =     4.21318061   -6.36366712   -0.84166929
     atom    7 type  2   force =     7.50748077   -0.11510341   -1.72160105
     atom    8 type  3   force =    -1.26869505    3.31250335    0.23048514
     atom    9 type  3   force =    -1.33587464   -3.27226672    0.37576682
     atom   10 type  3   force =     1.82202388    2.96530861   -0.47395078
     atom   11 type  3   force =     1.76092845   -3.01991231   -0.34121527
     atom   12 type  3   force =     3.40773579   -0.05206885   -0.77839095
     atom   13 type  3   force =    -2.78300872   -2.87780703   -0.68156442
     atom   14 type  3   force =    -2.74712045    2.83271782   -0.97365277
     atom   15 type  3   force =    -1.53624844    0.26240544    4.42543454
     The local contribution  to forces
     atom    1 type  1   force =     8.60571488   -0.05265943   -1.09130770
     atom    2 type  2   force =     2.49735497   -0.02858276   -0.47498634
     atom    3 type  2   force =     1.56331235   -6.83566956   -0.22353160
     atom    4 type  2   force =     1.70638020    6.78730162   -0.52227110
     atom    5 type  2   force =    -4.25078724   -6.21018209    1.09980215
     atom    6 type  2   force =    -4.12185889    6.33866470    0.82190991
     atom    7 type  2   force =    -7.45037225    0.11406748    1.71139439
     atom    8 type  3   force =     1.22687666   -3.22761344   -0.22350917
     atom    9 type  3   force =     1.29223047    3.18871495   -0.36503671
     atom   10 type  3   force =    -1.77877878   -2.88581140    0.46232940
     atom   11 type  3   force =    -1.71929725    2.93912411    0.33313328
     atom   12 type  3   force =    -3.31819691    0.05068916    0.75741682
     atom   13 type  3   force =     2.73221358    2.79878080    0.63679657
     atom   14 type  3   force =     2.69659110   -2.75781312    0.91838629
     atom   15 type  3   force =     1.50188902   -0.24400743   -4.07870903
     The core correction contribution to forces
     atom    1 type  1   force =     0.00074188    0.00002325    0.00141880
     atom    2 type  2   force =     0.01187121   -0.00012860   -0.00255708
     atom    3 type  2   force =     0.00237777    0.00050423   -0.00053892
     atom    4 type  2   force =     0.00255893   -0.00052395   -0.00092419
     atom    5 type  2   force =     0.00121418   -0.00068949   -0.00044984
     atom    6 type  2   force =     0.00101855    0.00065022   -0.00019824
     atom    7 type  2   force =    -0.00021741   -0.00001816   -0.00002104
     atom    8 type  3   force =     0.00000000    0.00000000    0.00000000
     atom    9 type  3   force =     0.00000000    0.00000000    0.00000000
     atom   10 type  3   force =     0.00000000    0.00000000    0.00000000
     atom   11 type  3   force =     0.00000000    0.00000000    0.00000000
     atom   12 type  3   force =     0.00000000    0.00000000    0.00000000
     atom   13 type  3   force =     0.00000000    0.00000000    0.00000000
     atom   14 type  3   force =     0.00000000    0.00000000    0.00000000
     atom   15 type  3   force =     0.00000000    0.00000000    0.00000000
     The Hubbard contrib.    to forces
     atom    1 type  1   force =     0.00000000    0.00000000    0.00000000
     atom    2 type  2   force =     0.00000000    0.00000000    0.00000000
     atom    3 type  2   force =     0.00000000    0.00000000    0.00000000
     atom    4 type  2   force =     0.00000000    0.00000000    0.00000000
     atom    5 type  2   force =     0.00000000    0.00000000    0.00000000
     atom    6 type  2   force =     0.00000000    0.00000000    0.00000000
     atom    7 type  2   force =     0.00000000    0.00000000    0.00000000
     atom    8 type  3   force =     0.00000000    0.00000000    0.00000000
     atom    9 type  3   force =     0.00000000    0.00000000    0.00000000
     atom   10 type  3   force =     0.00000000    0.00000000    0.00000000
     atom   11 type  3   force =     0.00000000    0.00000000    0.00000000
     atom   12 type  3   force =     0.00000000    0.00000000    0.00000000
     atom   13 type  3   force =     0.00000000    0.00000000    0.00000000
     atom   14 type  3   force =     0.00000000    0.00000000    0.00000000
     atom   15 type  3   force =     0.00000000    0.00000000    0.00000000
     The SCF correction term to forces
     atom    1 type  1   force =    -0.00013573    0.00001913    0.00010611
     atom    2 type  2   force =    -0.00020524    0.00002302    0.00009425
     atom    3 type  2   force =    -0.00012758    0.00030975    0.00004538
     atom    4 type  2   force =    -0.00014238   -0.00029165    0.00005829
     atom    5 type  2   force =     0.00017437    0.00030165   -0.00003831
     atom    6 type  2   force =     0.00018104   -0.00029394   -0.00002989
     atom    7 type  2   force =     0.00036013    0.00000897   -0.00007944
     atom    8 type  3   force =    -0.00002235    0.00004688    0.00000683
     atom    9 type  3   force =    -0.00002628   -0.00004922    0.00000983
     atom   10 type  3   force =     0.00002507    0.00004194   -0.00000579
     atom   11 type  3   force =     0.00002784   -0.00004529   -0.00000496
     atom   12 type  3   force =     0.00004898    0.00000059   -0.00001023
     atom   13 type  3   force =    -0.00003597   -0.00004183    0.00000011
     atom   14 type  3   force =    -0.00003426    0.00004335   -0.00000305
     atom   15 type  3   force =    -0.00001987    0.00000531    0.00005440

     DFT-D3 dispersion contribution to forces:
     atom    1 type  1   force =    -0.00006516    0.00000066    0.00001786
     atom    2 type  2   force =     0.00003867   -0.00000057   -0.00000346
     atom    3 type  2   force =     0.00006573    0.00019375    0.00000995
     atom    4 type  2   force =     0.00005234   -0.00018625    0.00002193
     atom    5 type  2   force =    -0.00008681    0.00013321    0.00002057
     atom    6 type  2   force =    -0.00008836   -0.00013006    0.00002608
     atom    7 type  2   force =     0.00012216   -0.00000163   -0.00002598
     atom    8 type  3   force =    -0.00001130   -0.00003662    0.00001983
     atom    9 type  3   force =    -0.00000709    0.00003893    0.00001831
     atom   10 type  3   force =    -0.00001384   -0.00000646    0.00000337
     atom   11 type  3   force =    -0.00001330    0.00000680    0.00000302
     atom   12 type  3   force =    -0.00000368    0.00000006    0.00000082
     atom   13 type  3   force =    -0.00010212    0.00005422   -0.00002196
     atom   14 type  3   force =    -0.00009120   -0.00005278   -0.00002570
     atom   15 type  3   force =     0.00020397   -0.00001327   -0.00006462

     Total force =     0.293749     Total SCF correction =     0.000841

     DFT-D3 dispersion Force =     0.000478


     Computing stress (Cartesian axis) and pressure


     negative rho (up, down):  1.221E-02 0.000E+00
          total   stress  (Ry/bohr**3)                   (kbar)     P=        0.17
   0.00000045  -0.00000005  -0.00000052            0.07       -0.01       -0.08
  -0.00000005  -0.00000028   0.00000018           -0.01       -0.04        0.03
  -0.00000052   0.00000018   0.00000326           -0.08        0.03        0.48

     kinetic stress (kbar)     57.69      0.03      1.42
                                0.03     57.49      0.11
                                1.42      0.11     63.70

     local   stress (kbar)   -420.32      2.63     75.80
                                2.63   -330.57      4.12
                               75.80      4.12   -102.92

     nonloc. stress (kbar)     13.07     -0.00     -0.20
                               -0.00     13.04     -0.01
                               -0.20     -0.01     12.30

     hartree stress (kbar)    183.52     -1.08    -29.84
                               -1.08    143.58     -1.54
                              -29.84     -1.54     57.82

     exc-cor stress (kbar)     -4.85     -0.00     -0.10
                               -0.00     -4.83     -0.01
                               -0.10     -0.01     -5.27

     corecor stress (kbar)     -9.95      0.00      0.03
                                0.00     -9.98      0.00
                                0.03      0.00     -9.82

     ewald   stress (kbar)    180.90     -1.58    -47.20
                               -1.58    131.24     -2.64
                              -47.20     -2.64    -15.33

     hubbard stress (kbar)      0.00      0.00      0.00
                                0.00      0.00      0.00
                                0.00      0.00      0.00

     DFT-D   stress (kbar)      0.00      0.00      0.00
                                0.00      0.00     -0.00
                                0.00     -0.00     -0.00

     XDM     stress (kbar)      0.00      0.00      0.00
                                0.00      0.00      0.00
                                0.00      0.00      0.00

     dft-nl  stress (kbar)      0.00      0.00      0.00
                                0.00      0.00      0.00
                                0.00      0.00      0.00

     TS-vdW  stress (kbar)      0.00      0.00      0.00
                                0.00      0.00      0.00
                                0.00      0.00      0.00

     MDB     stress (kbar)      0.00      0.00      0.00
                                0.00      0.00      0.00
                                0.00      0.00      0.00

     3D-RISM stress (kbar)      0.00      0.00      0.00
                                0.00      0.00      0.00
                                0.00      0.00      0.00


     BFGS Geometry Optimization
     Energy error            =      0.0E+00 Ry
     Gradient error          =      2.1E-01 Ry/Bohr

     number of scf cycles    =   1
     number of bfgs steps    =   0

     energy             new  =    -139.8016948012 Ry

     new trust radius        =       0.2131672005 bohr
     new conv_thr            =       0.0000010000 Ry


ATOMIC_POSITIONS (angstrom)
N               -2.2711188945        0.2437420576        0.4896649762
C               -0.7976159202        0.2231765000        0.2187551740
C               -0.1636123644        1.4204551032        0.0599497520
C               -0.1882492512       -0.9910021649        0.1127732418
C                1.2006246711        1.3955354835       -0.2503266251
C                1.1762046965       -1.0076699468       -0.1971905813
C                1.8667206670        0.1834241167       -0.3796361290
H               -0.6677114425        2.3860688449        0.1571614151
H               -0.7116572906       -1.9412033980        0.2524536239
H                1.7446981093        2.3373959714       -0.3935317291
H                1.7008296464       -1.9658882237       -0.2983424776
H                2.9342283011        0.1672488405       -0.6234474131
H               -2.7492670960       -0.6179261696        0.3024344803
H               -2.7378140695        1.0885218638        0.2173019647
H               -2.3615477902        0.3089350654        1.5997810112



     Writing config-only to output data dir ./tmp/aniline_protonated.save/ :
     XML data file
     NEW-OLD atomic charge density approx. for the potential

     negative rho (up, down):  1.133E-02 0.000E+00

     total cpu time spent up to now is      122.0 secs

     Self-consistent Calculation

     iteration #  1     ecut=    40.00 Ry     beta= 0.40
     Davidson diagonalization with overlap

---- Real-time Memory Report at c_bands before calling an iterative solver
           584 MiB given to the printing process from OS
             0 MiB allocation reported by mallinfo(arena+hblkhd)
        191063 MiB available memory on the node where the printing process lives
------------------
     ethr =  1.00E-06,  avg # of iterations = 20.0

     negative rho (up, down):  1.139E-02 0.000E+00

     total cpu time spent up to now is      144.6 secs

     total energy              =    -139.80703918 Ry
     estimated scf accuracy    <       0.01896949 Ry

     iteration #  2     ecut=    40.00 Ry     beta= 0.40
     Davidson diagonalization with overlap

---- Real-time Memory Report at c_bands before calling an iterative solver
           584 MiB given to the printing process from OS
             0 MiB allocation reported by mallinfo(arena+hblkhd)
        189656 MiB available memory on the node where the printing process lives
------------------
     ethr =  5.27E-05,  avg # of iterations =  2.0

     negative rho (up, down):  1.159E-02 0.000E+00

     total cpu time spent up to now is      153.1 secs

     total energy              =    -139.80818554 Ry
     estimated scf accuracy    <       0.00285417 Ry

     iteration #  3     ecut=    40.00 Ry     beta= 0.40
     Davidson diagonalization with overlap

---- Real-time Memory Report at c_bands before calling an iterative solver
           584 MiB given to the printing process from OS
             0 MiB allocation reported by mallinfo(arena+hblkhd)
        189534 MiB available memory on the node where the printing process lives
------------------
     ethr =  7.93E-06,  avg # of iterations =  2.0

     negative rho (up, down):  1.180E-02 0.000E+00

     total cpu time spent up to now is      161.8 secs

     total energy              =    -139.80846544 Ry
     estimated scf accuracy    <       0.00039184 Ry

     iteration #  4     ecut=    40.00 Ry     beta= 0.40
     Davidson diagonalization with overlap

---- Real-time Memory Report at c_bands before calling an iterative solver
           584 MiB given to the printing process from OS
             0 MiB allocation reported by mallinfo(arena+hblkhd)
        189415 MiB available memory on the node where the printing process lives
------------------
     ethr =  1.09E-06,  avg # of iterations =  8.0

     negative rho (up, down):  1.185E-02 0.000E+00

     total cpu time spent up to now is      171.4 secs

     total energy              =    -139.80850579 Ry
     estimated scf accuracy    <       0.00004058 Ry

     iteration #  5     ecut=    40.00 Ry     beta= 0.40
     Davidson diagonalization with overlap

---- Real-time Memory Report at c_bands before calling an iterative solver
           584 MiB given to the printing process from OS
             0 MiB allocation reported by mallinfo(arena+hblkhd)
        189307 MiB available memory on the node where the printing process lives
------------------
     ethr =  1.13E-07,  avg # of iterations =  2.0

     negative rho (up, down):  1.186E-02 0.000E+00

     total cpu time spent up to now is      179.8 secs

     total energy              =    -139.80850997 Ry
     estimated scf accuracy    <       0.00000357 Ry

     iteration #  6     ecut=    40.00 Ry     beta= 0.40
     Davidson diagonalization with overlap

---- Real-time Memory Report at c_bands before calling an iterative solver
           584 MiB given to the printing process from OS
             0 MiB allocation reported by mallinfo(arena+hblkhd)
        189189 MiB available memory on the node where the printing process lives
------------------
     ethr =  9.92E-09,  avg # of iterations =  2.0

     negative rho (up, down):  1.191E-02 0.000E+00

     total cpu time spent up to now is      189.1 secs

     End of self-consistent calculation

          k = 0.0000 0.0000 0.0000 (450991 PWs)   bands (ev):

   -28.8690 -24.3949 -21.5913 -21.5564 -19.0856 -18.3699 -17.4130 -17.2761
   -16.4531 -14.7054 -14.0403 -13.3726 -13.1235 -12.1261 -11.3057 -11.1517
    -9.3349  -9.1992  -4.3937  -4.1415  -4.0636  -2.7661

     occupation numbers 
     1.0000   1.0000   1.0000   1.0000   1.0000   1.0000   1.0000   1.0000
     1.0000   1.0000   1.0000   1.0000   1.0000   1.0000   1.0000   1.0000
     1.0000   1.0000   0.0000   0.0000   0.0000   0.0000

          k = 0.0000 0.3333 0.0000 (450515 PWs)   bands (ev):

   -28.8690 -24.3949 -21.5913 -21.5564 -19.0856 -18.3699 -17.4130 -17.2761
   -16.4530 -14.7054 -14.0403 -13.3726 -13.1235 -12.1261 -11.3057 -11.1517
    -9.3349  -9.1992  -4.3937  -4.1414  -4.0635  -2.7661

     occupation numbers 
     1.0000   1.0000   1.0000   1.0000   1.0000   1.0000   1.0000   1.0000
     1.0000   1.0000   1.0000   1.0000   1.0000   1.0000   1.0000   1.0000
     1.0000   1.0000   0.0000   0.0000   0.0000   0.0000

          k = 0.3333 0.0000 0.0000 (450515 PWs)   bands (ev):

   -28.8690 -24.3949 -21.5913 -21.5564 -19.0856 -18.3699 -17.4130 -17.2761
   -16.4530 -14.7054 -14.0403 -13.3726 -13.1235 -12.1261 -11.3057 -11.1517
    -9.3349  -9.1992  -4.3937  -4.1414  -4.0635  -2.7661

     occupation numbers 
     1.0000   1.0000   1.0000   1.0000   1.0000   1.0000   1.0000   1.0000
     1.0000   1.0000   1.0000   1.0000   1.0000   1.0000   1.0000   1.0000
     1.0000   1.0000   0.0000   0.0000   0.0000   0.0000

          k = 0.3333 0.3333 0.0000 (450333 PWs)   bands (ev):

   -28.8690 -24.3949 -21.5913 -21.5564 -19.0856 -18.3699 -17.4130 -17.2761
   -16.4530 -14.7054 -14.0403 -13.3726 -13.1235 -12.1261 -11.3057 -11.1517
    -9.3349  -9.1992  -4.3937  -4.1414  -4.0635  -2.7661

     occupation numbers 
     1.0000   1.0000   1.0000   1.0000   1.0000   1.0000   1.0000   1.0000
     1.0000   1.0000   1.0000   1.0000   1.0000   1.0000   1.0000   1.0000
     1.0000   1.0000   0.0000   0.0000   0.0000   0.0000

          k = 0.3333-0.3333 0.0000 (450333 PWs)   bands (ev):

   -28.8690 -24.3949 -21.5913 -21.5564 -19.0856 -18.3699 -17.4130 -17.2761
   -16.4530 -14.7054 -14.0403 -13.3726 -13.1235 -12.1261 -11.3057 -11.1517
    -9.3349  -9.1992  -4.3937  -4.1414  -4.0635  -2.7661

     occupation numbers 
     1.0000   1.0000   1.0000   1.0000   1.0000   1.0000   1.0000   1.0000
     1.0000   1.0000   1.0000   1.0000   1.0000   1.0000   1.0000   1.0000
     1.0000   1.0000   0.0000   0.0000   0.0000   0.0000

     the Fermi energy is    -7.8462 ev

!    total energy              =    -139.80851040 Ry
     estimated scf accuracy    <       0.00000046 Ry
     smearing contrib. (-TS)   =       0.00000000 Ry
     internal energy E=F+TS    =    -139.80851040 Ry

     The total energy is F=E-TS. E is the sum of the following terms:
     one-electron contribution =    -552.46196338 Ry
     hartree contribution      =     275.72859796 Ry
     xc contribution           =     -38.35066896 Ry
     ewald contribution        =     212.29347722 Ry
     DFT-D3 Dispersion         =      -0.00961610 Ry
     one-center paw contrib.   =     -37.00833713 Ry
      -> PAW hartree energy AE =       0.00000000 Ry
      -> PAW hartree energy PS =       0.00000000 Ry
      -> PAW xc energy AE      =       0.00000000 Ry
      -> PAW xc energy PS      =       0.00000000 Ry
      -> total E_H with PAW    =     275.72859796 Ry
      -> total E_XC with PAW   =     -38.35066896 Ry

     convergence has been achieved in   6 iterations

     negative rho (up, down):  1.191E-02 0.000E+00

     Forces acting on atoms (cartesian axes, Ry/au):

     atom    1 type  1   force =     0.04665458    0.01144946    0.18302091
     atom    2 type  2   force =    -0.05442064    0.00120612   -0.01192977
     atom    3 type  2   force =     0.02895121    0.04447963   -0.00856548
     atom    4 type  2   force =     0.02871221   -0.04739010   -0.00687310
     atom    5 type  2   force =     0.00333003    0.02074758    0.00170093
     atom    6 type  2   force =     0.00338097   -0.02085973    0.00260499
     atom    7 type  2   force =     0.01432911   -0.00023290   -0.00341294
     atom    8 type  3   force =    -0.00334629   -0.00408568   -0.00079595
     atom    9 type  3   force =    -0.00316725    0.00428708   -0.00107723
     atom   10 type  3   force =    -0.00676440   -0.00685173    0.00197224
     atom   11 type  3   force =    -0.00661194    0.00707641    0.00166575
     atom   12 type  3   force =    -0.00693853    0.00007170    0.00089617
     atom   13 type  3   force =    -0.02393128   -0.02768786   -0.03473243
     atom   14 type  3   force =    -0.02424653    0.02456077   -0.03956451
     atom   15 type  3   force =     0.00406877   -0.00677075   -0.08490958
     The non-local contrib.  to forces
     atom    1 type  1   force =    -0.14491802    0.02916026    0.41837009
     atom    2 type  2   force =    -0.69721602    0.01147338    0.12055162
     atom    3 type  2   force =    -0.07371003   -0.03677123    0.02635728
     atom    4 type  2   force =    -0.07102420    0.03689454    0.02475456
     atom    5 type  2   force =    -0.09071017    0.00009499    0.02388718
     atom    6 type  2   force =    -0.09057064    0.00259447    0.02369613
     atom    7 type  2   force =    -0.04231665    0.00111063    0.00999785
     atom    8 type  3   force =     0.03313610   -0.07043771   -0.00647079
     atom    9 type  3   force =     0.03452842    0.06937515   -0.00956905
     atom   10 type  3   force =    -0.03963214   -0.06728970    0.01043331
     atom   11 type  3   force =    -0.03824325    0.06847896    0.00742828
     atom   12 type  3   force =    -0.07723557    0.00117221    0.01759333
     atom   13 type  3   force =     0.05109116    0.09413463    0.01883027
     atom   14 type  3   force =     0.04984777   -0.09255474    0.02807068
     atom   15 type  3   force =     0.00467696   -0.00451653   -0.07573255
     The ionic contribution  to forces
     atom    1 type  1   force =    -8.10571063    0.06876262    1.12817008
     atom    2 type  2   force =    -2.54271844    0.04282725    0.64189728
     atom    3 type  2   force =    -1.52953781    7.31168465    0.27807552
     atom    4 type  2   force =    -1.67420926   -7.26806133    0.59446828
     atom    5 type  2   force =     4.40672087    6.39773173   -1.10880902
     atom    6 type  2   force =     4.27490458   -6.53070468   -0.82113643
     atom    7 type  2   force =     7.69043325   -0.11574388   -1.75314227
     atom    8 type  3   force =    -1.25181925    3.28437917    0.23766044
     atom    9 type  3   force =    -1.31737471   -3.24470226    0.38184602
     atom   10 type  3   force =     1.79333647    2.92484378   -0.46603168
     atom   11 type  3   force =     1.73305396   -2.97871359   -0.33523825
     atom   12 type  3   force =     3.36704884   -0.05117485   -0.76899781
     atom   13 type  3   force =    -2.80117124   -3.01210295   -0.55861052
     atom   14 type  3   force =    -2.76447207    2.97694798   -0.86953148
     atom   15 type  3   force =    -1.27848457    0.19402636    3.41937984
     The local contribution  to forces
     atom    1 type  1   force =     8.29721814   -0.08623902   -1.36028711
     atom    2 type  2   force =     3.16830290   -0.05286048   -0.77149963
     atom    3 type  2   force =     1.63063381   -7.22875823   -0.31293643
     atom    4 type  2   force =     1.77217926    7.18205823   -0.62553460
     atom    5 type  2   force =    -4.31364334   -6.37543077    1.08696451
     atom    6 type  2   force =    -4.18172670    6.50568507    0.80026301
     atom    7 type  2   force =    -7.63267360    0.11447279    1.73961585
     atom    8 type  3   force =     1.21542768   -3.21799686   -0.23208437
     atom    9 type  3   force =     1.27975244    3.17958002   -0.37344930
     atom   10 type  3   force =    -1.76044985   -2.86440420    0.45754525
     atom   11 type  3   force =    -1.70139535    2.91731282    0.32944823
     atom   12 type  3   force =    -3.29673236    0.05008374    0.75228129
     atom   13 type  3   force =     2.72629462    2.89022878    0.50499954
     atom   14 type  3   force =     2.69051431   -2.85977326    0.80185110
     atom   15 type  3   force =     1.27768553   -0.19626244   -3.42851217
     The core correction contribution to forces
     atom    1 type  1   force =     0.00033371   -0.00022927   -0.00365476
     atom    2 type  2   force =     0.01706022   -0.00018928   -0.00326332
     atom    3 type  2   force =     0.00156657   -0.00183718   -0.00033036
     atom    4 type  2   force =     0.00173483    0.00189204   -0.00082902
     atom    5 type  2   force =     0.00093720   -0.00177291   -0.00037660
     atom    6 type  2   force =     0.00078829    0.00172388   -0.00026668
     atom    7 type  2   force =    -0.00119348   -0.00002442    0.00013857
     atom    8 type  3   force =     0.00000000    0.00000000    0.00000000
     atom    9 type  3   force =     0.00000000    0.00000000    0.00000000
     atom   10 type  3   force =     0.00000000    0.00000000    0.00000000
     atom   11 type  3   force =     0.00000000    0.00000000    0.00000000
     atom   12 type  3   force =     0.00000000    0.00000000    0.00000000
     atom   13 type  3   force =     0.00000000    0.00000000    0.00000000
     atom   14 type  3   force =     0.00000000    0.00000000    0.00000000
     atom   15 type  3   force =     0.00000000    0.00000000    0.00000000
     The Hubbard contrib.    to forces
     atom    1 type  1   force =     0.00000000    0.00000000    0.00000000
     atom    2 type  2   force =     0.00000000    0.00000000    0.00000000
     atom    3 type  2   force =     0.00000000    0.00000000    0.00000000
     atom    4 type  2   force =     0.00000000    0.00000000    0.00000000
     atom    5 type  2   force =     0.00000000    0.00000000    0.00000000
     atom    6 type  2   force =     0.00000000    0.00000000    0.00000000
     atom    7 type  2   force =     0.00000000    0.00000000    0.00000000
     atom    8 type  3   force =     0.00000000    0.00000000    0.00000000
     atom    9 type  3   force =     0.00000000    0.00000000    0.00000000
     atom   10 type  3   force =     0.00000000    0.00000000    0.00000000
     atom   11 type  3   force =     0.00000000    0.00000000    0.00000000
     atom   12 type  3   force =     0.00000000    0.00000000    0.00000000
     atom   13 type  3   force =     0.00000000    0.00000000    0.00000000
     atom   14 type  3   force =     0.00000000    0.00000000    0.00000000
     atom   15 type  3   force =     0.00000000    0.00000000    0.00000000
     The SCF correction term to forces
     atom    1 type  1   force =    -0.00017514    0.00000021    0.00040847
     atom    2 type  2   force =     0.00004636   -0.00003540    0.00039829
     atom    3 type  2   force =    -0.00002256   -0.00000845    0.00020960
     atom    4 type  2   force =     0.00001828    0.00000075    0.00020072
     atom    5 type  2   force =     0.00013504   -0.00000380   -0.00000953
     atom    6 type  2   force =     0.00009634   -0.00002153   -0.00000088
     atom    7 type  2   force =     0.00000276   -0.00004080   -0.00002582
     atom    8 type  3   force =    -0.00003821    0.00001581    0.00004564
     atom    9 type  3   force =    -0.00002643   -0.00000248    0.00004347
     atom   10 type  3   force =     0.00001159    0.00000293   -0.00000088
     atom   11 type  3   force =     0.00000288    0.00000514    0.00000123
     atom   12 type  3   force =     0.00001315   -0.00000371   -0.00000749
     atom   13 type  3   force =     0.00000412    0.00001340    0.00005189
     atom   14 type  3   force =     0.00000161   -0.00001059    0.00005358
     atom   15 type  3   force =     0.00000799   -0.00000365   -0.00003824

     DFT-D3 dispersion contribution to forces:
     atom    1 type  1   force =    -0.00006704    0.00000041   -0.00001178
     atom    2 type  2   force =     0.00013077   -0.00000361   -0.00003993
     atom    3 type  2   force =     0.00004765    0.00017581    0.00003299
     atom    4 type  2   force =     0.00003971   -0.00016858    0.00004105
     atom    5 type  2   force =    -0.00008315    0.00013408    0.00001848
     atom    6 type  2   force =    -0.00008448   -0.00013119    0.00002393
     atom    7 type  2   force =     0.00010324   -0.00000148   -0.00002303
     atom    8 type  3   force =    -0.00002619   -0.00004036    0.00002722
     atom    9 type  3   force =    -0.00002056    0.00004240    0.00002571
     atom   10 type  3   force =    -0.00000405    0.00000121    0.00000032
     atom   11 type  3   force =    -0.00000375   -0.00000117    0.00000034
     atom   12 type  3   force =    -0.00000617    0.00000006    0.00000092
     atom   13 type  3   force =    -0.00012354    0.00004403   -0.00002954
     atom   14 type  3   force =    -0.00011173   -0.00004287   -0.00003431
     atom   15 type  3   force =     0.00020928   -0.00000874   -0.00003238

     Total force =     0.242706     Total SCF correction =     0.000700

     DFT-D3 dispersion Force =     0.000485


     Computing stress (Cartesian axis) and pressure


     negative rho (up, down):  1.191E-02 0.000E+00
          total   stress  (Ry/bohr**3)                   (kbar)     P=        0.03
   0.00000022  -0.00000001   0.00000019            0.03       -0.00        0.03
  -0.00000001   0.00000223  -0.00000019           -0.00        0.33       -0.03
   0.00000019  -0.00000019  -0.00000189            0.03       -0.03       -0.28

     kinetic stress (kbar)     57.67      0.02      1.32
                                0.02     56.87      0.13
                                1.32      0.13     63.49

     local   stress (kbar)   -419.17      2.49     72.17
                                2.49   -333.07      4.33
                               72.17      4.33   -100.51

     nonloc. stress (kbar)     13.06     -0.00     -0.16
                               -0.00     13.20     -0.02
                               -0.16     -0.02     12.28

     hartree stress (kbar)    183.60     -1.03    -28.50
                               -1.03    143.83     -1.58
                              -28.50     -1.58     57.25

     exc-cor stress (kbar)     -4.82     -0.00     -0.09
                               -0.00     -4.78     -0.01
                               -0.09     -0.01     -5.22

     corecor stress (kbar)     -9.94      0.00      0.03
                                0.00    -10.00      0.00
                                0.03      0.00     -9.82

     ewald   stress (kbar)    179.64     -1.47    -44.73
                               -1.47    134.28     -2.88
                              -44.73     -2.88    -17.74

     hubbard stress (kbar)      0.00      0.00      0.00
                                0.00      0.00      0.00
                                0.00      0.00      0.00

     DFT-D   stress (kbar)      0.00      0.00      0.00
                                0.00      0.00     -0.00
                                0.00     -0.00     -0.00

     XDM     stress (kbar)      0.00      0.00      0.00
                                0.00      0.00      0.00
                                0.00      0.00      0.00

     dft-nl  stress (kbar)      0.00      0.00      0.00
                                0.00      0.00      0.00
                                0.00      0.00      0.00

     TS-vdW  stress (kbar)      0.00      0.00      0.00
                                0.00      0.00      0.00
                                0.00      0.00      0.00

     MDB     stress (kbar)      0.00      0.00      0.00
                                0.00      0.00      0.00
                                0.00      0.00      0.00

     3D-RISM stress (kbar)      0.00      0.00      0.00
                                0.00      0.00      0.00
                                0.00      0.00      0.00

     Energy error            =      6.8E-03 Ry
     Gradient error          =      1.8E-01 Ry/Bohr

     number of scf cycles    =   2
     number of bfgs steps    =   1

     energy             old  =    -139.8016948012 Ry
     energy             new  =    -139.8085103962 Ry

     CASE: energy            _new < energy            _old

     new trust radius        =       0.1006315292 bohr
     new conv_thr            =       0.0000010000 Ry


ATOMIC_POSITIONS (angstrom)
N               -2.2585555496        0.2471708011        0.5412999664
C               -0.8075689441        0.2233456915        0.2120544767
C               -0.1547841782        1.4342830575        0.0572890987
C               -0.1794794345       -1.0057462727        0.1106122711
C                1.2011439786        1.4013523316       -0.2495122036
C                1.1767743792       -1.0134949118       -0.1961152861
C                1.8705590589        0.1833473258       -0.3805382800
H               -0.6692441451        2.3855489762        0.1569103135
H               -0.7131559771       -1.9406016027        0.2521484524
H                1.7425945279        2.3357511391       -0.3929361697
H                1.6987651601       -1.9641739016       -0.2978217289
H                2.9325565302        0.1672620892       -0.6233286409
H               -2.7573443481       -0.6266955880        0.2896398906
H               -2.7460557113        1.0961275287        0.2027588644
H               -2.3614933747        0.3073372800        1.5853396596



     Writing config-only to output data dir ./tmp/aniline_protonated.save/ :
     XML data file
     NEW-OLD atomic charge density approx. for the potential

     negative rho (up, down):  1.160E-02 0.000E+00

     total cpu time spent up to now is      202.5 secs

     Self-consistent Calculation

     iteration #  1     ecut=    40.00 Ry     beta= 0.40
     Davidson diagonalization with overlap

---- Real-time Memory Report at c_bands before calling an iterative solver
           584 MiB given to the printing process from OS
             0 MiB allocation reported by mallinfo(arena+hblkhd)
        190779 MiB available memory on the node where the printing process lives
------------------
     ethr =  1.00E-06,  avg # of iterations = 20.0

     negative rho (up, down):  1.167E-02 0.000E+00

     total cpu time spent up to now is      223.3 secs

     total energy              =    -139.82724804 Ry
     estimated scf accuracy    <       0.00319700 Ry

     iteration #  2     ecut=    40.00 Ry     beta= 0.40
     Davidson diagonalization with overlap

---- Real-time Memory Report at c_bands before calling an iterative solver
           584 MiB given to the printing process from OS
             0 MiB allocation reported by mallinfo(arena+hblkhd)
        189635 MiB available memory on the node where the printing process lives
------------------
     ethr =  8.88E-06,  avg # of iterations =  2.0

     negative rho (up, down):  1.179E-02 0.000E+00

     total cpu time spent up to now is      231.8 secs

     total energy              =    -139.82739729 Ry
     estimated scf accuracy    <       0.00051211 Ry

     iteration #  3     ecut=    40.00 Ry     beta= 0.40
     Davidson diagonalization with overlap

---- Real-time Memory Report at c_bands before calling an iterative solver
           584 MiB given to the printing process from OS
             0 MiB allocation reported by mallinfo(arena+hblkhd)
        189526 MiB available memory on the node where the printing process lives
------------------
     ethr =  1.42E-06,  avg # of iterations =  5.0

     negative rho (up, down):  1.187E-02 0.000E+00

     total cpu time spent up to now is      241.0 secs

     total energy              =    -139.82745165 Ry
     estimated scf accuracy    <       0.00006058 Ry

     iteration #  4     ecut=    40.00 Ry     beta= 0.40
     Davidson diagonalization with overlap

---- Real-time Memory Report at c_bands before calling an iterative solver
           584 MiB given to the printing process from OS
             0 MiB allocation reported by mallinfo(arena+hblkhd)
        189401 MiB available memory on the node where the printing process lives
------------------
     ethr =  1.68E-07,  avg # of iterations =  2.0

     negative rho (up, down):  1.192E-02 0.000E+00

     total cpu time spent up to now is      249.4 secs

     total energy              =    -139.82745957 Ry
     estimated scf accuracy    <       0.00000927 Ry

     iteration #  5     ecut=    40.00 Ry     beta= 0.40
     Davidson diagonalization with overlap

---- Real-time Memory Report at c_bands before calling an iterative solver
           584 MiB given to the printing process from OS
             0 MiB allocation reported by mallinfo(arena+hblkhd)
        189293 MiB available memory on the node where the printing process lives
------------------
     ethr =  2.57E-08,  avg # of iterations =  2.0

     negative rho (up, down):  1.199E-02 0.000E+00

     total cpu time spent up to now is      257.9 secs

     End of self-consistent calculation

          k = 0.0000 0.0000 0.0000 (450991 PWs)   bands (ev):

   -28.8635 -24.2803 -21.5584 -21.4985 -18.8327 -18.3917 -17.7235 -17.2234
   -16.4321 -14.7793 -13.9323 -13.3470 -13.1912 -12.0601 -11.3728 -11.1135
    -9.2682  -9.2315  -4.2553  -4.1884  -4.1077  -2.6138

     occupation numbers 
     1.0000   1.0000   1.0000   1.0000   1.0000   1.0000   1.0000   1.0000
     1.0000   1.0000   1.0000   1.0000   1.0000   1.0000   1.0000   1.0000
     1.0000   1.0000   0.0000   0.0000   0.0000   0.0000

          k = 0.0000 0.3333 0.0000 (450515 PWs)   bands (ev):

   -28.8635 -24.2803 -21.5584 -21.4985 -18.8326 -18.3916 -17.7235 -17.2234
   -16.4321 -14.7793 -13.9323 -13.3470 -13.1912 -12.0601 -11.3728 -11.1135
    -9.2681  -9.2315  -4.2552  -4.1884  -4.1076  -2.6138

     occupation numbers 
     1.0000   1.0000   1.0000   1.0000   1.0000   1.0000   1.0000   1.0000
     1.0000   1.0000   1.0000   1.0000   1.0000   1.0000   1.0000   1.0000
     1.0000   1.0000   0.0000   0.0000   0.0000   0.0000

          k = 0.3333 0.0000 0.0000 (450515 PWs)   bands (ev):

   -28.8635 -24.2802 -21.5584 -21.4985 -18.8326 -18.3916 -17.7235 -17.2234
   -16.4321 -14.7792 -13.9323 -13.3470 -13.1912 -12.0601 -11.3728 -11.1135
    -9.2681  -9.2315  -4.2552  -4.1884  -4.1077  -2.6138

     occupation numbers 
     1.0000   1.0000   1.0000   1.0000   1.0000   1.0000   1.0000   1.0000
     1.0000   1.0000   1.0000   1.0000   1.0000   1.0000   1.0000   1.0000
     1.0000   1.0000   0.0000   0.0000   0.0000   0.0000

          k = 0.3333 0.3333 0.0000 (450333 PWs)   bands (ev):

   -28.8635 -24.2802 -21.5584 -21.4985 -18.8326 -18.3916 -17.7235 -17.2234
   -16.4321 -14.7792 -13.9323 -13.3470 -13.1912 -12.0601 -11.3728 -11.1135
    -9.2681  -9.2315  -4.2552  -4.1884  -4.1076  -2.6138

     occupation numbers 
     1.0000   1.0000   1.0000   1.0000   1.0000   1.0000   1.0000   1.0000
     1.0000   1.0000   1.0000   1.0000   1.0000   1.0000   1.0000   1.0000
     1.0000   1.0000   0.0000   0.0000   0.0000   0.0000

          k = 0.3333-0.3333 0.0000 (450333 PWs)   bands (ev):

   -28.8635 -24.2802 -21.5584 -21.4985 -18.8326 -18.3916 -17.7235 -17.2234
   -16.4321 -14.7792 -13.9323 -13.3470 -13.1912 -12.0601 -11.3728 -11.1135
    -9.2681  -9.2315  -4.2552  -4.1884  -4.1076  -2.6138

     occupation numbers 
     1.0000   1.0000   1.0000   1.0000   1.0000   1.0000   1.0000   1.0000
     1.0000   1.0000   1.0000   1.0000   1.0000   1.0000   1.0000   1.0000
     1.0000   1.0000   0.0000   0.0000   0.0000   0.0000

     the Fermi energy is    -7.8156 ev

!    total energy              =    -139.82746057 Ry
     estimated scf accuracy    <       0.00000100 Ry
     smearing contrib. (-TS)   =       0.00000000 Ry
     internal energy E=F+TS    =    -139.82746057 Ry

     The total energy is F=E-TS. E is the sum of the following terms:
     one-electron contribution =    -551.39099878 Ry
     hartree contribution      =     275.20094192 Ry
     xc contribution           =     -38.33428653 Ry
     ewald contribution        =     211.71345298 Ry
     DFT-D3 Dispersion         =      -0.00963221 Ry
     one-center paw contrib.   =     -37.00693794 Ry
      -> PAW hartree energy AE =       0.00000000 Ry
      -> PAW hartree energy PS =       0.00000000 Ry
      -> PAW xc energy AE      =       0.00000000 Ry
      -> PAW xc energy PS      =       0.00000000 Ry
      -> total E_H with PAW    =     275.20094192 Ry
      -> total E_XC with PAW   =     -38.33428653 Ry

     convergence has been achieved in   5 iterations

     negative rho (up, down):  1.199E-02 0.000E+00

     Forces acting on atoms (cartesian axes, Ry/au):

     atom    1 type  1   force =    -0.01199296    0.00316007    0.06185925
     atom    2 type  2   force =    -0.00994139    0.00002040   -0.00589508
     atom    3 type  2   force =     0.00108302    0.00045774   -0.00327351
     atom    4 type  2   force =     0.00073229   -0.00031575   -0.00330617
     atom    5 type  2   force =     0.01389211    0.00485130   -0.00214784
     atom    6 type  2   force =     0.01385734   -0.00555486   -0.00194917
     atom    7 type  2   force =    -0.00398274    0.00029223    0.00150751
     atom    8 type  3   force =    -0.00520213    0.00614042    0.00022334
     atom    9 type  3   force =    -0.00546415   -0.00643300    0.00047580
     atom   10 type  3   force =    -0.00068469    0.00123246    0.00061239
     atom   11 type  3   force =    -0.00056280   -0.00129217    0.00064661
     atom   12 type  3   force =    -0.00024515   -0.00001729   -0.00039464
     atom   13 type  3   force =     0.00405497    0.01580987   -0.01358145
     atom   14 type  3   force =     0.00261350   -0.01569056   -0.01420350
     atom   15 type  3   force =     0.00184278   -0.00266086   -0.02057354
     The non-local contrib.  to forces
     atom    1 type  1   force =    -0.18998220    0.01632125    0.21260140
     atom    2 type  2   force =    -0.65624748    0.01105886    0.14903250
     atom    3 type  2   force =    -0.10243722   -0.07852365    0.02471843
     atom    4 type  2   force =    -0.10045618    0.08205029    0.02131260
     atom    5 type  2   force =    -0.07891746   -0.01804696    0.01995145
     atom    6 type  2   force =    -0.07886465    0.02012874    0.01900415
     atom    7 type  2   force =    -0.06262568    0.00136244    0.01439906
     atom    8 type  3   force =     0.03520766   -0.07121589   -0.00685969
     atom    9 type  3   force =     0.03670561    0.07015976   -0.01001715
     atom   10 type  3   force =    -0.04044348   -0.06864996    0.01073131
     atom   11 type  3   force =    -0.03902463    0.06989587    0.00766821
     atom   12 type  3   force =    -0.07845731    0.00118963    0.01790610
     atom   13 type  3   force =     0.04637283    0.08267340    0.02307033
     atom   14 type  3   force =     0.04552571   -0.08084272    0.03140080
     atom   15 type  3   force =     0.00790139   -0.00540151   -0.09265913
     The ionic contribution  to forces
     atom    1 type  1   force =    -8.13951444    0.07991424    1.39099530
     atom    2 type  2   force =    -2.41868357    0.02116259    0.32514926
     atom    3 type  2   force =    -1.60598263    7.14938658    0.28226279
     atom    4 type  2   force =    -1.75537808   -7.09957076    0.59192601
     atom    5 type  2   force =     4.44749959    6.28275860   -1.10813778
     atom    6 type  2   force =     4.31788650   -6.41556787   -0.82480308
     atom    7 type  2   force =     7.60173696   -0.11405528   -1.74245924
     atom    8 type  3   force =    -1.28794549    3.29134452    0.23973114
     atom    9 type  3   force =    -1.35608218   -3.25110114    0.38476679
     atom   10 type  3   force =     1.81361455    2.94689342   -0.47346672
     atom   11 type  3   force =     1.75297786   -3.00200340   -0.34175291
     atom   12 type  3   force =     3.38300648   -0.05138893   -0.77418380
     atom   13 type  3   force =    -2.71700768   -2.81125556   -0.67552681
     atom   14 type  3   force =    -2.68739249    2.76623684   -0.97092857
     atom   15 type  3   force =    -1.34873538    0.20724614    3.69642762
     The local contribution  to forces
     atom    1 type  1   force =     8.31608366   -0.09302717   -1.54132925
     atom    2 type  2   force =     3.04930364   -0.03203126   -0.47650229
     atom    3 type  2   force =     1.70738751   -7.07019426   -0.30972736
     atom    4 type  2   force =     1.85424998    7.01706836   -0.61563836
     atom    5 type  2   force =    -4.35497337   -6.25894704    1.08631036
     atom    6 type  2   force =    -4.22527280    6.38900144    0.80400779
     atom    7 type  2   force =    -7.54262556    0.11301740    1.72957931
     atom    8 type  3   force =     1.24761040   -3.21395591   -0.23269640
     atom    9 type  3   force =     1.31397715    3.17447944   -0.37432053
     atom   10 type  3   force =    -1.77375715   -2.87702419    0.46330488
     atom   11 type  3   force =    -1.71441605    2.93083606    0.33468730
     atom   12 type  3   force =    -3.30471344    0.05018527    0.75583789
     atom   13 type  3   force =     2.67481647    2.74440716    0.63874488
     atom   14 type  3   force =     2.64459456   -2.70110678    0.92520307
     atom   15 type  3   force =     1.34245902   -0.20449596   -3.62437811
     The core correction contribution to forces
     atom    1 type  1   force =     0.00097274   -0.00009051   -0.00144160
     atom    2 type  2   force =     0.01585453   -0.00016455   -0.00349100
     atom    3 type  2   force =     0.00231228   -0.00053163   -0.00043105
     atom    4 type  2   force =     0.00251632    0.00047405   -0.00082796
     atom    5 type  2   force =     0.00052854   -0.00111751   -0.00026907
     atom    6 type  2   force =     0.00036591    0.00109854   -0.00016737
     atom    7 type  2   force =    -0.00056656   -0.00002742    0.00001338
     atom    8 type  3   force =     0.00000000    0.00000000    0.00000000
     atom    9 type  3   force =     0.00000000    0.00000000    0.00000000
     atom   10 type  3   force =     0.00000000    0.00000000    0.00000000
     atom   11 type  3   force =     0.00000000    0.00000000    0.00000000
     atom   12 type  3   force =     0.00000000    0.00000000    0.00000000
     atom   13 type  3   force =     0.00000000    0.00000000    0.00000000
     atom   14 type  3   force =     0.00000000    0.00000000    0.00000000
     atom   15 type  3   force =     0.00000000    0.00000000    0.00000000
     The Hubbard contrib.    to forces
     atom    1 type  1   force =     0.00000000    0.00000000    0.00000000
     atom    2 type  2   force =     0.00000000    0.00000000    0.00000000
     atom    3 type  2   force =     0.00000000    0.00000000    0.00000000
     atom    4 type  2   force =     0.00000000    0.00000000    0.00000000
     atom    5 type  2   force =     0.00000000    0.00000000    0.00000000
     atom    6 type  2   force =     0.00000000    0.00000000    0.00000000
     atom    7 type  2   force =     0.00000000    0.00000000    0.00000000
     atom    8 type  3   force =     0.00000000    0.00000000    0.00000000
     atom    9 type  3   force =     0.00000000    0.00000000    0.00000000
     atom   10 type  3   force =     0.00000000    0.00000000    0.00000000
     atom   11 type  3   force =     0.00000000    0.00000000    0.00000000
     atom   12 type  3   force =     0.00000000    0.00000000    0.00000000
     atom   13 type  3   force =     0.00000000    0.00000000    0.00000000
     atom   14 type  3   force =     0.00000000    0.00000000    0.00000000
     atom   15 type  3   force =     0.00000000    0.00000000    0.00000000
     The SCF correction term to forces
     atom    1 type  1   force =     0.00057359    0.00004601    0.00097856
     atom    2 type  2   force =    -0.00024018    0.00000161   -0.00008811
     atom    3 type  2   force =    -0.00018245    0.00014455   -0.00016814
     atom    4 type  2   force =    -0.00017938   -0.00015956   -0.00015798
     atom    5 type  2   force =    -0.00010746    0.00006927   -0.00006588
     atom    6 type  2   force =    -0.00011844   -0.00007652   -0.00005945
     atom    7 type  2   force =     0.00004624    0.00000025   -0.00004613
     atom    8 type  3   force =     0.00000125    0.00001330   -0.00002064
     atom    9 type  3   force =     0.00000676   -0.00001313   -0.00002091
     atom   10 type  3   force =    -0.00003355    0.00002133   -0.00000215
     atom   11 type  3   force =    -0.00003524   -0.00002183   -0.00000087
     atom   12 type  3   force =    -0.00002163    0.00000043    0.00000187
     atom   13 type  3   force =     0.00004294   -0.00004796    0.00011864
     atom   14 type  3   force =     0.00004245    0.00006108    0.00011513
     atom   15 type  3   force =     0.00005443    0.00000368    0.00004239

     DFT-D3 dispersion contribution to forces:
     atom    1 type  1   force =    -0.00007204   -0.00000004    0.00001185
     atom    2 type  2   force =     0.00012593   -0.00000316   -0.00003841
     atom    3 type  2   force =     0.00003980    0.00017986    0.00002884
     atom    4 type  2   force =     0.00003390   -0.00017443    0.00003652
     atom    5 type  2   force =    -0.00008346    0.00013864    0.00002010
     atom    6 type  2   force =    -0.00008492   -0.00013549    0.00002580
     atom    7 type  2   force =     0.00010612   -0.00000146   -0.00002185
     atom    8 type  3   force =    -0.00002169   -0.00004190    0.00002594
     atom    9 type  3   force =    -0.00001722    0.00004578    0.00002461
     atom   10 type  3   force =    -0.00001078   -0.00000443    0.00000209
     atom   11 type  3   force =    -0.00001048    0.00000483    0.00000188
     atom   12 type  3   force =    -0.00000497    0.00000002    0.00000032
     atom   13 type  3   force =    -0.00011532    0.00003654   -0.00003148
     atom   14 type  3   force =    -0.00010246   -0.00003526   -0.00003692
     atom   15 type  3   force =     0.00021758   -0.00000951   -0.00004929

     Total force =     0.078002     Total SCF correction =     0.001271

     DFT-D3 dispersion Force =     0.000490


     Computing stress (Cartesian axis) and pressure


     negative rho (up, down):  1.199E-02 0.000E+00
          total   stress  (Ry/bohr**3)                   (kbar)     P=       -0.04
   0.00000017  -0.00000002  -0.00000018            0.03       -0.00       -0.03
  -0.00000002  -0.00000023  -0.00000004           -0.00       -0.03       -0.01
  -0.00000018  -0.00000004  -0.00000075           -0.03       -0.01       -0.11

     kinetic stress (kbar)     57.58      0.02      1.32
                                0.02     56.96      0.12
                                1.32      0.12     63.31

     local   stress (kbar)   -417.71      2.57     73.84
                                2.57   -331.80      4.23
                               73.84      4.23   -101.67

     nonloc. stress (kbar)     13.05     -0.00     -0.18
                               -0.00     13.12     -0.02
                               -0.18     -0.02     12.28

     hartree stress (kbar)    182.77     -1.07    -29.17
                               -1.07    143.71     -1.56
                              -29.17     -1.56     57.46

     exc-cor stress (kbar)     -4.81     -0.00     -0.10
                               -0.00     -4.78     -0.01
                               -0.10     -0.01     -5.22

     corecor stress (kbar)     -9.95      0.00      0.03
                                0.00     -9.99      0.00
                                0.03      0.00     -9.82

     ewald   stress (kbar)    179.09     -1.52    -45.77
                               -1.52    132.74     -2.77
                              -45.77     -2.77    -16.46

     hubbard stress (kbar)      0.00      0.00      0.00
                                0.00      0.00      0.00
                                0.00      0.00      0.00

     DFT-D   stress (kbar)      0.00      0.00      0.00
                                0.00      0.00     -0.00
                                0.00     -0.00     -0.00

     XDM     stress (kbar)      0.00      0.00      0.00
                                0.00      0.00      0.00
                                0.00      0.00      0.00

     dft-nl  stress (kbar)      0.00      0.00      0.00
                                0.00      0.00      0.00
                                0.00      0.00      0.00

     TS-vdW  stress (kbar)      0.00      0.00      0.00
                                0.00      0.00      0.00
                                0.00      0.00      0.00

     MDB     stress (kbar)      0.00      0.00      0.00
                                0.00      0.00      0.00
                                0.00      0.00      0.00

     3D-RISM stress (kbar)      0.00      0.00      0.00
                                0.00      0.00      0.00
                                0.00      0.00      0.00

     Energy error            =      1.9E-02 Ry
     Gradient error          =      6.2E-02 Ry/Bohr

     number of scf cycles    =   3
     number of bfgs steps    =   2

     energy             old  =    -139.8085103962 Ry
     energy             new  =    -139.8274605693 Ry

     CASE: energy            _new < energy            _old

     new trust radius        =       0.0728705882 bohr
     new conv_thr            =       0.0000010000 Ry


ATOMIC_POSITIONS (angstrom)
N               -2.2683769335        0.2491000580        0.5785397861
C               -0.8104834822        0.2232506368        0.2068924992
C               -0.1545773792        1.4338885203        0.0551799401
C               -0.1795025784       -1.0052128693        0.1084421859
C                1.2103997495        1.4040747222       -0.2508886473
C                1.1860205525       -1.0166866938       -0.1973785990
C                1.8673283491        0.1835496812       -0.3793799400
H               -0.6729760126        2.3901557952        0.1570746759
H               -0.7170799640       -1.9454039911        0.2525051287
H                1.7422321242        2.3369180009       -0.3925549897
H                1.6984803507       -1.9653854756       -0.2974032414
[...]

          k = 0.3333 0.3333 0.0000 (450333 PWs)   bands (ev):

   -28.9071 -24.2273 -21.5131 -21.4781 -18.7338 -18.3346 -18.1171 -17.1476
   -16.3830 -14.7599 -13.8883 -13.3588 -13.1603 -12.0410 -11.3431 -11.1549
    -9.2853  -9.2146  -4.2606  -4.1571  -4.1236  -2.5663

     occupation numbers 
     1.0000   1.0000   1.0000   1.0000   1.0000   1.0000   1.0000   1.0000
     1.0000   1.0000   1.0000   1.0000   1.0000   1.0000   1.0000   1.0000
     1.0000   1.0000   0.0000   0.0000   0.0000   0.0000

          k = 0.3333-0.3333 0.0000 (450333 PWs)   bands (ev):

   -28.9071 -24.2273 -21.5131 -21.4781 -18.7338 -18.3346 -18.1171 -17.1476
   -16.3830 -14.7599 -13.8883 -13.3588 -13.1603 -12.0410 -11.3431 -11.1549
    -9.2853  -9.2146  -4.2606  -4.1571  -4.1236  -2.5663

     occupation numbers 
     1.0000   1.0000   1.0000   1.0000   1.0000   1.0000   1.0000   1.0000
     1.0000   1.0000   1.0000   1.0000   1.0000   1.0000   1.0000   1.0000
     1.0000   1.0000   0.0000   0.0000   0.0000   0.0000

     the Fermi energy is    -7.7909 ev

!    total energy              =    -139.83208459 Ry
     estimated scf accuracy    <          7.7E-09 Ry
     smearing contrib. (-TS)   =       0.00000000 Ry
     internal energy E=F+TS    =    -139.83208460 Ry

     The total energy is F=E-TS. E is the sum of the following terms:
     one-electron contribution =    -550.07836958 Ry
     hartree contribution      =     274.53472347 Ry
     xc contribution           =     -38.31348648 Ry
     ewald contribution        =     211.04006908 Ry
     DFT-D3 Dispersion         =      -0.00962157 Ry
     one-center paw contrib.   =     -37.00539952 Ry
      -> PAW hartree energy AE =       0.00000000 Ry
      -> PAW hartree energy PS =       0.00000000 Ry
      -> PAW xc energy AE      =       0.00000000 Ry
      -> PAW xc energy PS      =       0.00000000 Ry
      -> total E_H with PAW    =     274.53472347 Ry
      -> total E_XC with PAW   =     -38.31348648 Ry

     convergence has been achieved in   4 iterations

     negative rho (up, down):  1.204E-02 0.000E+00

     Forces acting on atoms (cartesian axes, Ry/au):

     atom    1 type  1   force =     0.00012473   -0.00009437   -0.00008428
     atom    2 type  2   force =     0.00013916    0.00012549    0.00034670
     atom    3 type  2   force =     0.00035005   -0.00011866    0.00003006
     atom    4 type  2   force =     0.00030271    0.00001584    0.00004779
     atom    5 type  2   force =    -0.00013204   -0.00023234   -0.00007413
     atom    6 type  2   force =    -0.00010301    0.00028822   -0.00009396
     atom    7 type  2   force =    -0.00031022   -0.00002464    0.00012962
     atom    8 type  3   force =     0.00009259   -0.00006492    0.00015580
     atom    9 type  3   force =     0.00005758    0.00015858    0.00017540
     atom   10 type  3   force =    -0.00000822    0.00006138   -0.00012935
     atom   11 type  3   force =    -0.00006028   -0.00006516   -0.00004197
     atom   12 type  3   force =    -0.00008857   -0.00000816   -0.00013512
     atom   13 type  3   force =    -0.00010658    0.00007952   -0.00014006
     atom   14 type  3   force =    -0.00020971   -0.00009620   -0.00011336
     atom   15 type  3   force =    -0.00004818   -0.00002458   -0.00007314
     The non-local contrib.  to forces
     atom    1 type  1   force =    -0.18649728    0.00383439    0.05136500
     atom    2 type  2   force =    -0.64529489    0.01102976    0.16588734
     atom    3 type  2   force =    -0.10246669   -0.07851263    0.02722488
     atom    4 type  2   force =    -0.10061800    0.08129138    0.02378679
     atom    5 type  2   force =    -0.09301212   -0.02430395    0.02098677
     atom    6 type  2   force =    -0.09268843    0.02710765    0.01963741
     atom    7 type  2   force =    -0.06141925    0.00102356    0.01161442
     atom    8 type  3   force =     0.03532251   -0.06980691   -0.00657188
     atom    9 type  3   force =     0.03675093    0.06867415   -0.00962889
     atom   10 type  3   force =    -0.04016087   -0.06886499    0.01072145
     atom   11 type  3   force =    -0.03867873    0.07010780    0.00761929
     atom   12 type  3   force =    -0.07842568    0.00124049    0.01769309
     atom   13 type  3   force =     0.04602045    0.08229837    0.03275834
     atom   14 type  3   force =     0.04541226   -0.07874920    0.04120485
     atom   15 type  3   force =     0.01179876   -0.00515665   -0.09828654
     The ionic contribution  to forces
     atom    1 type  1   force =    -7.91589250    0.13343268    1.97906526
     atom    2 type  2   force =    -2.38798194    0.03137002    0.39419661
     atom    3 type  2   force =    -1.59757719    7.10532897    0.18839497
     atom    4 type  2   force =    -1.75146885   -7.05369454    0.50162106
     atom    5 type  2   force =     4.40285769    6.25965838   -1.14556198
     atom    6 type  2   force =     4.26807844   -6.39887336   -0.85133966
     atom    7 type  2   force =     7.53346019   -0.11854840   -1.69793523
     atom    8 type  3   force =    -1.28946197    3.25617570    0.22030758
     atom    9 type  3   force =    -1.35781441   -3.21460910    0.36355834
     atom   10 type  3   force =     1.80377874    2.94124828   -0.47894035
     atom   11 type  3   force =     1.74022026   -2.99755715   -0.34517533
     atom   12 type  3   force =     3.38140014   -0.05347617   -0.76411079
     atom   13 type  3   force =    -2.71313615   -2.79430944   -0.91390483
     atom   14 type  3   force =    -2.68935063    2.70713560   -1.21091198
     atom   15 type  3   force =    -1.42711180    0.19671851    3.76073633
     The local contribution  to forces
     atom    1 type  1   force =     8.10187027   -0.13731845   -2.03030603
     atom    2 type  2   force =     3.01761629   -0.04206234   -0.55583468
     atom    3 type  2   force =     1.69812010   -7.02661678   -0.21519046
     atom    4 type  2   force =     1.84986917    6.97216261   -0.52469370
     atom    5 type  2   force =    -4.31080155   -6.23469199    1.12487583
     atom    6 type  2   force =    -4.17611844    6.37118598    0.83161209
     atom    7 type  2   force =    -7.47193409    0.11754580    1.68643754
     atom    8 type  3   force =     1.25430287   -3.18638830   -0.21364957
     atom    9 type  3   force =     1.32117707    3.14605656   -0.35382087
     atom   10 type  3   force =    -1.76357172   -2.87231009    0.46804467
     atom   11 type  3   force =    -1.70154430    2.92737715    0.33746844
     atom   12 type  3   force =    -3.30300435    0.05223381    0.74623665
     atom   13 type  3   force =     2.66717118    2.71203675    0.88100132
     atom   14 type  3   force =     2.64386999   -2.62842309    1.16959478
     atom   15 type  3   force =     1.41508510   -0.19157314   -3.66251736
     The core correction contribution to forces
     atom    1 type  1   force =     0.00078208   -0.00002325   -0.00028346
     atom    2 type  2   force =     0.01570392   -0.00018081   -0.00393060
     atom    3 type  2   force =     0.00225045   -0.00049668   -0.00047899
     atom    4 type  2   force =     0.00247830    0.00045291   -0.00074976
     atom    5 type  2   force =     0.00090744   -0.00099922   -0.00041878
     atom    6 type  2   force =     0.00072618    0.00098914   -0.00006179
     atom    7 type  2   force =    -0.00047877   -0.00001804   -0.00000646
     atom    8 type  3   force =     0.00000000    0.00000000    0.00000000
     atom    9 type  3   force =     0.00000000    0.00000000    0.00000000
     atom   10 type  3   force =     0.00000000    0.00000000    0.00000000
     atom   11 type  3   force =     0.00000000    0.00000000    0.00000000
     atom   12 type  3   force =     0.00000000    0.00000000    0.00000000
     atom   13 type  3   force =     0.00000000    0.00000000    0.00000000
     atom   14 type  3   force =     0.00000000    0.00000000    0.00000000
     atom   15 type  3   force =     0.00000000    0.00000000    0.00000000
     The Hubbard contrib.    to forces
     atom    1 type  1   force =     0.00000000    0.00000000    0.00000000
     atom    2 type  2   force =     0.00000000    0.00000000    0.00000000
     atom    3 type  2   force =     0.00000000    0.00000000    0.00000000
     atom    4 type  2   force =     0.00000000    0.00000000    0.00000000
     atom    5 type  2   force =     0.00000000    0.00000000    0.00000000
     atom    6 type  2   force =     0.00000000    0.00000000    0.00000000
     atom    7 type  2   force =     0.00000000    0.00000000    0.00000000
     atom    8 type  3   force =     0.00000000    0.00000000    0.00000000
     atom    9 type  3   force =     0.00000000    0.00000000    0.00000000
     atom   10 type  3   force =     0.00000000    0.00000000    0.00000000
     atom   11 type  3   force =     0.00000000    0.00000000    0.00000000
     atom   12 type  3   force =     0.00000000    0.00000000    0.00000000
     atom   13 type  3   force =     0.00000000    0.00000000    0.00000000
     atom   14 type  3   force =     0.00000000    0.00000000    0.00000000
     atom   15 type  3   force =     0.00000000    0.00000000    0.00000000
     The SCF correction term to forces
     atom    1 type  1   force =    -0.00002186   -0.00001458    0.00001416
     atom    2 type  2   force =     0.00001446   -0.00002335    0.00002500
     atom    3 type  2   force =     0.00002736    0.00000420    0.00000831
     atom    4 type  2   force =     0.00004353   -0.00001462    0.00000732
     atom    5 type  2   force =     0.00003493   -0.00002630   -0.00001280
     atom    6 type  2   force =     0.00002039    0.00001793   -0.00000510
     atom    7 type  2   force =    -0.00000086   -0.00002047    0.00000029
     atom    8 type  3   force =    -0.00000039    0.00000503    0.00000264
     atom    9 type  3   force =     0.00000391   -0.00000153    0.00000187
     atom   10 type  3   force =     0.00000244   -0.00000304    0.00000174
     atom   11 type  3   force =    -0.00000090    0.00000877    0.00000262
     atom   12 type  3   force =    -0.00000808   -0.00000110    0.00000357
     atom   13 type  3   force =    -0.00000503   -0.00000095    0.00000313
     atom   14 type  3   force =    -0.00000498    0.00000054    0.00000196
     atom   15 type  3   force =     0.00000377   -0.00000097    0.00000291

     DFT-D3 dispersion contribution to forces:
     atom    1 type  1   force =    -0.00007406    0.00000026    0.00002072
     atom    2 type  2   force =     0.00012324   -0.00000238   -0.00003705
     atom    3 type  2   force =     0.00003794    0.00017967    0.00003127
     atom    4 type  2   force =     0.00004048   -0.00017648    0.00003599
     atom    5 type  2   force =    -0.00007651    0.00013617    0.00001675
     atom    6 type  2   force =    -0.00007922   -0.00013371    0.00002302
     atom    7 type  2   force =     0.00010448   -0.00000167   -0.00002104
     atom    8 type  3   force =    -0.00002849   -0.00004503    0.00002694
     atom    9 type  3   force =    -0.00001800    0.00004392    0.00002487
     atom   10 type  3   force =    -0.00001489   -0.00000336    0.00000305
     atom   11 type  3   force =    -0.00001469    0.00000369    0.00000293
     atom   12 type  3   force =    -0.00000868    0.00000024    0.00000227
     atom   13 type  3   force =    -0.00011511    0.00006020   -0.00003811
     atom   14 type  3   force =    -0.00009442   -0.00005462   -0.00004304
     atom   15 type  3   force =     0.00021792   -0.00000691   -0.00004856

     Total force =     0.000988     Total SCF correction =     0.000094

     DFT-D3 dispersion Force =     0.000491


     Computing stress (Cartesian axis) and pressure


     negative rho (up, down):  1.204E-02 0.000E+00
          total   stress  (Ry/bohr**3)                   (kbar)     P=       -0.09
  -0.00000061   0.00000000   0.00000001           -0.09        0.00        0.00
   0.00000000  -0.00000060  -0.00000000            0.00       -0.09       -0.00
   0.00000001  -0.00000000  -0.00000061            0.00       -0.00       -0.09

     kinetic stress (kbar)     57.58      0.02      1.31
                                0.02     57.05      0.12
                                1.31      0.12     63.02

     local   stress (kbar)   -415.40      2.60     75.48
                                2.60   -330.53      4.23
                               75.48      4.23   -103.34

     nonloc. stress (kbar)     13.03     -0.00     -0.18
                               -0.00     13.11     -0.02
                               -0.18     -0.02     12.29

     hartree stress (kbar)    181.89     -1.08    -29.95
                               -1.08    143.25     -1.57
                              -29.95     -1.57     57.87

     exc-cor stress (kbar)     -4.81     -0.00     -0.10
                               -0.00     -4.77     -0.01
                               -0.10     -0.01     -5.20

     corecor stress (kbar)     -9.94      0.00      0.03
                                0.00     -9.98      0.00
                                0.03      0.00     -9.81

     ewald   stress (kbar)    177.56     -1.54    -46.59
                               -1.54    131.78     -2.76
                              -46.59     -2.76    -14.91

     hubbard stress (kbar)      0.00      0.00      0.00
                                0.00      0.00      0.00
                                0.00      0.00      0.00

     DFT-D   stress (kbar)      0.00      0.00      0.00
                                0.00      0.00     -0.00
                                0.00     -0.00     -0.00

     XDM     stress (kbar)      0.00      0.00      0.00
                                0.00      0.00      0.00
                                0.00      0.00      0.00

     dft-nl  stress (kbar)      0.00      0.00      0.00
                                0.00      0.00      0.00
                                0.00      0.00      0.00

     TS-vdW  stress (kbar)      0.00      0.00      0.00
                                0.00      0.00      0.00
                                0.00      0.00      0.00

     MDB     stress (kbar)      0.00      0.00      0.00
                                0.00      0.00      0.00
                                0.00      0.00      0.00

     3D-RISM stress (kbar)      0.00      0.00      0.00
                                0.00      0.00      0.00
                                0.00      0.00      0.00

     Energy error            =      4.3E-06 Ry
     Gradient error          =      3.5E-04 Ry/Bohr

     bfgs converged in  19 scf cycles and  18 bfgs steps
     (criteria: energy <  1.0E-05 Ry, force <  5.0E-04 Ry/Bohr)

     End of BFGS Geometry Optimization

     Final energy             =    -139.8320845949 Ry

     File ./tmp/aniline_protonated.bfgs deleted, as requested
Begin final coordinates

ATOMIC_POSITIONS (angstrom)
N               -2.2580899005        0.2502958463        0.5939697558
C               -0.8084072505        0.2255434709        0.2266027251
C               -0.1539808193        1.4392679452        0.0525858232
C               -0.1803136296       -1.0083765960        0.1072310228
C                1.2079542186        1.4070140008       -0.2565845012
C                1.1821451493       -1.0193590817       -0.2012552240
C                1.8709008378        0.1831320340       -0.3798400828
H               -0.6783085035        2.3922035509        0.1507684093
H               -0.7246884981       -1.9447944906        0.2472561454
H                1.7466818155        2.3429460670       -0.4007667612
H                1.7007062437       -1.9721187510       -0.3032109074
H                2.9338722592        0.1663371466       -0.6198150979
H               -2.7384740677       -0.5979222089        0.2609939548
H               -2.7326533949        1.0625598769        0.1741707635
H               -2.3926324880        0.3040851335        1.6156946589
End final coordinates



     Writing all to output data dir ./tmp/aniline_protonated.save/ :
     XML data file, charge density, pseudopotentials, collected wavefunctions

     init_run     :     10.17s CPU     10.51s WALL (       1 calls)
     electrons    :    937.01s CPU    975.45s WALL (      19 calls)
     update_pot   :     12.82s CPU     14.48s WALL (      18 calls)
     forces       :     48.56s CPU     54.52s WALL (      19 calls)
     force_dftd3  :      0.02s CPU      0.03s WALL (      19 calls)
     stress       :    155.37s CPU    165.40s WALL (      19 calls)
     stres_dftd3  :      0.02s CPU      0.03s WALL (      19 calls)

     Called by init_run:
     wfcinit      :      3.51s CPU      3.56s WALL (       1 calls)
     wfcinit:atom :      0.03s CPU      0.03s WALL (       5 calls)
     wfcinit:wfcr :      3.30s CPU      3.34s WALL (       5 calls)
     potinit      :      1.09s CPU      1.18s WALL (       1 calls)
     hinit0       :      0.48s CPU      0.51s WALL (       1 calls)

     Called by electrons:
     c_bands      :    589.24s CPU    592.05s WALL (     102 calls)
     sum_band     :    227.71s CPU    240.94s WALL (     102 calls)
     v_of_rho     :     57.83s CPU     61.88s WALL (     109 calls)
     v_h          :      5.91s CPU      6.44s WALL (     109 calls)
     v_xc         :     69.43s CPU     75.59s WALL (     147 calls)
     newd         :     59.72s CPU     72.62s WALL (     109 calls)
     PAW_pot      :      2.31s CPU      2.32s WALL (     127 calls)
     mix_rho      :      8.45s CPU      8.72s WALL (     102 calls)
     energy_dftd3 :      0.00s CPU      0.00s WALL (      19 calls)

     Called by c_bands:
     init_us_2    :     17.33s CPU     17.42s WALL (    1305 calls)
     cegterg      :    574.57s CPU    577.25s WALL (     510 calls)

     Called by sum_band:
     sum_band:wei :      0.00s CPU      0.00s WALL (     102 calls)
     sum_band:loo :    136.97s CPU    137.57s WALL (     102 calls)
     sum_band:buf :      1.26s CPU      1.29s WALL (     510 calls)
     sum_band:ini :      6.81s CPU      6.84s WALL (     510 calls)
     sum_band:cal :     13.03s CPU     13.06s WALL (     600 calls)
     sum_band:bec :      0.01s CPU      0.01s WALL (     600 calls)
     addusdens    :     77.38s CPU     89.57s WALL (     102 calls)
                                        0.00s GPU  (     102 calls)
     addusd:skk   :      3.10s CPU      3.57s WALL (     306 calls)
                                        0.00s GPU  (     306 calls)

     Called by *egterg:
     cdiaghg      :      0.86s CPU      0.86s WALL (    1900 calls)
     cegterg:over :     19.79s CPU     19.86s WALL (    1540 calls)
     cegterg:upda :     11.00s CPU     11.05s WALL (    1540 calls)
     cegterg:last :     27.20s CPU     27.31s WALL (    1125 calls)
     h_psi        :    481.37s CPU    483.71s WALL (    2055 calls)
     s_psi        :     23.16s CPU     23.22s WALL (    2055 calls)
     g_psi        :      1.09s CPU      1.10s WALL (    1540 calls)

     Called by h_psi:
     h_psi:calbec :     30.34s CPU     30.44s WALL (    2055 calls)
     vloc_psi     :    424.40s CPU    426.54s WALL (    2055 calls)
     add_vuspsi   :     23.19s CPU     23.27s WALL (    2055 calls)

     General routines
     calbec       :     51.80s CPU     51.95s WALL (    3130 calls)
     fft          :     73.25s CPU     80.04s WALL (    1884 calls)
     ffts         :      3.64s CPU      3.92s WALL (     211 calls)
     fftw         :    385.85s CPU    387.69s WALL (   69170 calls)
     interpolate  :      5.96s CPU      6.40s WALL (     109 calls)

     Parallel routines

     PAW routines
     PAW_pot      :      2.31s CPU      2.32s WALL (     127 calls)

     PWSCF        :  19m39.60s CPU  20m39.75s WALL


   This run was terminated on:   2:16:50  31Mar2025            

=------------------------------------------------------------------------------=
   JOB DONE.
=------------------------------------------------------------------------------=
