
     Program PWSCF v.7.3.1 starts on 28Mar2025 at 15:56:38 

     This program is part of the open-source Quantum ESPRESSO suite
     for quantum simulation of materials; please cite
         "P. Giannozzi et al., J. Phys.:Condens. Matter 21 395502 (2009);
         "P. Giannozzi et al., J. Phys.:Condens. Matter 29 465901 (2017);
         "P. Giannozzi et al., J. Chem. Phys. 152 154105 (2020);
          URL http://www.quantum-espresso.org", 
     in publications or presentations arising from this work. More details at
     http://www.quantum-espresso.org/quote

     Parallel version (MPI), running on    33 processors

     MPI processes distributed on     1 nodes
     19180 MiB available memory on the printing compute node when the environment starts

     Waiting for input...
     Reading input from standard input
Warning: card &CELL ignored
Warning: card   CELL_DOFREE = 'ALL' ignored
Warning: card / ignored

     Current dimensions of program PWSCF are:
     Max number of different atomic species (ntypx) = 10
     Max number of k-points (npk) =  40000
     Max angular momentum in pseudopotentials (lmaxx) =  4

     R & G space division:  proc/nbgrp/npool/nimage =      33
     Subspace diagonalization in iterative solution of the eigenvalue problem:
     one sub-group per band group will be used
     custom distributed-memory algorithm (size of sub-group:  5*  5 procs)


     Parallelization info
     --------------------
     sticks:   dense  smooth     PW     G-vecs:    dense   smooth      PW
     Min         270     154     42                40385    17444    2529
     Max         271     155     43                40396    17453    2536
     Sum        8941    5109   1411              1332973   575857   83601

     Using Slab Decomposition



     bravais-lattice index     =            0
     lattice parameter (alat)  =      20.9009  a.u.
     unit-cell volume          =   16846.7507 (a.u.)^3
     number of atoms/cell      =           48
     number of atomic types    =            1
     number of electrons       =       960.00
     number of Kohn-Sham states=          576
     kinetic-energy cutoff     =      40.0000  Ry
     charge density cutoff     =     280.0000  Ry
     scf convergence threshold =      1.0E-06
     mixing beta               =       0.4000
     number of iterations used =            8  plain     mixing
     energy convergence thresh.=      1.0E-05
     force convergence thresh. =      5.0E-04
     Exchange-correlation= SLA  PW   PBE  PBE
                           (   1   4   3   4   0   0   0)
     nstep                     =          100


     celldm(1)=  20.900943  celldm(2)=   0.000000  celldm(3)=   0.000000
     celldm(4)=   0.000000  celldm(5)=   0.000000  celldm(6)=   0.000000

     crystal axes: (cart. coord. in units of alat)
               a(1) = (   1.000000   0.000000   0.000000 )  
               a(2) = (  -0.223489   0.918700   0.000000 )  
               a(3) = (  -4.200249  -1.021781   2.008375 )  

     reciprocal axes: (cart. coord. in units 2 pi/alat)
               b(1) = (  1.000000  0.243267  2.215131 )  
               b(2) = ( -0.000000  1.088495  0.553783 )  
               b(3) = (  0.000000 -0.000000  0.497915 )  


     PseudoPot. # 1 for Zn read from file:
     /home/ys/qepseudo/SSSP_1.3.0_PBE_efficiency/Zn_pbe_v1.uspp.F.UPF
     MD5 check sum: df62231357ef9e81f77b2b3087fa5675
     Pseudo is Ultrasoft, Zval = 20.0
     Generated by new atomic code, or converted to UPF format
     Using radial grid of  943 points,  6 beta functions with: 
                l(1) =   0
                l(2) =   0
                l(3) =   1
                l(4) =   1
                l(5) =   2
                l(6) =   2
     Q(r) pseudized with  8 coefficients,  rinner =    1.100   1.100   1.100
                                                       1.100   1.100

     atomic species   valence    mass     pseudopotential
     Zn               20.00    65.38000     Zn( 1.00)

     No symmetry found


                                    s                        frac. trans.

      isym =  1     identity                                     

 cryst.   s( 1) = (     1          0          0      )
                  (     0          1          0      )
                  (     0          0          1      )

 cart.    s( 1) = (  1.0000000  0.0000000  0.0000000 )
                  (  0.0000000  1.0000000  0.0000000 )
                  (  0.0000000  0.0000000  1.0000000 )


   Cartesian axes

     site n.     atom                  positions (alat units)
         1        Zn     tau(   1) = (  -0.0970639   0.0980210   0.1082940  )
         2        Zn     tau(   2) = (  -0.2088085   0.5573710   0.1082940  )
         3        Zn     tau(   3) = (  -0.4773993   0.0048712   0.3257340  )
         4        Zn     tau(   4) = (  -0.5891754   0.4641638   0.3256930  )
         5        Zn     tau(   5) = (  -0.8434267  -0.0837427   0.5265441  )
         6        Zn     tau(   6) = (  -0.9552283   0.3756114   0.5265568  )
         7        Zn     tau(   7) = (  -0.1529361   0.3276960   0.1082940  )
         8        Zn     tau(   8) = (  -0.2646808   0.7870460   0.1082940  )
         9        Zn     tau(   9) = (  -0.5332776   0.2344764   0.3257321  )
        10        Zn     tau(  10) = (  -0.6450377   0.6939049   0.3256968  )
        11        Zn     tau(  11) = (  -0.8993353   0.1459457   0.5265257  )
        12        Zn     tau(  12) = (  -1.0110690   0.6052895   0.5265734  )
        13        Zn     tau(  13) = (   0.4029362   0.0980210   0.1082940  )
        14        Zn     tau(  14) = (   0.2911915   0.5573710   0.1082940  )
        15        Zn     tau(  15) = (   0.0228414   0.0049511   0.3257742  )
        16        Zn     tau(  16) = (  -0.0889036   0.4641985   0.3257378  )
        17        Zn     tau(  17) = (  -0.3436096  -0.0837737   0.5267505  )
        18        Zn     tau(  18) = (  -0.4553586   0.3755731   0.5267713  )
        19        Zn     tau(  19) = (   0.3470638   0.3276960   0.1082940  )
        20        Zn     tau(  20) = (   0.2353192   0.7870460   0.1082940  )
        21        Zn     tau(  21) = (  -0.0330300   0.2345642   0.3257821  )
        22        Zn     tau(  22) = (  -0.1447801   0.6939584   0.3257309  )
        23        Zn     tau(  23) = (  -0.3994938   0.1458884   0.5267305  )
        24        Zn     tau(  24) = (  -0.5112275   0.6052677   0.5267877  )
        25        Zn     tau(  25) = (   0.1529361   0.0372043   0.0773528  )
        26        Zn     tau(  26) = (   0.0411915   0.4965543   0.0773528  )
        27        Zn     tau(  27) = (  -0.2319469  -0.0558204   0.2748222  )
        28        Zn     tau(  28) = (  -0.3436745   0.4034291   0.2747895  )
        29        Zn     tau(  29) = (  -0.6095629  -0.1483046   0.4774166  )
        30        Zn     tau(  30) = (  -0.7213578   0.3110171   0.4774177  )
        31        Zn     tau(  31) = (   0.0970639   0.2668793   0.0773528  )
        32        Zn     tau(  32) = (  -0.0146808   0.7262293   0.0773528  )
        33        Zn     tau(  33) = (  -0.2878034   0.1737845   0.2748481  )
        34        Zn     tau(  34) = (  -0.3995656   0.6331831   0.2747585  )
        35        Zn     tau(  35) = (  -0.6654473   0.0813635   0.4774016  )
        36        Zn     tau(  36) = (  -0.7772166   0.5407118   0.4774279  )
        37        Zn     tau(  37) = (   0.6529362   0.0372043   0.0773528  )
        38        Zn     tau(  38) = (   0.5411915   0.4965543   0.0773528  )
        39        Zn     tau(  39) = (   0.2679282  -0.0558736   0.2746504  )
        40        Zn     tau(  40) = (   0.1561744   0.4034213   0.2746283  )
        41        Zn     tau(  41) = (  -0.1094301  -0.1482486   0.4774741  )
        42        Zn     tau(  42) = (  -0.2211811   0.3110664   0.4774836  )
        43        Zn     tau(  43) = (   0.5970639   0.2668793   0.0773528  )
        44        Zn     tau(  44) = (   0.4853193   0.7262293   0.0773528  )
        45        Zn     tau(  45) = (   0.2120527   0.1737613   0.2746734  )
        46        Zn     tau(  46) = (   0.1003124   0.6331233   0.2746049  )
        47        Zn     tau(  47) = (  -0.1653192   0.0813955   0.4774631  )
        48        Zn     tau(  48) = (  -0.2770279   0.5407470   0.4774912  )

     --------------------------------------------
     DFT-D3 Dispersion Correction (3-body terms):
     --------------------------------------------
       Reference C6 values for interpolation: 

         atom   Coordination number   C6
         Zn         0.000           681.04
         Zn         1.942           306.91

       Values used:

         atom   Coordination number  R0_AB[au]  C6      C8
         Zn         5.371            3.053    306.91  23930.67
         Zn         5.372            3.053    306.91  23930.67
         Zn         7.045            3.053    306.91  23930.67
         Zn         7.040            3.053    306.91  23930.67
         Zn         5.017            3.053    306.91  23930.67
         Zn         5.017            3.053    306.91  23930.67
         Zn         5.372            3.053    306.91  23930.67
         Zn         5.372            3.053    306.91  23930.67
         Zn         7.044            3.053    306.91  23930.67
         Zn         7.042            3.053    306.91  23930.67
         Zn         5.019            3.053    306.91  23930.67
         Zn         5.015            3.053    306.91  23930.67
         Zn         5.376            3.053    306.91  23930.67
         Zn         5.376            3.053    306.91  23930.67
         Zn         7.054            3.053    306.91  23930.67
         Zn         7.052            3.053    306.91  23930.67
         Zn         5.000            3.053    306.91  23930.67
         Zn         4.997            3.053    306.91  23930.67
         Zn         5.376            3.053    306.91  23930.67
         Zn         5.376            3.053    306.91  23930.67
         Zn         7.055            3.053    306.91  23930.67
         Zn         7.051            3.053    306.91  23930.67
         Zn         5.002            3.053    306.91  23930.67
         Zn         4.995            3.053    306.91  23930.67
         Zn         5.193            3.053    306.91  23930.67
         Zn         5.194            3.053    306.91  23930.67
         Zn         7.404            3.053    306.91  23930.67
         Zn         7.401            3.053    306.91  23930.67
         Zn         6.111            3.053    306.91  23930.67
         Zn         6.111            3.053    306.91  23930.67
         Zn         5.193            3.053    306.91  23930.67
         Zn         5.193            3.053    306.91  23930.67
         Zn         7.405            3.053    306.91  23930.67
         Zn         7.400            3.053    306.91  23930.67
         Zn         6.114            3.053    306.91  23930.67
         Zn         6.109            3.053    306.91  23930.67
         Zn         5.187            3.053    306.91  23930.67
         Zn         5.187            3.053    306.91  23930.67
         Zn         7.419            3.053    306.91  23930.67
         Zn         7.419            3.053    306.91  23930.67
         Zn         6.102            3.053    306.91  23930.67
         Zn         6.104            3.053    306.91  23930.67
         Zn         5.187            3.053    306.91  23930.67
         Zn         5.188            3.053    306.91  23930.67
         Zn         7.420            3.053    306.91  23930.67
         Zn         7.417            3.053    306.91  23930.67
         Zn         6.106            3.053    306.91  23930.67
         Zn         6.100            3.053    306.91  23930.67

         Molecular C6 ( Ry / a.u.^6 ) =    707110.50


   Crystallographic axes

     site n.     atom                  positions (cryst. coord.)
         1        Zn     tau(   1) = (  0.1666667  0.1666667  0.0539212  )
         2        Zn     tau(   2) = (  0.1666668  0.6666667  0.0539212  )
         3        Zn     tau(   3) = (  0.2453292  0.1856882  0.1621878  )
         4        Zn     tau(   4) = (  0.2451931  0.6856030  0.1621674  )
         5        Zn     tau(   5) = (  0.3025658  0.2004376  0.2621742  )
         6        Zn     tau(   6) = (  0.3025379  0.7004491  0.2621805  )
         7        Zn     tau(   7) = (  0.1666668  0.4166667  0.0539212  )
         8        Zn     tau(   8) = (  0.1666667  0.9166667  0.0539212  )
         9        Zn     tau(   9) = (  0.2453022  0.4356111  0.1621869  )
        10        Zn     tau(  10) = (  0.2452275  0.9356771  0.1621693  )
        11        Zn     tau(  11) = (  0.3024919  0.4504420  0.2621650  )
        12        Zn     tau(  12) = (  0.3026070  0.9504617  0.2621888  )
        13        Zn     tau(  13) = (  0.6666668  0.1666667  0.0539212  )
        14        Zn     tau(  14) = (  0.6666667  0.6666667  0.0539212  )
        15        Zn     tau(  15) = (  0.7456785  0.1857974  0.1622079  )
        16        Zn     tau(  16) = (  0.7455725  0.6856656  0.1621897  )
        17        Zn     tau(  17) = (  0.8028325  0.2005181  0.2622770  )
        18        Zn     tau(  18) = (  0.8028734  0.7005262  0.2622873  )
        19        Zn     tau(  19) = (  0.6666668  0.4166667  0.0539212  )
        20        Zn     tau(  20) = (  0.6666668  0.9166667  0.0539212  )
        21        Zn     tau(  21) = (  0.7456818  0.4357343  0.1622118  )
        22        Zn     tau(  22) = (  0.7455737  0.9357541  0.1621863  )
        23        Zn     tau(  23) = (  0.8027733  0.4504931  0.2622670  )
        24        Zn     tau(  24) = (  0.8029180  0.9505566  0.2622955  )
        25        Zn     tau(  25) = (  0.3333333  0.0833333  0.0385151  )
        26        Zn     tau(  26) = (  0.3333333  0.5833333  0.0385151  )
        27        Zn     tau(  27) = (  0.3632411  0.0914316  0.1368381  )
        28        Zn     tau(  28) = (  0.3631614  0.5913041  0.1368218  )
        29        Zn     tau(  29) = (  0.4119000  0.1029564  0.2377129  )
        30        Zn     tau(  30) = (  0.4118452  0.6029261  0.2377134  )
        31        Zn     tau(  31) = (  0.3333333  0.3333333  0.0385151  )
        32        Zn     tau(  32) = (  0.3333333  0.8333333  0.0385151  )
        33        Zn     tau(  33) = (  0.3632973  0.3413696  0.1368510  )
        34        Zn     tau(  34) = (  0.3630931  0.8413729  0.1368064  )
        35        Zn     tau(  35) = (  0.4118529  0.3529405  0.2377054  )
        36        Zn     tau(  36) = (  0.4118861  0.8529532  0.2377185  )
        37        Zn     tau(  37) = (  0.8333333  0.0833333  0.0385151  )
        38        Zn     tau(  38) = (  0.8333333  0.5833333  0.0385151  )
        39        Zn     tau(  39) = (  0.8627228  0.0912786  0.1367526  )
        40        Zn     tau(  40) = (  0.8626512  0.5912063  0.1367416  )
        41        Zn     tau(  41) = (  0.9121737  0.1030491  0.2377415  )
        42        Zn     tau(  42) = (  0.9121800  0.6030164  0.2377462  )
        43        Zn     tau(  43) = (  0.8333333  0.3333333  0.0385151  )
        44        Zn     tau(  44) = (  0.8333333  0.8333333  0.0385151  )
        45        Zn     tau(  45) = (  0.8627608  0.3412477  0.1367640  )
        46        Zn     tau(  46) = (  0.8626162  0.8412228  0.1367299  )
        47        Zn     tau(  47) = (  0.9121251  0.3530094  0.2377360  )
        48        Zn     tau(  48) = (  0.9122236  0.8530266  0.2377500  )

     number of k points=     5  Marzari-Vanderbilt smearing, width (Ry)=  0.0200
                       cart. coord. in units 2pi/alat
        k(    1) = (   0.0000000   0.0000000   0.0000000), wk =   0.2222222
        k(    2) = (   0.0000000   0.3628315   0.1845943), wk =   0.4444444
        k(    3) = (   0.3333333   0.0810890   0.7383771), wk =   0.4444444
        k(    4) = (   0.3333333   0.4439205   0.9229714), wk =   0.4444444
        k(    5) = (   0.3333333  -0.2817426   0.5537829), wk =   0.4444444

                       cryst. coord.
        k(    1) = (   0.0000000   0.0000000   0.0000000), wk =   0.2222222
        k(    2) = (   0.0000000   0.3333333   0.0000000), wk =   0.4444444
        k(    3) = (   0.3333333   0.0000000   0.0000000), wk =   0.4444444
        k(    4) = (   0.3333333   0.3333333   0.0000000), wk =   0.4444444
        k(    5) = (   0.3333333  -0.3333333   0.0000000), wk =   0.4444444

     Dense  grid:  1332973 G-vectors     FFT dimensions: ( 120, 108, 540)

     Smooth grid:   575857 G-vectors     FFT dimensions: (  90,  80, 405)

     Dynamical RAM for                 wfc:      19.16 MB

     Dynamical RAM for     wfc (w. buffer):     114.96 MB

     Dynamical RAM for           str. fact:       0.62 MB

     Dynamical RAM for           local pot:       0.00 MB

     Dynamical RAM for          nlocal pot:      28.74 MB

     Dynamical RAM for                qrad:       1.34 MB

     Dynamical RAM for          rho,v,vnew:       6.89 MB

     Dynamical RAM for               rhoin:       2.30 MB

     Dynamical RAM for            rho*nmix:       9.86 MB

     Dynamical RAM for           G-vectors:       2.44 MB

     Dynamical RAM for          h,s,v(r/c):       2.42 MB

     Dynamical RAM for          <psi|beta>:       7.59 MB

     Dynamical RAM for                 psi:      38.32 MB

     Dynamical RAM for                hpsi:      38.32 MB

     Dynamical RAM for                spsi:      38.32 MB

     Dynamical RAM for      wfcinit/wfcrot:      50.43 MB

     Dynamical RAM for           addusdens:     144.24 MB

     Dynamical RAM for          addusforce:     202.67 MB

     Dynamical RAM for         addusstress:     123.90 MB

     Estimated static dynamical RAM per process >     166.93 MB

     Estimated max dynamical RAM per process >     379.47 MB

     Estimated total dynamical RAM >      12.23 GB

     Initial potential from superposition of free atoms

     starting charge     959.9932, renormalised to     960.0000

     negative rho (up, down):  4.140E-03 0.000E+00
     Starting wfcs are  624 randomized atomic wfcs

     total cpu time spent up to now is       71.9 secs

     Self-consistent Calculation

     iteration #  1     ecut=    40.00 Ry     beta= 0.40
     Davidson diagonalization with overlap

---- Real-time Memory Report at c_bands before calling an iterative solver
           244 MiB given to the printing process from OS
             0 MiB allocation reported by mallinfo(arena+hblkhd)
         11772 MiB available memory on the node where the printing process lives
------------------
     ethr =  1.00E-02,  avg # of iterations =  8.8

     Threshold (ethr) on eigenvalues was too large:
     Diagonalizing with lowered threshold

     Davidson diagonalization with overlap

---- Real-time Memory Report at c_bands before calling an iterative solver
           361 MiB given to the printing process from OS
             0 MiB allocation reported by mallinfo(arena+hblkhd)
         11752 MiB available memory on the node where the printing process lives
------------------
     ethr =  1.15E-04,  avg # of iterations = 11.2

     negative rho (up, down):  4.852E-03 0.000E+00

     total cpu time spent up to now is     1041.5 secs

     total energy              =  -22154.20753033 Ry
     estimated scf accuracy    <       1.13705244 Ry

     iteration #  2     ecut=    40.00 Ry     beta= 0.40
     Davidson diagonalization with overlap

---- Real-time Memory Report at c_bands before calling an iterative solver
           362 MiB given to the printing process from OS
             0 MiB allocation reported by mallinfo(arena+hblkhd)
         11744 MiB available memory on the node where the printing process lives
------------------
     ethr =  1.18E-04,  avg # of iterations =  2.0

     negative rho (up, down):  5.357E-03 0.000E+00

     total cpu time spent up to now is     1509.3 secs

     total energy              =  -22154.45866180 Ry
     estimated scf accuracy    <       0.23432509 Ry

     iteration #  3     ecut=    40.00 Ry     beta= 0.40
     Davidson diagonalization with overlap

---- Real-time Memory Report at c_bands before calling an iterative solver
           362 MiB given to the printing process from OS
             0 MiB allocation reported by mallinfo(arena+hblkhd)
         11742 MiB available memory on the node where the printing process lives
------------------
     ethr =  2.44E-05,  avg # of iterations =  7.4

     negative rho (up, down):  5.899E-03 0.000E+00

     total cpu time spent up to now is     1930.4 secs

     total energy              =  -22154.43575058 Ry
     estimated scf accuracy    <       0.53069632 Ry

     iteration #  4     ecut=    40.00 Ry     beta= 0.40
     Davidson diagonalization with overlap

---- Real-time Memory Report at c_bands before calling an iterative solver
           362 MiB given to the printing process from OS
             0 MiB allocation reported by mallinfo(arena+hblkhd)
         11744 MiB available memory on the node where the printing process lives
------------------
     ethr =  2.44E-05,  avg # of iterations =  5.8

     negative rho (up, down):  5.729E-03 0.000E+00

     total cpu time spent up to now is     2348.7 secs

     total energy              =  -22154.47725482 Ry
     estimated scf accuracy    <       0.14764354 Ry

     iteration #  5     ecut=    40.00 Ry     beta= 0.40
     Davidson diagonalization with overlap

---- Real-time Memory Report at c_bands before calling an iterative solver
           362 MiB given to the printing process from OS
             0 MiB allocation reported by mallinfo(arena+hblkhd)
         11731 MiB available memory on the node where the printing process lives
------------------
     ethr =  1.54E-05,  avg # of iterations =  2.4

     negative rho (up, down):  5.805E-03 0.000E+00

     total cpu time spent up to now is     2742.5 secs

     total energy              =  -22154.48401589 Ry
     estimated scf accuracy    <       0.01732866 Ry

     iteration #  6     ecut=    40.00 Ry     beta= 0.40
     Davidson diagonalization with overlap

---- Real-time Memory Report at c_bands before calling an iterative solver
           363 MiB given to the printing process from OS
             0 MiB allocation reported by mallinfo(arena+hblkhd)
         11713 MiB available memory on the node where the printing process lives
------------------
     c_bands:  1 eigenvalues not converged
     ethr =  1.81E-06,  avg # of iterations =  8.4

     negative rho (up, down):  5.862E-03 0.000E+00

     total cpu time spent up to now is     3168.8 secs

     total energy              =  -22154.48608649 Ry
     estimated scf accuracy    <       0.00062129 Ry

     iteration #  7     ecut=    40.00 Ry     beta= 0.40
     Davidson diagonalization with overlap

---- Real-time Memory Report at c_bands before calling an iterative solver
           363 MiB given to the printing process from OS
             0 MiB allocation reported by mallinfo(arena+hblkhd)
         11692 MiB available memory on the node where the printing process lives
------------------
     ethr =  6.47E-08,  avg # of iterations =  2.0

     negative rho (up, down):  5.895E-03 0.000E+00

     total cpu time spent up to now is     3647.6 secs

     total energy              =  -22154.48623720 Ry
     estimated scf accuracy    <       0.00006226 Ry

     iteration #  8     ecut=    40.00 Ry     beta= 0.40
     Davidson diagonalization with overlap

---- Real-time Memory Report at c_bands before calling an iterative solver
           364 MiB given to the printing process from OS
             0 MiB allocation reported by mallinfo(arena+hblkhd)
         11671 MiB available memory on the node where the printing process lives
------------------
     ethr =  6.49E-09,  avg # of iterations =  2.0

     negative rho (up, down):  5.916E-03 0.000E+00

     total cpu time spent up to now is     4065.3 secs

     total energy              =  -22154.48623772 Ry
     estimated scf accuracy    <       0.00010365 Ry

     iteration #  9     ecut=    40.00 Ry     beta= 0.40
     Davidson diagonalization with overlap

---- Real-time Memory Report at c_bands before calling an iterative solver
           364 MiB given to the printing process from OS
             0 MiB allocation reported by mallinfo(arena+hblkhd)
         11652 MiB available memory on the node where the printing process lives
------------------
     ethr =  6.49E-09,  avg # of iterations =  2.0

     negative rho (up, down):  5.929E-03 0.000E+00

     total cpu time spent up to now is     4458.0 secs

     total energy              =  -22154.48624373 Ry
     estimated scf accuracy    <       0.00001817 Ry

     iteration # 10     ecut=    40.00 Ry     beta= 0.40
     Davidson diagonalization with overlap

---- Real-time Memory Report at c_bands before calling an iterative solver
           365 MiB given to the printing process from OS
             0 MiB allocation reported by mallinfo(arena+hblkhd)
         11632 MiB available memory on the node where the printing process lives
------------------
     ethr =  1.89E-09,  avg # of iterations =  2.0

     negative rho (up, down):  5.937E-03 0.000E+00

     total cpu time spent up to now is     4938.9 secs

     total energy              =  -22154.48624794 Ry
     estimated scf accuracy    <       0.00000315 Ry

     iteration # 11     ecut=    40.00 Ry     beta= 0.40
     Davidson diagonalization with overlap

---- Real-time Memory Report at c_bands before calling an iterative solver
           365 MiB given to the printing process from OS
             0 MiB allocation reported by mallinfo(arena+hblkhd)
         11634 MiB available memory on the node where the printing process lives
------------------
     ethr =  3.28E-10,  avg # of iterations =  2.0

     negative rho (up, down):  5.941E-03 0.000E+00

     total cpu time spent up to now is     5338.4 secs

     total energy              =  -22154.48624827 Ry
     estimated scf accuracy    <       0.00000219 Ry

     iteration # 12     ecut=    40.00 Ry     beta= 0.40
     Davidson diagonalization with overlap

---- Real-time Memory Report at c_bands before calling an iterative solver
           365 MiB given to the printing process from OS
             0 MiB allocation reported by mallinfo(arena+hblkhd)
         11635 MiB available memory on the node where the printing process lives
------------------
     ethr =  2.28E-10,  avg # of iterations =  2.0

     negative rho (up, down):  5.948E-03 0.000E+00

     total cpu time spent up to now is     5732.7 secs

     End of self-consistent calculation

          k = 0.0000 0.0000 0.0000 ( 71933 PWs)   bands (ev):

  -125.4820-125.4812-125.4812-125.4803-125.4798-125.4789-125.4788-125.4780
  -125.4482-125.4473-125.4472-125.4471-125.4463-125.4461-125.4461-125.4451
  -125.3985-125.3976-125.3976-125.3969-125.3967-125.3959-125.3959-125.3950
  -125.3123-125.3119-125.3115-125.3114-125.3110-125.3110-125.3106-125.3101
  -125.2669-125.2661-125.2660-125.2660-125.2651-125.2651-125.2650-125.2641
  -125.2108-125.2100-125.2099-125.2091-125.2081-125.2072-125.2071-125.2063
   -79.6418 -79.6404 -79.6395 -79.6394 -79.6394 -79.6383 -79.6382 -79.6372
   -79.6371 -79.6360 -79.6329 -79.6318 -79.6318 -79.6307 -79.6307 -79.6296
   -79.6295 -79.6293 -79.6293 -79.6285 -79.6271 -79.6270 -79.6170 -79.6147
   -79.6093 -79.6082 -79.6023 -79.6016 -79.6014 -79.6013 -79.6011 -79.6006
   -79.6005 -79.6005 -79.6003 -79.6002 -79.6001 -79.5995 -79.5995 -79.5994
   -79.5992 -79.5984 -79.5971 -79.5970 -79.5959 -79.5959 -79.5847 -79.5836
   -79.5599 -79.5598 -79.5588 -79.5588 -79.5582 -79.5581 -79.5579 -79.5572
   -79.5571 -79.5562 -79.5477 -79.5477 -79.5472 -79.5462 -79.5462 -79.5459
   -79.5459 -79.5456 -79.5453 -79.5446 -79.5446 -79.5436 -79.5353 -79.5336
   -79.4750 -79.4746 -79.4745 -79.4741 -79.4741 -79.4740 -79.4736 -79.4736
   -79.4730 -79.4726 -79.4629 -79.4624 -79.4623 -79.4623 -79.4619 -79.4619
   -79.4617 -79.4617 -79.4612 -79.4612 -79.4608 -79.4603 -79.4498 -79.4494
   -79.4301 -79.4292 -79.4292 -79.4292 -79.4287 -79.4283 -79.4282 -79.4279
   -79.4277 -79.4270 -79.4174 -79.4167 -79.4166 -79.4164 -79.4159 -79.4159
   -79.4157 -79.4156 -79.4154 -79.4149 -79.4149 -79.4145 -79.4038 -79.4029
   -79.3794 -79.3784 -79.3784 -79.3775 -79.3767 -79.3757 -79.3757 -79.3747
   -79.3658 -79.3631 -79.3630 -79.3620 -79.3620 -79.3611 -79.3603 -79.3593
   -79.3593 -79.3584 -79.3535 -79.3535 -79.3508 -79.3508 -79.3412 -79.3385
    -8.4043  -7.5019  -7.3451  -7.1936  -7.1457  -7.1429  -7.1428  -7.1269
    -7.0921  -7.0071  -6.9945  -6.9922  -6.9761  -6.9568  -6.9549  -6.9425
    -6.9198  -6.9197  -6.9185  -6.9129  -6.9108  -6.8858  -6.8662  -6.8639
    -6.8323  -6.8305  -6.7997  -6.7997  -6.7887  -6.7887  -6.7675  -6.7672
    -6.7659  -6.7571  -6.7570  -6.7475  -6.7404  -6.7403  -6.7283  -6.7279
    -6.7279  -6.7245  -6.7245  -6.6950  -6.6948  -6.6948  -6.6938  -6.6883
    -6.6882  -6.6757  -6.6744  -6.6730  -6.6730  -6.6597  -6.6597  -6.6365
    -6.6365  -6.6280  -6.6218  -6.6218  -6.5912  -6.5911  -6.5899  -6.5849
    -6.5835  -6.5818  -6.5699  -6.5642  -6.5642  -6.5443  -6.5402  -6.5338
    -6.5337  -6.5309  -6.5291  -6.5117  -6.5007  -6.5007  -6.4928  -6.4913
    -6.4855  -6.4802  -6.4802  -6.4702  -6.4702  -6.4508  -6.4490  -6.4438
    -6.4438  -6.4272  -6.4271  -6.4094  -6.4093  -6.4085  -6.3825  -6.3819
    -6.3792  -6.3760  -6.3760  -6.3667  -6.3654  -6.3654  -6.3601  -6.3601
    -6.3402  -6.3402  -6.3264  -6.3264  -6.3135  -6.3045  -6.3045  -6.2998
    -6.2998  -6.2907  -6.2906  -6.2706  -6.2706  -6.2705  -6.2414  -6.2412
    -6.2407  -6.2322  -6.2276  -6.2276  -6.2238  -6.2238  -6.2176  -6.2176
    -6.2176  -6.2165  -6.2047  -6.1909  -6.1881  -6.1881  -6.1776  -6.1732
    -6.1656  -6.1656  -6.1593  -6.1593  -6.1586  -6.1569  -6.1541  -6.1541
    -6.1476  -6.1476  -6.1443  -6.1322  -6.1319  -6.1278  -6.1275  -6.1222
    -6.1222  -6.1194  -6.1193  -6.1177  -6.1094  -6.1069  -6.1068  -6.0867
    -6.0866  -6.0861  -6.0856  -6.0823  -6.0811  -6.0810  -6.0780  -6.0770
    -6.0739  -6.0701  -6.0701  -6.0631  -6.0631  -6.0388  -6.0337  -6.0337
    -6.0217  -6.0217  -6.0193  -6.0165  -6.0155  -6.0155  -6.0137  -6.0021
    -5.9979  -5.9962  -5.9908  -5.9908  -5.9852  -5.9847  -5.9847  -5.9786
    -5.9782  -5.9723  -5.9648  -5.9636  -5.9578  -5.9563  -5.9496  -5.9496
    -5.9409  -5.9409  -5.9360  -5.9302  -5.9295  -5.9264  -5.9254  -5.9253
    -5.9170  -5.9154  -5.9131  -5.9126  -5.9101  -5.9101  -5.9041  -5.9041
    -5.8993  -5.8993  -5.8885  -5.8833  -5.8833  -5.8808  -5.8755  -5.8745
    -5.8560  -5.8560  -5.8441  -5.8441  -5.8438  -5.8283  -5.8047  -5.7890
    -5.7818  -5.7786  -5.7678  -5.7675  -5.7589  -5.7583  -5.7564  -5.7458
    -5.7403  -5.7240  -5.6617  -5.6612  -5.6422  -5.6405  -5.5148  -5.5147
    -4.9459  -4.6179  -4.6178  -4.4603  -4.2946  -4.2945  -3.9765  -3.9764
    -3.1991  -2.5967  -2.5966  -2.5053  -2.3288  -2.3145  -2.3145  -2.2203
    -1.9038  -1.9009  -1.8383  -1.8382  -1.7244  -1.7212  -1.5302  -1.2175
    -1.2174  -0.8946  -0.7714  -0.5755  -0.5755  -0.4923  -0.4852   0.1708
     0.1724   0.1994   0.2002   0.2003   0.3198   0.3199   0.3983   0.3984
     0.8376   1.1336   1.1418   1.4440   1.4440   1.7080   1.7834   2.0653
     2.0654   2.1258   2.1259   2.2928   2.3117   2.3140   2.5084   2.5084
     2.7219   2.7236   2.7840   2.7876   2.9150   2.9156   3.3399   3.6733
     3.6733   3.7990   3.7990   3.8963   4.0237   4.3431   4.4941   4.4942
     4.7233   4.8557   4.9798   4.9798   5.1250   5.1250   5.1415   5.1521
     5.1701   5.2245   5.2246   5.2681   5.4040   5.4123   5.5798   5.5799
     5.7235   5.7480   5.7646   5.7646   5.7853   5.8545   5.8545   5.8872
     5.9270   5.9463   5.9650   5.9750   6.2003   6.2003   6.2382   6.2431
     6.2444   6.3791   6.3791   6.4158   6.5285   6.5837   6.6901   6.6901
     6.7232   6.8203   6.8203   6.8234   6.9124   6.9124   7.0502   7.1735
     7.1737   7.2943   7.2943   7.3198   7.3370   7.4286   7.4287   7.5084
     7.5085   7.6012   7.6013   7.6223   7.6323   7.8049   7.8051   7.8802

     occupation numbers 
     1.0000   1.0000   1.0000   1.0000   1.0000   1.0000   1.0000   1.0000
     1.0000   1.0000   1.0000   1.0000   1.0000   1.0000   1.0000   1.0000
     1.0000   1.0000   1.0000   1.0000   1.0000   1.0000   1.0000   1.0000
     1.0000   1.0000   1.0000   1.0000   1.0000   1.0000   1.0000   1.0000
     1.0000   1.0000   1.0000   1.0000   1.0000   1.0000   1.0000   1.0000
     1.0000   1.0000   1.0000   1.0000   1.0000   1.0000   1.0000   1.0000
     1.0000   1.0000   1.0000   1.0000   1.0000   1.0000   1.0000   1.0000
     1.0000   1.0000   1.0000   1.0000   1.0000   1.0000   1.0000   1.0000
     1.0000   1.0000   1.0000   1.0000   1.0000   1.0000   1.0000   1.0000
     1.0000   1.0000   1.0000   1.0000   1.0000   1.0000   1.0000   1.0000
     1.0000   1.0000   1.0000   1.0000   1.0000   1.0000   1.0000   1.0000
     1.0000   1.0000   1.0000   1.0000   1.0000   1.0000   1.0000   1.0000
     1.0000   1.0000   1.0000   1.0000   1.0000   1.0000   1.0000   1.0000
     1.0000   1.0000   1.0000   1.0000   1.0000   1.0000   1.0000   1.0000
     1.0000   1.0000   1.0000   1.0000   1.0000   1.0000   1.0000   1.0000
     1.0000   1.0000   1.0000   1.0000   1.0000   1.0000   1.0000   1.0000
     1.0000   1.0000   1.0000   1.0000   1.0000   1.0000   1.0000   1.0000
     1.0000   1.0000   1.0000   1.0000   1.0000   1.0000   1.0000   1.0000
     1.0000   1.0000   1.0000   1.0000   1.0000   1.0000   1.0000   1.0000
     1.0000   1.0000   1.0000   1.0000   1.0000   1.0000   1.0000   1.0000
     1.0000   1.0000   1.0000   1.0000   1.0000   1.0000   1.0000   1.0000
     1.0000   1.0000   1.0000   1.0000   1.0000   1.0000   1.0000   1.0000
     1.0000   1.0000   1.0000   1.0000   1.0000   1.0000   1.0000   1.0000
     1.0000   1.0000   1.0000   1.0000   1.0000   1.0000   1.0000   1.0000
     1.0000   1.0000   1.0000   1.0000   1.0000   1.0000   1.0000   1.0000
     1.0000   1.0000   1.0000   1.0000   1.0000   1.0000   1.0000   1.0000
     1.0000   1.0000   1.0000   1.0000   1.0000   1.0000   1.0000   1.0000
     1.0000   1.0000   1.0000   1.0000   1.0000   1.0000   1.0000   1.0000
     1.0000   1.0000   1.0000   1.0000   1.0000   1.0000   1.0000   1.0000
     1.0000   1.0000   1.0000   1.0000   1.0000   1.0000   1.0000   1.0000
     1.0000   1.0000   1.0000   1.0000   1.0000   1.0000   1.0000   1.0000
     1.0000   1.0000   1.0000   1.0000   1.0000   1.0000   1.0000   1.0000
     1.0000   1.0000   1.0000   1.0000   1.0000   1.0000   1.0000   1.0000
     1.0000   1.0000   1.0000   1.0000   1.0000   1.0000   1.0000   1.0000
     1.0000   1.0000   1.0000   1.0000   1.0000   1.0000   1.0000   1.0000
     1.0000   1.0000   1.0000   1.0000   1.0000   1.0000   1.0000   1.0000
     1.0000   1.0000   1.0000   1.0000   1.0000   1.0000   1.0000   1.0000
     1.0000   1.0000   1.0000   1.0000   1.0000   1.0000   1.0000   1.0000
     1.0000   1.0000   1.0000   1.0000   1.0000   1.0000   1.0000   1.0000
     1.0000   1.0000   1.0000   1.0000   1.0000   1.0000   1.0000   1.0000
     1.0000   1.0000   1.0000   1.0000   1.0000   1.0000   1.0000   1.0000
     1.0000   1.0000   1.0000   1.0000   1.0000   1.0000   1.0000   1.0000
     1.0000   1.0000   1.0000   1.0000   1.0000   1.0000   1.0000   1.0000
     1.0000   1.0000   1.0000   1.0000   1.0000   1.0000   1.0000   1.0000
     1.0000   1.0000   1.0000   1.0000   1.0000   1.0000   1.0000   1.0000
     1.0000   1.0000   1.0000   1.0000   1.0000   1.0000   1.0000   1.0000
     1.0000   1.0000   1.0000   1.0000   1.0000   1.0000   1.0000   1.0000
     1.0000   1.0000   1.0000   1.0000   1.0000   1.0000   1.0000   1.0000
     1.0000   1.0000   1.0000   1.0000   1.0000   1.0000   1.0000   1.0000
     1.0000   1.0000   1.0000   1.0000   1.0000   1.0000   1.0000   1.0000
     1.0000   1.0000   1.0000   1.0000   1.0000   1.0000   1.0000   1.0000
     1.0000   1.0000   1.0000   1.0000   1.0000   1.0000   1.0000   1.0000
     1.0000   1.0000   1.0000   1.0000   1.0000   1.0000   1.0000   1.0000
     1.0000   1.0000   1.0000   1.0000   1.0000   1.0000   1.0000   1.0000
     1.0000   1.0000   1.0000   1.0000   1.0000   1.0000   1.0000   1.0000
     1.0000   1.0000   1.0000   1.0000   1.0000   1.0000   1.0000   1.0000
     1.0000   1.0000   1.0000   1.0000   1.0000   1.0000   1.0000   1.0000
     1.0000   1.0000   1.0000   1.0000   1.0000   1.0000   1.0000   1.0000
     1.0000   1.0000   1.0000   1.0000   1.0000   1.0000   1.0000   1.0066
     1.0068   1.0096   1.0097   1.0097   1.0344   1.0344   1.0604   1.0604
     0.5292   0.0404   0.0365   0.0002   0.0002   0.0000   0.0000   0.0000
     0.0000   0.0000   0.0000   0.0000   0.0000   0.0000   0.0000   0.0000
     0.0000   0.0000   0.0000   0.0000   0.0000   0.0000   0.0000   0.0000
     0.0000   0.0000   0.0000   0.0000   0.0000   0.0000   0.0000   0.0000
     0.0000   0.0000   0.0000   0.0000   0.0000   0.0000   0.0000   0.0000
     0.0000   0.0000   0.0000   0.0000   0.0000   0.0000   0.0000   0.0000
     0.0000   0.0000   0.0000   0.0000   0.0000   0.0000   0.0000   0.0000
     0.0000   0.0000   0.0000   0.0000   0.0000   0.0000   0.0000   0.0000
     0.0000   0.0000   0.0000   0.0000   0.0000   0.0000   0.0000   0.0000
     0.0000   0.0000   0.0000   0.0000   0.0000   0.0000   0.0000   0.0000
     0.0000   0.0000   0.0000   0.0000   0.0000   0.0000   0.0000   0.0000
     0.0000   0.0000   0.0000   0.0000   0.0000   0.0000   0.0000   0.0000

          k = 0.0000 0.3628 0.1846 ( 71963 PWs)   bands (ev):

  -125.4819-125.4816-125.4807-125.4804-125.4797-125.4793-125.4785-125.4780
  -125.4481-125.4476-125.4470-125.4469-125.4465-125.4464-125.4457-125.4452
  -125.3984-125.3980-125.3972-125.3968-125.3968-125.3963-125.3955-125.3951
  -125.3122-125.3119-125.3118-125.3114-125.3110-125.3107-125.3106-125.3102
  -125.2668-125.2664-125.2659-125.2656-125.2655-125.2652-125.2647-125.2642
  -125.2107-125.2104-125.2095-125.2092-125.2080-125.2076-125.2068-125.2064
   -79.6403 -79.6401 -79.6399 -79.6388 -79.6384 -79.6381 -79.6378 -79.6376
   -79.6366 -79.6361 -79.6356 -79.6333 -79.6327 -79.6323 -79.6313 -79.6309
   -79.6305 -79.6300 -79.6291 -79.6286 -79.6232 -79.6209 -79.6186 -79.6163
   -79.6077 -79.6066 -79.6032 -79.6022 -79.6021 -79.6017 -79.6015 -79.6011
   -79.6010 -79.6009 -79.6005 -79.6004 -79.6004 -79.6001 -79.5999 -79.5998
   -79.5996 -79.5992 -79.5990 -79.5985 -79.5909 -79.5898 -79.5864 -79.5852
   -79.5597 -79.5593 -79.5584 -79.5583 -79.5580 -79.5580 -79.5576 -79.5567
   -79.5565 -79.5563 -79.5538 -79.5520 -79.5471 -79.5467 -79.5458 -79.5455
   -79.5454 -79.5450 -79.5442 -79.5437 -79.5415 -79.5397 -79.5370 -79.5352
   -79.4749 -79.4745 -79.4745 -79.4741 -79.4736 -79.4732 -79.4731 -79.4728
   -79.4728 -79.4723 -79.4683 -79.4679 -79.4628 -79.4624 -79.4622 -79.4618
   -79.4614 -79.4609 -79.4609 -79.4605 -79.4560 -79.4555 -79.4515 -79.4510
   -79.4300 -79.4296 -79.4291 -79.4288 -79.4287 -79.4284 -79.4279 -79.4275
   -79.4267 -79.4257 -79.4223 -79.4213 -79.4173 -79.4169 -79.4163 -79.4160
   -79.4158 -79.4156 -79.4150 -79.4146 -79.4099 -79.4090 -79.4055 -79.4045
   -79.3792 -79.3789 -79.3780 -79.3776 -79.3765 -79.3761 -79.3752 -79.3748
   -79.3642 -79.3628 -79.3625 -79.3616 -79.3615 -79.3612 -79.3602 -79.3598
   -79.3597 -79.3589 -79.3585 -79.3569 -79.3474 -79.3446 -79.3429 -79.3401
    -8.2366  -7.7578  -7.4192  -7.1916  -7.1478  -7.0910  -7.0759  -7.0517
    -7.0072  -6.9666  -6.9614  -6.9356  -6.9315  -6.9311  -6.9176  -6.9173
    -6.9129  -6.9089  -6.8886  -6.8876  -6.8873  -6.8868  -6.8827  -6.8681
    -6.8659  -6.8606  -6.8526  -6.8461  -6.8408  -6.8252  -6.8212  -6.8160
    -6.8160  -6.8077  -6.8063  -6.8014  -6.7897  -6.7795  -6.7617  -6.7496
    -6.7489  -6.7482  -6.7452  -6.7449  -6.7424  -6.7039  -6.7034  -6.6955
    -6.6941  -6.6926  -6.6843  -6.6765  -6.6703  -6.6628  -6.6585  -6.6544
    -6.6273  -6.6268  -6.6251  -6.6153  -6.6141  -6.6039  -6.5889  -6.5796
    -6.5791  -6.5747  -6.5742  -6.5657  -6.5649  -6.5577  -6.5466  -6.5403
    -6.5388  -6.5328  -6.5321  -6.5245  -6.5128  -6.5082  -6.5065  -6.5050
    -6.4932  -6.4914  -6.4789  -6.4716  -6.4715  -6.4705  -6.4514  -6.4447
    -6.4398  -6.4366  -6.4354  -6.4352  -6.4332  -6.4232  -6.4178  -6.4131
    -6.4051  -6.3988  -6.3954  -6.3943  -6.3910  -6.3841  -6.3787  -6.3738
    -6.3706  -6.3455  -6.3426  -6.3362  -6.3241  -6.3215  -6.3189  -6.3042
    -6.2924  -6.2905  -6.2880  -6.2845  -6.2689  -6.2656  -6.2602  -6.2541
    -6.2500  -6.2484  -6.2320  -6.2310  -6.2302  -6.2275  -6.2240  -6.2220
    -6.2172  -6.2068  -6.1957  -6.1912  -6.1889  -6.1877  -6.1855  -6.1786
    -6.1755  -6.1752  -6.1669  -6.1586  -6.1548  -6.1508  -6.1503  -6.1451
    -6.1396  -6.1380  -6.1370  -6.1344  -6.1184  -6.1143  -6.1129  -6.1095
    -6.1029  -6.0908  -6.0879  -6.0847  -6.0838  -6.0819  -6.0752  -6.0701
    -6.0636  -6.0624  -6.0524  -6.0520  -6.0507  -6.0495  -6.0448  -6.0361
    -6.0316  -6.0275  -6.0193  -6.0178  -6.0171  -6.0160  -6.0111  -6.0095
    -6.0091  -6.0071  -6.0056  -6.0003  -5.9949  -5.9923  -5.9911  -5.9887
    -5.9873  -5.9872  -5.9834  -5.9769  -5.9737  -5.9717  -5.9698  -5.9657
    -5.9647  -5.9643  -5.9626  -5.9620  -5.9617  -5.9527  -5.9467  -5.9393
    -5.9323  -5.9313  -5.9306  -5.9269  -5.9223  -5.9193  -5.9164  -5.9140
    -5.9094  -5.9068  -5.9010  -5.8984  -5.8916  -5.8904  -5.8858  -5.8791
    -5.8783  -5.8771  -5.8767  -5.8755  -5.8721  -5.8713  -5.8622  -5.8592
    -5.8487  -5.8475  -5.8439  -5.8408  -5.8339  -5.8299  -5.8273  -5.8259
    -5.8182  -5.8100  -5.8099  -5.8035  -5.7958  -5.7925  -5.7576  -5.7276
    -5.7257  -5.7172  -5.7016  -5.6903  -5.6573  -5.6002  -5.2700  -5.1742
    -5.1537  -4.8371  -4.7665  -4.5302  -4.2220  -3.6789  -3.5790  -3.5254
    -3.4776  -3.0974  -3.0675  -2.9724  -2.7349  -2.6685  -2.5010  -2.1277
    -2.0294  -1.8163  -1.8112  -1.8062  -1.6486  -1.3185  -1.3007  -1.2871
    -1.0249  -1.0188  -0.8077  -0.7741  -0.6885  -0.6625  -0.3438  -0.3089
     0.0931   0.1202   0.2282   0.3659   0.4161   0.4578   0.6828   0.9257
     0.9632   1.0747   1.1915   1.3663   1.5908   1.7236   1.7674   1.8550
     1.9550   2.0581   2.2176   2.4614   2.6438   2.6651   2.6701   2.8867
     2.9512   3.1279   3.1443   3.1720   3.4775   3.5144   3.5330   3.5402
     3.5945   3.6805   4.0108   4.0484   4.0833   4.0923   4.1486   4.2667
     4.3013   4.4997   4.5455   4.5457   4.6479   4.7224   4.7578   4.7782
     4.8605   4.9452   5.0852   5.1256   5.1276   5.2271   5.2293   5.2911
     5.3802   5.3805   5.4112   5.6405   5.7494   5.7720   5.8067   5.8974
     5.9628   6.0052   6.0222   6.0669   6.1449   6.1598   6.1757   6.2088
     6.3756   6.3818   6.3829   6.3951   6.4893   6.6044   6.6765   6.6996
     6.8580   6.9550   6.9766   7.0083   7.0500   7.1594   7.1625   7.1802
     7.1895   7.1953   7.2443   7.2523   7.3782   7.4041   7.4054   7.4188
     7.4782   7.5127   7.6368   7.7000   7.7277   7.7658   7.8362   7.8908

     occupation numbers 
     1.0000   1.0000   1.0000   1.0000   1.0000   1.0000   1.0000   1.0000
     1.0000   1.0000   1.0000   1.0000   1.0000   1.0000   1.0000   1.0000
     1.0000   1.0000   1.0000   1.0000   1.0000   1.0000   1.0000   1.0000
     1.0000   1.0000   1.0000   1.0000   1.0000   1.0000   1.0000   1.0000
     1.0000   1.0000   1.0000   1.0000   1.0000   1.0000   1.0000   1.0000
     1.0000   1.0000   1.0000   1.0000   1.0000   1.0000   1.0000   1.0000
     1.0000   1.0000   1.0000   1.0000   1.0000   1.0000   1.0000   1.0000
     1.0000   1.0000   1.0000   1.0000   1.0000   1.0000   1.0000   1.0000
     1.0000   1.0000   1.0000   1.0000   1.0000   1.0000   1.0000   1.0000
     1.0000   1.0000   1.0000   1.0000   1.0000   1.0000   1.0000   1.0000
     1.0000   1.0000   1.0000   1.0000   1.0000   1.0000   1.0000   1.0000
     1.0000   1.0000   1.0000   1.0000   1.0000   1.0000   1.0000   1.0000
     1.0000   1.0000   1.0000   1.0000   1.0000   1.0000   1.0000   1.0000
     1.0000   1.0000   1.0000   1.0000   1.0000   1.0000   1.0000   1.0000
     1.0000   1.0000   1.0000   1.0000   1.0000   1.0000   1.0000   1.0000
     1.0000   1.0000   1.0000   1.0000   1.0000   1.0000   1.0000   1.0000
     1.0000   1.0000   1.0000   1.0000   1.0000   1.0000   1.0000   1.0000
     1.0000   1.0000   1.0000   1.0000   1.0000   1.0000   1.0000   1.0000
     1.0000   1.0000   1.0000   1.0000   1.0000   1.0000   1.0000   1.0000
     1.0000   1.0000   1.0000   1.0000   1.0000   1.0000   1.0000   1.0000
     1.0000   1.0000   1.0000   1.0000   1.0000   1.0000   1.0000   1.0000
     1.0000   1.0000   1.0000   1.0000   1.0000   1.0000   1.0000   1.0000
     1.0000   1.0000   1.0000   1.0000   1.0000   1.0000   1.0000   1.0000
     1.0000   1.0000   1.0000   1.0000   1.0000   1.0000   1.0000   1.0000
     1.0000   1.0000   1.0000   1.0000   1.0000   1.0000   1.0000   1.0000
     1.0000   1.0000   1.0000   1.0000   1.0000   1.0000   1.0000   1.0000
     1.0000   1.0000   1.0000   1.0000   1.0000   1.0000   1.0000   1.0000
     1.0000   1.0000   1.0000   1.0000   1.0000   1.0000   1.0000   1.0000
     1.0000   1.0000   1.0000   1.0000   1.0000   1.0000   1.0000   1.0000
     1.0000   1.0000   1.0000   1.0000   1.0000   1.0000   1.0000   1.0000
     1.0000   1.0000   1.0000   1.0000   1.0000   1.0000   1.0000   1.0000
     1.0000   1.0000   1.0000   1.0000   1.0000   1.0000   1.0000   1.0000
     1.0000   1.0000   1.0000   1.0000   1.0000   1.0000   1.0000   1.0000
     1.0000   1.0000   1.0000   1.0000   1.0000   1.0000   1.0000   1.0000
     1.0000   1.0000   1.0000   1.0000   1.0000   1.0000   1.0000   1.0000
     1.0000   1.0000   1.0000   1.0000   1.0000   1.0000   1.0000   1.0000
     1.0000   1.0000   1.0000   1.0000   1.0000   1.0000   1.0000   1.0000
     1.0000   1.0000   1.0000   1.0000   1.0000   1.0000   1.0000   1.0000
     1.0000   1.0000   1.0000   1.0000   1.0000   1.0000   1.0000   1.0000
     1.0000   1.0000   1.0000   1.0000   1.0000   1.0000   1.0000   1.0000
     1.0000   1.0000   1.0000   1.0000   1.0000   1.0000   1.0000   1.0000
     1.0000   1.0000   1.0000   1.0000   1.0000   1.0000   1.0000   1.0000
     1.0000   1.0000   1.0000   1.0000   1.0000   1.0000   1.0000   1.0000
     1.0000   1.0000   1.0000   1.0000   1.0000   1.0000   1.0000   1.0000
     1.0000   1.0000   1.0000   1.0000   1.0000   1.0000   1.0000   1.0000
     1.0000   1.0000   1.0000   1.0000   1.0000   1.0000   1.0000   1.0000
     1.0000   1.0000   1.0000   1.0000   1.0000   1.0000   1.0000   1.0000
     1.0000   1.0000   1.0000   1.0000   1.0000   1.0000   1.0000   1.0000
     1.0000   1.0000   1.0000   1.0000   1.0000   1.0000   1.0000   1.0000
     1.0000   1.0000   1.0000   1.0000   1.0000   1.0000   1.0000   1.0000
     1.0000   1.0000   1.0000   1.0000   1.0000   1.0000   1.0000   1.0000
     1.0000   1.0000   1.0000   1.0000   1.0000   1.0000   1.0000   1.0000
     1.0000   1.0000   1.0000   1.0000   1.0000   1.0000   1.0000   1.0000
     1.0000   1.0000   1.0000   1.0000   1.0000   1.0000   1.0000   1.0000
     1.0000   1.0000   1.0000   1.0000   1.0000   1.0000   1.0000   1.0000
     1.0000   1.0000   1.0000   1.0000   1.0000   1.0000   1.0000   1.0000
     1.0000   1.0000   1.0000   1.0000   1.0000   1.0000   1.0000   1.0000
     1.0000   1.0000   1.0000   1.0000   1.0000   1.0000   1.0000   1.0000
     1.0000   1.0000   1.0000   1.0000   1.0000   1.0000   1.0000   1.0000
     1.0022   1.0033   1.0136   1.0492   1.0663   1.0780   0.9211   0.3072
     0.2305   0.0801   0.0189   0.0011   0.0000   0.0000   0.0000   0.0000
     0.0000   0.0000   0.0000   0.0000   0.0000   0.0000   0.0000   0.0000
     0.0000   0.0000   0.0000   0.0000   0.0000   0.0000   0.0000   0.0000
     0.0000   0.0000   0.0000   0.0000   0.0000   0.0000   0.0000   0.0000
     0.0000   0.0000   0.0000   0.0000   0.0000   0.0000   0.0000   0.0000
     0.0000   0.0000   0.0000   0.0000   0.0000   0.0000   0.0000   0.0000
     0.0000   0.0000   0.0000   0.0000   0.0000   0.0000   0.0000   0.0000
     0.0000   0.0000   0.0000   0.0000   0.0000   0.0000   0.0000   0.0000
     0.0000   0.0000   0.0000   0.0000   0.0000   0.0000   0.0000   0.0000
     0.0000   0.0000   0.0000   0.0000   0.0000   0.0000   0.0000   0.0000
     0.0000   0.0000   0.0000   0.0000   0.0000   0.0000   0.0000   0.0000
     0.0000   0.0000   0.0000   0.0000   0.0000   0.0000   0.0000   0.0000

          k = 0.3333 0.0811 0.7384 ( 72005 PWs)   bands (ev):

  -125.4820-125.4812-125.4812-125.4803-125.4798-125.4789-125.4788-125.4780
  -125.4482-125.4473-125.4472-125.4471-125.4463-125.4461-125.4461-125.4451
  -125.3985-125.3976-125.3976-125.3969-125.3967-125.3959-125.3959-125.3950
  -125.3123-125.3119-125.3115-125.3114-125.3110-125.3110-125.3106-125.3101
  -125.2669-125.2661-125.2660-125.2660-125.2651-125.2651-125.2650-125.2641
  -125.2108-125.2100-125.2099-125.2091-125.2081-125.2072-125.2071-125.2063
   -79.6418 -79.6404 -79.6395 -79.6394 -79.6394 -79.6383 -79.6382 -79.6372
   -79.6371 -79.6360 -79.6329 -79.6318 -79.6318 -79.6307 -79.6307 -79.6296
   -79.6295 -79.6293 -79.6293 -79.6285 -79.6271 -79.6270 -79.6170 -79.6147
   -79.6093 -79.6082 -79.6023 -79.6016 -79.6014 -79.6013 -79.6012 -79.6006
   -79.6005 -79.6005 -79.6003 -79.6002 -79.6001 -79.5995 -79.5995 -79.5994
   -79.5992 -79.5984 -79.5971 -79.5970 -79.5959 -79.5959 -79.5847 -79.5836
   -79.5599 -79.5598 -79.5588 -79.5588 -79.5582 -79.5581 -79.5579 -79.5572
   -79.5571 -79.5562 -79.5477 -79.5477 -79.5472 -79.5462 -79.5462 -79.5459
   -79.5459 -79.5456 -79.5453 -79.5446 -79.5446 -79.5436 -79.5353 -79.5336
   -79.4750 -79.4746 -79.4745 -79.4741 -79.4741 -79.4740 -79.4736 -79.4736
   -79.4730 -79.4726 -79.4629 -79.4624 -79.4623 -79.4623 -79.4619 -79.4618
   -79.4617 -79.4617 -79.4612 -79.4612 -79.4608 -79.4603 -79.4498 -79.4494
   -79.4301 -79.4292 -79.4292 -79.4292 -79.4287 -79.4283 -79.4282 -79.4279
   -79.4277 -79.4270 -79.4174 -79.4167 -79.4166 -79.4164 -79.4159 -79.4159
   -79.4157 -79.4156 -79.4154 -79.4149 -79.4149 -79.4145 -79.4038 -79.4029
   -79.3794 -79.3784 -79.3784 -79.3775 -79.3767 -79.3757 -79.3757 -79.3747
   -79.3658 -79.3631 -79.3630 -79.3620 -79.3620 -79.3611 -79.3603 -79.3593
   -79.3593 -79.3584 -79.3535 -79.3535 -79.3508 -79.3508 -79.3412 -79.3385
    -8.2688  -7.8936  -7.1929  -7.1809  -7.1733  -7.1433  -7.1357  -7.0730
    -7.0627  -7.0174  -7.0047  -7.0034  -6.9934  -6.9839  -6.9639  -6.9553
    -6.9528  -6.9027  -6.9008  -6.8968  -6.8817  -6.8799  -6.8780  -6.8752
    -6.8337  -6.8321  -6.8018  -6.7999  -6.7948  -6.7885  -6.7793  -6.7662
    -6.7588  -6.7478  -6.7477  -6.7421  -6.7406  -6.7380  -6.7261  -6.7256
    -6.7238  -6.7213  -6.7075  -6.7065  -6.6962  -6.6928  -6.6909  -6.6844
    -6.6786  -6.6769  -6.6723  -6.6697  -6.6646  -6.6633  -6.6560  -6.6454
    -6.6447  -6.6270  -6.6219  -6.6152  -6.6022  -6.5902  -6.5865  -6.5822
    -6.5761  -6.5744  -6.5738  -6.5639  -6.5611  -6.5465  -6.5449  -6.5412
    -6.5316  -6.5261  -6.5251  -6.5146  -6.5077  -6.4925  -6.4913  -6.4824
    -6.4800  -6.4754  -6.4753  -6.4746  -6.4742  -6.4737  -6.4632  -6.4615
    -6.4394  -6.4354  -6.4314  -6.4199  -6.4103  -6.4058  -6.3916  -6.3774
    -6.3720  -6.3698  -6.3691  -6.3629  -6.3625  -6.3599  -6.3585  -6.3537
    -6.3402  -6.3388  -6.3345  -6.3204  -6.3128  -6.3058  -6.3048  -6.2903
    -6.2812  -6.2781  -6.2779  -6.2765  -6.2697  -6.2628  -6.2600  -6.2480
    -6.2475  -6.2471  -6.2405  -6.2379  -6.2273  -6.2262  -6.2213  -6.2204
    -6.2193  -6.2165  -6.2101  -6.2065  -6.2050  -6.1962  -6.1864  -6.1721
    -6.1696  -6.1656  -6.1646  -6.1616  -6.1579  -6.1542  -6.1538  -6.1537
    -6.1496  -6.1494  -6.1475  -6.1468  -6.1462  -6.1423  -6.1409  -6.1263
    -6.1254  -6.1221  -6.1168  -6.1024  -6.1013  -6.1004  -6.1003  -6.0989
    -6.0985  -6.0951  -6.0876  -6.0849  -6.0764  -6.0732  -6.0701  -6.0678
    -6.0591  -6.0569  -6.0563  -6.0559  -6.0541  -6.0529  -6.0520  -6.0342
    -6.0335  -6.0290  -6.0253  -6.0234  -6.0200  -6.0137  -6.0102  -6.0073
    -6.0043  -6.0030  -5.9985  -5.9946  -5.9940  -5.9925  -5.9841  -5.9837
    -5.9688  -5.9686  -5.9664  -5.9636  -5.9596  -5.9531  -5.9520  -5.9458
    -5.9454  -5.9421  -5.9370  -5.9258  -5.9256  -5.9252  -5.9237  -5.9199
    -5.9124  -5.9111  -5.9075  -5.9050  -5.9033  -5.9003  -5.8997  -5.8951
    -5.8938  -5.8905  -5.8856  -5.8855  -5.8855  -5.8624  -5.8597  -5.8524
    -5.8462  -5.8341  -5.8333  -5.8294  -5.8174  -5.8068  -5.7855  -5.7850
    -5.7844  -5.7807  -5.7789  -5.7655  -5.7586  -5.7581  -5.7366  -5.7286
    -5.7200  -5.6732  -5.6590  -5.6589  -5.6346  -5.6334  -5.4023  -5.2741
    -5.2190  -4.7785  -4.6882  -4.4762  -4.2647  -4.0755  -3.7053  -3.6942
    -3.6616  -3.0562  -3.0526  -3.0431  -2.6047  -2.3042  -2.0878  -2.0872
    -2.0629  -1.9419  -1.7862  -1.4558  -1.4045  -1.2765  -1.2749  -1.2130
    -1.0084  -0.8389  -0.6070  -0.6043  -0.5642  -0.5606  -0.4524  -0.4499
    -0.0448  -0.0276   0.2321   0.3511   0.4508   0.4557   0.4781   0.8380
     1.0561   1.1865   1.1871   1.2022   1.4360   1.5200   1.7584   1.7914
     1.7975   1.8539   2.3271   2.3501   2.3506   2.4010   2.6257   2.6265
     2.6804   2.9839   3.0416   3.0460   3.1494   3.3154   3.3403   3.5765
     3.7759   3.7835   3.8319   3.8347   3.9132   4.0934   4.1822   4.1869
     4.3902   4.5169   4.5905   4.5950   4.6074   4.7075   4.7584   4.9132
     5.0413   5.0572   5.1206   5.3302   5.3483   5.3625   5.3688   5.4728
     5.5514   5.5765   5.7156   5.7270   5.8018   5.9755   6.0166   6.0648
     6.1473   6.1940   6.2487   6.2545   6.3058   6.3452   6.4262   6.5280
     6.5344   6.5612   6.5656   6.5704   6.7258   6.7335   6.7868   6.8589
     6.8605   6.9483   6.9654   6.9725   6.9950   7.0267   7.0298   7.0422
     7.1915   7.2107   7.2553   7.3212   7.3705   7.3743   7.4021   7.4656
     7.4952   7.4975   7.5416   7.5548   7.5919   7.6810   7.6833   7.7309

     occupation numbers 
     1.0000   1.0000   1.0000   1.0000   1.0000   1.0000   1.0000   1.0000
     1.0000   1.0000   1.0000   1.0000   1.0000   1.0000   1.0000   1.0000
     1.0000   1.0000   1.0000   1.0000   1.0000   1.0000   1.0000   1.0000
     1.0000   1.0000   1.0000   1.0000   1.0000   1.0000   1.0000   1.0000
     1.0000   1.0000   1.0000   1.0000   1.0000   1.0000   1.0000   1.0000
     1.0000   1.0000   1.0000   1.0000   1.0000   1.0000   1.0000   1.0000
     1.0000   1.0000   1.0000   1.0000   1.0000   1.0000   1.0000   1.0000
     1.0000   1.0000   1.0000   1.0000   1.0000   1.0000   1.0000   1.0000
     1.0000   1.0000   1.0000   1.0000   1.0000   1.0000   1.0000   1.0000
     1.0000   1.0000   1.0000   1.0000   1.0000   1.0000   1.0000   1.0000
     1.0000   1.0000   1.0000   1.0000   1.0000   1.0000   1.0000   1.0000
     1.0000   1.0000   1.0000   1.0000   1.0000   1.0000   1.0000   1.0000
     1.0000   1.0000   1.0000   1.0000   1.0000   1.0000   1.0000   1.0000
     1.0000   1.0000   1.0000   1.0000   1.0000   1.0000   1.0000   1.0000
     1.0000   1.0000   1.0000   1.0000   1.0000   1.0000   1.0000   1.0000
     1.0000   1.0000   1.0000   1.0000   1.0000   1.0000   1.0000   1.0000
     1.0000   1.0000   1.0000   1.0000   1.0000   1.0000   1.0000   1.0000
     1.0000   1.0000   1.0000   1.0000   1.0000   1.0000   1.0000   1.0000
     1.0000   1.0000   1.0000   1.0000   1.0000   1.0000   1.0000   1.0000
     1.0000   1.0000   1.0000   1.0000   1.0000   1.0000   1.0000   1.0000
     1.0000   1.0000   1.0000   1.0000   1.0000   1.0000   1.0000   1.0000
     1.0000   1.0000   1.0000   1.0000   1.0000   1.0000   1.0000   1.0000
     1.0000   1.0000   1.0000   1.0000   1.0000   1.0000   1.0000   1.0000
     1.0000   1.0000   1.0000   1.0000   1.0000   1.0000   1.0000   1.0000
     1.0000   1.0000   1.0000   1.0000   1.0000   1.0000   1.0000   1.0000
     1.0000   1.0000   1.0000   1.0000   1.0000   1.0000   1.0000   1.0000
     1.0000   1.0000   1.0000   1.0000   1.0000   1.0000   1.0000   1.0000
     1.0000   1.0000   1.0000   1.0000   1.0000   1.0000   1.0000   1.0000
     1.0000   1.0000   1.0000   1.0000   1.0000   1.0000   1.0000   1.0000
     1.0000   1.0000   1.0000   1.0000   1.0000   1.0000   1.0000   1.0000
     1.0000   1.0000   1.0000   1.0000   1.0000   1.0000   1.0000   1.0000
     1.0000   1.0000   1.0000   1.0000   1.0000   1.0000   1.0000   1.0000
     1.0000   1.0000   1.0000   1.0000   1.0000   1.0000   1.0000   1.0000
     1.0000   1.0000   1.0000   1.0000   1.0000   1.0000   1.0000   1.0000
     1.0000   1.0000   1.0000   1.0000   1.0000   1.0000   1.0000   1.0000
     1.0000   1.0000   1.0000   1.0000   1.0000   1.0000   1.0000   1.0000
     1.0000   1.0000   1.0000   1.0000   1.0000   1.0000   1.0000   1.0000
     1.0000   1.0000   1.0000   1.0000   1.0000   1.0000   1.0000   1.0000
     1.0000   1.0000   1.0000   1.0000   1.0000   1.0000   1.0000   1.0000
     1.0000   1.0000   1.0000   1.0000   1.0000   1.0000   1.0000   1.0000
     1.0000   1.0000   1.0000   1.0000   1.0000   1.0000   1.0000   1.0000
     1.0000   1.0000   1.0000   1.0000   1.0000   1.0000   1.0000   1.0000
     1.0000   1.0000   1.0000   1.0000   1.0000   1.0000   1.0000   1.0000
     1.0000   1.0000   1.0000   1.0000   1.0000   1.0000   1.0000   1.0000
     1.0000   1.0000   1.0000   1.0000   1.0000   1.0000   1.0000   1.0000
     1.0000   1.0000   1.0000   1.0000   1.0000   1.0000   1.0000   1.0000
     1.0000   1.0000   1.0000   1.0000   1.0000   1.0000   1.0000   1.0000
     1.0000   1.0000   1.0000   1.0000   1.0000   1.0000   1.0000   1.0000
     1.0000   1.0000   1.0000   1.0000   1.0000   1.0000   1.0000   1.0000
     1.0000   1.0000   1.0000   1.0000   1.0000   1.0000   1.0000   1.0000
     1.0000   1.0000   1.0000   1.0000   1.0000   1.0000   1.0000   1.0000
     1.0000   1.0000   1.0000   1.0000   1.0000   1.0000   1.0000   1.0000
     1.0000   1.0000   1.0000   1.0000   1.0000   1.0000   1.0000   1.0000
     1.0000   1.0000   1.0000   1.0000   1.0000   1.0000   1.0000   1.0000
     1.0000   1.0000   1.0000   1.0000   1.0000   1.0000   1.0000   1.0000
     1.0000   1.0000   1.0000   1.0000   1.0000   1.0000   1.0000   1.0000
     1.0000   1.0000   1.0000   1.0000   1.0000   1.0000   1.0000   1.0000
     1.0000   1.0000   1.0000   1.0000   1.0000   1.0000   1.0000   1.0000
     1.0000   1.0000   1.0000   1.0000   1.0000   1.0000   1.0000   1.0000
     1.0002   1.0003   1.0142   1.0442   1.0764   1.0776   1.0817   0.5283
     0.0976   0.0203   0.0201   0.0163   0.0003   0.0000   0.0000   0.0000
     0.0000   0.0000   0.0000   0.0000   0.0000   0.0000   0.0000   0.0000
     0.0000   0.0000   0.0000   0.0000   0.0000   0.0000   0.0000   0.0000
     0.0000   0.0000   0.0000   0.0000   0.0000   0.0000   0.0000   0.0000
     0.0000   0.0000   0.0000   0.0000   0.0000   0.0000   0.0000   0.0000
     0.0000   0.0000   0.0000   0.0000   0.0000   0.0000   0.0000   0.0000
     0.0000   0.0000   0.0000   0.0000   0.0000   0.0000   0.0000   0.0000
     0.0000   0.0000   0.0000   0.0000   0.0000   0.0000   0.0000   0.0000
     0.0000   0.0000   0.0000   0.0000   0.0000   0.0000   0.0000   0.0000
     0.0000   0.0000   0.0000   0.0000   0.0000   0.0000   0.0000   0.0000
     0.0000   0.0000   0.0000   0.0000   0.0000   0.0000   0.0000   0.0000
     0.0000   0.0000   0.0000   0.0000   0.0000   0.0000   0.0000   0.0000

          k = 0.3333 0.4439 0.9230 ( 71974 PWs)   bands (ev):

  -125.4819-125.4816-125.4807-125.4804-125.4797-125.4793-125.4785-125.4780
  -125.4481-125.4476-125.4470-125.4469-125.4465-125.4464-125.4457-125.4452
  -125.3984-125.3980-125.3972-125.3968-125.3968-125.3963-125.3955-125.3951
  -125.3122-125.3119-125.3118-125.3114-125.3110-125.3107-125.3106-125.3102
  -125.2668-125.2664-125.2659-125.2656-125.2655-125.2652-125.2647-125.2642
  -125.2107-125.2104-125.2095-125.2092-125.2080-125.2076-125.2068-125.2064
   -79.6403 -79.6401 -79.6399 -79.6388 -79.6384 -79.6381 -79.6378 -79.6376
   -79.6366 -79.6361 -79.6356 -79.6333 -79.6327 -79.6323 -79.6313 -79.6309
   -79.6306 -79.6300 -79.6290 -79.6286 -79.6232 -79.6209 -79.6186 -79.6163
   -79.6077 -79.6066 -79.6032 -79.6022 -79.6021 -79.6017 -79.6015 -79.6011
   -79.6010 -79.6009 -79.6006 -79.6004 -79.6004 -79.6001 -79.5999 -79.5998
   -79.5996 -79.5992 -79.5990 -79.5985 -79.5909 -79.5898 -79.5864 -79.5852
   -79.5597 -79.5593 -79.5584 -79.5583 -79.5580 -79.5580 -79.5576 -79.5567
   -79.5565 -79.5563 -79.5538 -79.5520 -79.5471 -79.5467 -79.5458 -79.5455
   -79.5454 -79.5450 -79.5442 -79.5437 -79.5415 -79.5397 -79.5370 -79.5352
   -79.4749 -79.4745 -79.4745 -79.4741 -79.4736 -79.4732 -79.4731 -79.4728
   -79.4728 -79.4723 -79.4683 -79.4679 -79.4628 -79.4623 -79.4622 -79.4618
   -79.4614 -79.4610 -79.4609 -79.4604 -79.4560 -79.4555 -79.4515 -79.4510
   -79.4300 -79.4296 -79.4291 -79.4288 -79.4287 -79.4284 -79.4279 -79.4275
   -79.4267 -79.4257 -79.4223 -79.4213 -79.4173 -79.4169 -79.4163 -79.4160
   -79.4159 -79.4156 -79.4150 -79.4146 -79.4099 -79.4090 -79.4055 -79.4045
   -79.3792 -79.3789 -79.3780 -79.3776 -79.3765 -79.3761 -79.3752 -79.3748
   -79.3642 -79.3628 -79.3625 -79.3616 -79.3615 -79.3612 -79.3602 -79.3598
   -79.3597 -79.3589 -79.3585 -79.3569 -79.3474 -79.3446 -79.3429 -79.3401
    -8.0379  -7.8510  -7.7577  -7.1479  -7.0929  -7.0844  -7.0658  -7.0610
    -6.9881  -6.9683  -6.9615  -6.9484  -6.9325  -6.9267  -6.9208  -6.9159
    -6.9147  -6.9089  -6.9003  -6.8884  -6.8873  -6.8767  -6.8704  -6.8671
    -6.8661  -6.8658  -6.8616  -6.8496  -6.8264  -6.8231  -6.8172  -6.8160
    -6.8141  -6.8136  -6.8036  -6.8020  -6.7908  -6.7794  -6.7608  -6.7495
    -6.7488  -6.7482  -6.7467  -6.7358  -6.7233  -6.7058  -6.6951  -6.6942
    -6.6936  -6.6846  -6.6840  -6.6824  -6.6766  -6.6495  -6.6407  -6.6388
    -6.6341  -6.6281  -6.6263  -6.6253  -6.6159  -6.6032  -6.5918  -6.5896
    -6.5803  -6.5801  -6.5797  -6.5649  -6.5577  -6.5564  -6.5460  -6.5367
    -6.5354  -6.5338  -6.5246  -6.5246  -6.5210  -6.5125  -6.5044  -6.4997
    -6.4935  -6.4791  -6.4758  -6.4741  -6.4705  -6.4640  -6.4553  -6.4495
    -6.4453  -6.4397  -6.4377  -6.4349  -6.4345  -6.4221  -6.4189  -6.4124
    -6.4069  -6.4052  -6.3974  -6.3973  -6.3841  -6.3744  -6.3716  -6.3698
    -6.3455  -6.3424  -6.3391  -6.3346  -6.3316  -6.3220  -6.3189  -6.3041
    -6.2927  -6.2905  -6.2880  -6.2832  -6.2827  -6.2784  -6.2766  -6.2680
    -6.2664  -6.2422  -6.2357  -6.2320  -6.2308  -6.2242  -6.2234  -6.2226
    -6.2213  -6.2094  -6.2070  -6.1969  -6.1926  -6.1914  -6.1885  -6.1867
    -6.1821  -6.1800  -6.1790  -6.1761  -6.1588  -6.1571  -6.1509  -6.1505
    -6.1481  -6.1424  -6.1398  -6.1368  -6.1178  -6.1133  -6.1120  -6.1104
    -6.0922  -6.0887  -6.0858  -6.0838  -6.0753  -6.0712  -6.0703  -6.0691
    -6.0623  -6.0577  -6.0518  -6.0514  -6.0495  -6.0455  -6.0450  -6.0418
    -6.0366  -6.0363  -6.0331  -6.0315  -6.0277  -6.0262  -6.0227  -6.0120
    -6.0097  -6.0091  -6.0059  -5.9953  -5.9945  -5.9921  -5.9903  -5.9892
    -5.9887  -5.9867  -5.9806  -5.9738  -5.9720  -5.9713  -5.9703  -5.9644
    -5.9637  -5.9621  -5.9566  -5.9545  -5.9525  -5.9468  -5.9431  -5.9367
    -5.9324  -5.9322  -5.9318  -5.9264  -5.9210  -5.9195  -5.9194  -5.9172
    -5.9115  -5.9090  -5.9009  -5.8981  -5.8900  -5.8887  -5.8858  -5.8816
    -5.8778  -5.8774  -5.8753  -5.8723  -5.8633  -5.8624  -5.8562  -5.8503
    -5.8488  -5.8478  -5.8443  -5.8442  -5.8297  -5.8275  -5.8272  -5.8251
    -5.8180  -5.8163  -5.8139  -5.8113  -5.7915  -5.7785  -5.7722  -5.7287
    -5.7269  -5.7107  -5.6955  -5.6703  -5.4732  -5.3227  -5.2700  -5.1746
    -5.1535  -4.8641  -4.7659  -4.5302  -4.2496  -3.8739  -3.5792  -3.5250
    -3.2589  -3.0979  -2.9732  -2.9026  -2.8643  -2.7354  -2.5531  -2.5013
    -2.4382  -2.3858  -2.2429  -1.8109  -1.6484  -1.2872  -1.2078  -1.0185
    -0.8078  -0.7735  -0.6627  -0.6548  -0.4042  -0.3081  -0.0956  -0.0086
     0.1200   0.2614   0.3051   0.3807   0.4161   0.4898   0.5916   0.8903
     1.1700   1.1913   1.3664   1.4026   1.5867   1.5894   1.7660   1.8550
     1.9602   2.0591   2.0769   2.4267   2.4633   2.6437   2.6674   2.7652
     2.8524   2.9357   2.9534   3.1475   3.1696   3.2717   3.2990   3.3592
     3.4777   3.5934   3.7811   3.8567   3.8616   4.0089   4.0484   4.0813
     4.2696   4.2730   4.5009   4.5457   4.7182   4.8353   4.8527   4.8575
     5.0755   5.0876   5.1215   5.2059   5.2275   5.2294   5.2374   5.3463
     5.3806   5.6038   5.6129   5.6429   5.7106   5.7494   5.8722   5.8973
     5.9514   5.9653   6.0739   6.0795   6.1450   6.1742   6.2091   6.2558
     6.2638   6.3805   6.3818   6.3960   6.4252   6.4884   6.6029   6.6999
     6.7630   6.8608   6.9552   7.0500   7.0606   7.1680   7.1798   7.1950
     7.2443   7.3516   7.3791   7.4041   7.4187   7.5140   7.6645   7.6914
     7.7261   7.7418   7.7663   7.8918   7.9247   7.9349   7.9694   8.0063

     occupation numbers 
     1.0000   1.0000   1.0000   1.0000   1.0000   1.0000   1.0000   1.0000
     1.0000   1.0000   1.0000   1.0000   1.0000   1.0000   1.0000   1.0000
     1.0000   1.0000   1.0000   1.0000   1.0000   1.0000   1.0000   1.0000
     1.0000   1.0000   1.0000   1.0000   1.0000   1.0000   1.0000   1.0000
     1.0000   1.0000   1.0000   1.0000   1.0000   1.0000   1.0000   1.0000
     1.0000   1.0000   1.0000   1.0000   1.0000   1.0000   1.0000   1.0000
     1.0000   1.0000   1.0000   1.0000   1.0000   1.0000   1.0000   1.0000
     1.0000   1.0000   1.0000   1.0000   1.0000   1.0000   1.0000   1.0000
     1.0000   1.0000   1.0000   1.0000   1.0000   1.0000   1.0000   1.0000
     1.0000   1.0000   1.0000   1.0000   1.0000   1.0000   1.0000   1.0000
     1.0000   1.0000   1.0000   1.0000   1.0000   1.0000   1.0000   1.0000
     1.0000   1.0000   1.0000   1.0000   1.0000   1.0000   1.0000   1.0000
     1.0000   1.0000   1.0000   1.0000   1.0000   1.0000   1.0000   1.0000
     1.0000   1.0000   1.0000   1.0000   1.0000   1.0000   1.0000   1.0000
     1.0000   1.0000   1.0000   1.0000   1.0000   1.0000   1.0000   1.0000
     1.0000   1.0000   1.0000   1.0000   1.0000   1.0000   1.0000   1.0000
     1.0000   1.0000   1.0000   1.0000   1.0000   1.0000   1.0000   1.0000
     1.0000   1.0000   1.0000   1.0000   1.0000   1.0000   1.0000   1.0000
     1.0000   1.0000   1.0000   1.0000   1.0000   1.0000   1.0000   1.0000
     1.0000   1.0000   1.0000   1.0000   1.0000   1.0000   1.0000   1.0000
     1.0000   1.0000   1.0000   1.0000   1.0000   1.0000   1.0000   1.0000
     1.0000   1.0000   1.0000   1.0000   1.0000   1.0000   1.0000   1.0000
     1.0000   1.0000   1.0000   1.0000   1.0000   1.0000   1.0000   1.0000
     1.0000   1.0000   1.0000   1.0000   1.0000   1.0000   1.0000   1.0000
     1.0000   1.0000   1.0000   1.0000   1.0000   1.0000   1.0000   1.0000
     1.0000   1.0000   1.0000   1.0000   1.0000   1.0000   1.0000   1.0000
     1.0000   1.0000   1.0000   1.0000   1.0000   1.0000   1.0000   1.0000
     1.0000   1.0000   1.0000   1.0000   1.0000   1.0000   1.0000   1.0000
     1.0000   1.0000   1.0000   1.0000   1.0000   1.0000   1.0000   1.0000
     1.0000   1.0000   1.0000   1.0000   1.0000   1.0000   1.0000   1.0000
     1.0000   1.0000   1.0000   1.0000   1.0000   1.0000   1.0000   1.0000
     1.0000   1.0000   1.0000   1.0000   1.0000   1.0000   1.0000   1.0000
     1.0000   1.0000   1.0000   1.0000   1.0000   1.0000   1.0000   1.0000
     1.0000   1.0000   1.0000   1.0000   1.0000   1.0000   1.0000   1.0000
     1.0000   1.0000   1.0000   1.0000   1.0000   1.0000   1.0000   1.0000
     1.0000   1.0000   1.0000   1.0000   1.0000   1.0000   1.0000   1.0000
     1.0000   1.0000   1.0000   1.0000   1.0000   1.0000   1.0000   1.0000
     1.0000   1.0000   1.0000   1.0000   1.0000   1.0000   1.0000   1.0000
     1.0000   1.0000   1.0000   1.0000   1.0000   1.0000   1.0000   1.0000
     1.0000   1.0000   1.0000   1.0000   1.0000   1.0000   1.0000   1.0000
     1.0000   1.0000   1.0000   1.0000   1.0000   1.0000   1.0000   1.0000
     1.0000   1.0000   1.0000   1.0000   1.0000   1.0000   1.0000   1.0000
     1.0000   1.0000   1.0000   1.0000   1.0000   1.0000   1.0000   1.0000
     1.0000   1.0000   1.0000   1.0000   1.0000   1.0000   1.0000   1.0000
     1.0000   1.0000   1.0000   1.0000   1.0000   1.0000   1.0000   1.0000
     1.0000   1.0000   1.0000   1.0000   1.0000   1.0000   1.0000   1.0000
     1.0000   1.0000   1.0000   1.0000   1.0000   1.0000   1.0000   1.0000
     1.0000   1.0000   1.0000   1.0000   1.0000   1.0000   1.0000   1.0000
     1.0000   1.0000   1.0000   1.0000   1.0000   1.0000   1.0000   1.0000
     1.0000   1.0000   1.0000   1.0000   1.0000   1.0000   1.0000   1.0000
     1.0000   1.0000   1.0000   1.0000   1.0000   1.0000   1.0000   1.0000
     1.0000   1.0000   1.0000   1.0000   1.0000   1.0000   1.0000   1.0000
     1.0000   1.0000   1.0000   1.0000   1.0000   1.0000   1.0000   1.0000
     1.0000   1.0000   1.0000   1.0000   1.0000   1.0000   1.0000   1.0000
     1.0000   1.0000   1.0000   1.0000   1.0000   1.0000   1.0000   1.0000
     1.0000   1.0000   1.0000   1.0000   1.0000   1.0000   1.0000   1.0000
     1.0000   1.0000   1.0000   1.0000   1.0000   1.0000   1.0000   1.0000
     1.0000   1.0000   1.0000   1.0000   1.0000   1.0000   1.0000   1.0000
     1.0000   1.0000   1.0000   1.0000   1.0000   1.0000   1.0001   1.0004
     1.0032   1.0196   1.0302   1.0543   1.0663   1.0829   1.0488   0.3905
     0.0253   0.0190   0.0011   0.0006   0.0000   0.0000   0.0000   0.0000
     0.0000   0.0000   0.0000   0.0000   0.0000   0.0000   0.0000   0.0000
     0.0000   0.0000   0.0000   0.0000   0.0000   0.0000   0.0000   0.0000
     0.0000   0.0000   0.0000   0.0000   0.0000   0.0000   0.0000   0.0000
     0.0000   0.0000   0.0000   0.0000   0.0000   0.0000   0.0000   0.0000
     0.0000   0.0000   0.0000   0.0000   0.0000   0.0000   0.0000   0.0000
     0.0000   0.0000   0.0000   0.0000   0.0000   0.0000   0.0000   0.0000
     0.0000   0.0000   0.0000   0.0000   0.0000   0.0000   0.0000   0.0000
     0.0000   0.0000   0.0000   0.0000   0.0000   0.0000   0.0000   0.0000
     0.0000   0.0000   0.0000   0.0000   0.0000   0.0000   0.0000   0.0000
     0.0000   0.0000   0.0000   0.0000   0.0000   0.0000   0.0000   0.0000
     0.0000   0.0000   0.0000   0.0000   0.0000   0.0000   0.0000   0.0000

          k = 0.3333-0.2817 0.5538 ( 72014 PWs)   bands (ev):

  -125.4819-125.4816-125.4807-125.4804-125.4797-125.4793-125.4785-125.4780
  -125.4481-125.4476-125.4470-125.4469-125.4465-125.4464-125.4457-125.4452
  -125.3984-125.3980-125.3972-125.3968-125.3968-125.3963-125.3955-125.3951
  -125.3122-125.3119-125.3118-125.3114-125.3110-125.3107-125.3106-125.3102
  -125.2668-125.2664-125.2659-125.2656-125.2655-125.2652-125.2647-125.2642
  -125.2107-125.2104-125.2095-125.2092-125.2080-125.2076-125.2068-125.2064
   -79.6403 -79.6401 -79.6399 -79.6388 -79.6384 -79.6381 -79.6378 -79.6376
   -79.6366 -79.6361 -79.6356 -79.6333 -79.6327 -79.6323 -79.6312 -79.6309
   -79.6305 -79.6301 -79.6290 -79.6286 -79.6232 -79.6209 -79.6186 -79.6163
   -79.6077 -79.6066 -79.6032 -79.6022 -79.6021 -79.6017 -79.6015 -79.6011
   -79.6010 -79.6009 -79.6006 -79.6004 -79.6004 -79.6001 -79.5999 -79.5997
   -79.5996 -79.5992 -79.5990 -79.5985 -79.5909 -79.5898 -79.5864 -79.5852
   -79.5597 -79.5593 -79.5584 -79.5583 -79.5580 -79.5580 -79.5576 -79.5567
   -79.5565 -79.5563 -79.5538 -79.5520 -79.5471 -79.5467 -79.5458 -79.5455
   -79.5454 -79.5450 -79.5442 -79.5437 -79.5415 -79.5397 -79.5370 -79.5352
   -79.4749 -79.4745 -79.4745 -79.4741 -79.4736 -79.4732 -79.4731 -79.4728
   -79.4728 -79.4723 -79.4683 -79.4679 -79.4628 -79.4623 -79.4622 -79.4618
   -79.4614 -79.4610 -79.4608 -79.4605 -79.4560 -79.4555 -79.4515 -79.4510
   -79.4300 -79.4296 -79.4291 -79.4288 -79.4287 -79.4284 -79.4279 -79.4275
   -79.4267 -79.4257 -79.4223 -79.4213 -79.4173 -79.4168 -79.4163 -79.4160
   -79.4159 -79.4156 -79.4150 -79.4146 -79.4099 -79.4090 -79.4055 -79.4045
   -79.3792 -79.3789 -79.3780 -79.3776 -79.3765 -79.3761 -79.3752 -79.3748
   -79.3642 -79.3628 -79.3625 -79.3616 -79.3615 -79.3612 -79.3602 -79.3598
   -79.3597 -79.3589 -79.3585 -79.3569 -79.3474 -79.3446 -79.3429 -79.3401
    -8.1692  -7.6288  -7.5200  -7.5145  -7.1200  -7.0860  -7.0719  -7.0571
    -6.9875  -6.9811  -6.9659  -6.9404  -6.9287  -6.9267  -6.9264  -6.9256
    -6.9232  -6.8974  -6.8958  -6.8852  -6.8824  -6.8805  -6.8768  -6.8751
    -6.8677  -6.8603  -6.8521  -6.8474  -6.8382  -6.8195  -6.8141  -6.8116
    -6.8108  -6.8105  -6.8040  -6.8026  -6.7891  -6.7885  -6.7640  -6.7502
    -6.7388  -6.7330  -6.7320  -6.7305  -6.7262  -6.7179  -6.6931  -6.6910
    -6.6902  -6.6844  -6.6816  -6.6794  -6.6730  -6.6503  -6.6442  -6.6286
    -6.6277  -6.6269  -6.6245  -6.6110  -6.5916  -6.5847  -6.5839  -6.5837
    -6.5787  -6.5735  -6.5713  -6.5636  -6.5632  -6.5567  -6.5445  -6.5433
    -6.5426  -6.5415  -6.5374  -6.5252  -6.5240  -6.5180  -6.5148  -6.5081
    -6.4895  -6.4730  -6.4702  -6.4701  -6.4699  -6.4698  -6.4696  -6.4592
    -6.4523  -6.4475  -6.4471  -6.4404  -6.4387  -6.4273  -6.4267  -6.4266
    -6.3996  -6.3959  -6.3934  -6.3843  -6.3830  -6.3763  -6.3699  -6.3603
    -6.3585  -6.3537  -6.3463  -6.3328  -6.3260  -6.3252  -6.3067  -6.3017
    -6.3013  -6.2977  -6.2849  -6.2712  -6.2702  -6.2664  -6.2660  -6.2650
    -6.2612  -6.2499  -6.2496  -6.2430  -6.2335  -6.2285  -6.2259  -6.2237
    -6.2231  -6.2144  -6.2047  -6.2003  -6.1956  -6.1946  -6.1843  -6.1823
    -6.1748  -6.1709  -6.1708  -6.1705  -6.1643  -6.1587  -6.1448  -6.1446
    -6.1431  -6.1388  -6.1378  -6.1216  -6.1148  -6.1129  -6.1094  -6.1039
    -6.1019  -6.1018  -6.1016  -6.0990  -6.0845  -6.0841  -6.0757  -6.0700
    -6.0633  -6.0606  -6.0549  -6.0508  -6.0493  -6.0486  -6.0451  -6.0397
    -6.0371  -6.0291  -6.0282  -6.0280  -6.0202  -6.0201  -6.0184  -6.0073
    -6.0066  -6.0031  -6.0025  -5.9992  -5.9925  -5.9921  -5.9915  -5.9910
    -5.9881  -5.9827  -5.9825  -5.9797  -5.9795  -5.9716  -5.9702  -5.9686
    -5.9606  -5.9589  -5.9587  -5.9582  -5.9554  -5.9471  -5.9434  -5.9378
    -5.9365  -5.9355  -5.9347  -5.9345  -5.9260  -5.9163  -5.9160  -5.9147
    -5.9112  -5.9077  -5.9059  -5.9053  -5.8990  -5.8846  -5.8810  -5.8804
    -5.8768  -5.8767  -5.8762  -5.8694  -5.8689  -5.8679  -5.8630  -5.8599
    -5.8479  -5.8473  -5.8380  -5.8378  -5.8269  -5.8249  -5.8247  -5.8243
    -5.8183  -5.8129  -5.8126  -5.8093  -5.8004  -5.7961  -5.7886  -5.7689
    -5.7286  -5.7085  -5.7046  -5.6779  -5.5626  -5.3620  -5.2655  -5.0900
    -5.0348  -5.0324  -4.1400  -4.1125  -4.1099  -3.9359  -3.8096  -3.7940
    -3.6726  -3.5432  -3.2028  -2.9419  -2.5687  -2.5670  -2.5118  -2.3504
    -2.1712  -2.1389  -2.1375  -2.1213  -1.8995  -1.7887  -1.5288  -0.9329
    -0.9230  -0.8721  -0.2197  -0.1040  -0.0166   0.0112   0.0345   0.0468
     0.0634   0.3032   0.3687   0.3695   0.6865   0.7377   0.7399   0.7659
     0.9084   0.9486   1.0538   1.2038   1.3761   1.3838   1.3860   1.4993
     1.9625   2.0422   2.3265   2.3356   2.3830   2.5328   2.6156   2.7387
     2.8594   3.0390   3.0409   3.1147   3.2262   3.5647   3.6815   3.6912
     3.6931   3.7357   3.7809   3.9080   3.9724   4.0000   4.1282   4.1840
     4.2640   4.2648   4.2781   4.3180   4.3586   4.5675   4.5809   4.6032
     4.6354   4.7513   4.8541   4.9824   5.1584   5.2663   5.4757   5.5780
     5.5784   5.6353   5.6533   5.7238   5.7713   5.7776   5.7790   5.8826
     5.9131   5.9736   5.9741   6.0940   6.2185   6.2422   6.2970   6.4092
     6.4149   6.5532   6.5867   6.6100   6.6471   6.6673   6.6681   6.7023
     6.7922   6.9839   7.0692   7.0703   7.1016   7.1518   7.1680   7.3014
     7.3093   7.4579   7.5003   7.5368   7.5981   7.6123   7.6422   7.6423
     7.6806   7.7200   7.7293   7.7702   7.8834   7.9071   7.9746   8.0101

     occupation numbers 
     1.0000   1.0000   1.0000   1.0000   1.0000   1.0000   1.0000   1.0000
     1.0000   1.0000   1.0000   1.0000   1.0000   1.0000   1.0000   1.0000
     1.0000   1.0000   1.0000   1.0000   1.0000   1.0000   1.0000   1.0000
     1.0000   1.0000   1.0000   1.0000   1.0000   1.0000   1.0000   1.0000
     1.0000   1.0000   1.0000   1.0000   1.0000   1.0000   1.0000   1.0000
     1.0000   1.0000   1.0000   1.0000   1.0000   1.0000   1.0000   1.0000
     1.0000   1.0000   1.0000   1.0000   1.0000   1.0000   1.0000   1.0000
     1.0000   1.0000   1.0000   1.0000   1.0000   1.0000   1.0000   1.0000
     1.0000   1.0000   1.0000   1.0000   1.0000   1.0000   1.0000   1.0000
     1.0000   1.0000   1.0000   1.0000   1.0000   1.0000   1.0000   1.0000
     1.0000   1.0000   1.0000   1.0000   1.0000   1.0000   1.0000   1.0000
     1.0000   1.0000   1.0000   1.0000   1.0000   1.0000   1.0000   1.0000
     1.0000   1.0000   1.0000   1.0000   1.0000   1.0000   1.0000   1.0000
     1.0000   1.0000   1.0000   1.0000   1.0000   1.0000   1.0000   1.0000
     1.0000   1.0000   1.0000   1.0000   1.0000   1.0000   1.0000   1.0000
     1.0000   1.0000   1.0000   1.0000   1.0000   1.0000   1.0000   1.0000
     1.0000   1.0000   1.0000   1.0000   1.0000   1.0000   1.0000   1.0000
     1.0000   1.0000   1.0000   1.0000   1.0000   1.0000   1.0000   1.0000
     1.0000   1.0000   1.0000   1.0000   1.0000   1.0000   1.0000   1.0000
     1.0000   1.0000   1.0000   1.0000   1.0000   1.0000   1.0000   1.0000
     1.0000   1.0000   1.0000   1.0000   1.0000   1.0000   1.0000   1.0000
     1.0000   1.0000   1.0000   1.0000   1.0000   1.0000   1.0000   1.0000
     1.0000   1.0000   1.0000   1.0000   1.0000   1.0000   1.0000   1.0000
     1.0000   1.0000   1.0000   1.0000   1.0000   1.0000   1.0000   1.0000
     1.0000   1.0000   1.0000   1.0000   1.0000   1.0000   1.0000   1.0000
     1.0000   1.0000   1.0000   1.0000   1.0000   1.0000   1.0000   1.0000
     1.0000   1.0000   1.0000   1.0000   1.0000   1.0000   1.0000   1.0000
     1.0000   1.0000   1.0000   1.0000   1.0000   1.0000   1.0000   1.0000
     1.0000   1.0000   1.0000   1.0000   1.0000   1.0000   1.0000   1.0000
     1.0000   1.0000   1.0000   1.0000   1.0000   1.0000   1.0000   1.0000
     1.0000   1.0000   1.0000   1.0000   1.0000   1.0000   1.0000   1.0000
     1.0000   1.0000   1.0000   1.0000   1.0000   1.0000   1.0000   1.0000
     1.0000   1.0000   1.0000   1.0000   1.0000   1.0000   1.0000   1.0000
     1.0000   1.0000   1.0000   1.0000   1.0000   1.0000   1.0000   1.0000
     1.0000   1.0000   1.0000   1.0000   1.0000   1.0000   1.0000   1.0000
     1.0000   1.0000   1.0000   1.0000   1.0000   1.0000   1.0000   1.0000
     1.0000   1.0000   1.0000   1.0000   1.0000   1.0000   1.0000   1.0000
     1.0000   1.0000   1.0000   1.0000   1.0000   1.0000   1.0000   1.0000
     1.0000   1.0000   1.0000   1.0000   1.0000   1.0000   1.0000   1.0000
     1.0000   1.0000   1.0000   1.0000   1.0000   1.0000   1.0000   1.0000
     1.0000   1.0000   1.0000   1.0000   1.0000   1.0000   1.0000   1.0000
     1.0000   1.0000   1.0000   1.0000   1.0000   1.0000   1.0000   1.0000
     1.0000   1.0000   1.0000   1.0000   1.0000   1.0000   1.0000   1.0000
     1.0000   1.0000   1.0000   1.0000   1.0000   1.0000   1.0000   1.0000
     1.0000   1.0000   1.0000   1.0000   1.0000   1.0000   1.0000   1.0000
     1.0000   1.0000   1.0000   1.0000   1.0000   1.0000   1.0000   1.0000
     1.0000   1.0000   1.0000   1.0000   1.0000   1.0000   1.0000   1.0000
     1.0000   1.0000   1.0000   1.0000   1.0000   1.0000   1.0000   1.0000
     1.0000   1.0000   1.0000   1.0000   1.0000   1.0000   1.0000   1.0000
     1.0000   1.0000   1.0000   1.0000   1.0000   1.0000   1.0000   1.0000
     1.0000   1.0000   1.0000   1.0000   1.0000   1.0000   1.0000   1.0000
     1.0000   1.0000   1.0000   1.0000   1.0000   1.0000   1.0000   1.0000
     1.0000   1.0000   1.0000   1.0000   1.0000   1.0000   1.0000   1.0000
     1.0000   1.0000   1.0000   1.0000   1.0000   1.0000   1.0000   1.0000
     1.0000   1.0000   1.0000   1.0000   1.0000   1.0000   1.0000   1.0000
     1.0000   1.0000   1.0000   1.0000   1.0000   1.0000   1.0000   1.0000
     1.0000   1.0000   1.0000   1.0000   1.0000   1.0000   1.0000   1.0000
[...]
     atom   17 type  1   force =     0.00000000    0.00000000    0.00000000
     atom   18 type  1   force =     0.00000000    0.00000000    0.00000000
     atom   19 type  1   force =     0.00000000    0.00000000    0.00000000
     atom   20 type  1   force =     0.00000000    0.00000000    0.00000000
     atom   21 type  1   force =     0.00000000    0.00000000    0.00000000
     atom   22 type  1   force =     0.00000000    0.00000000    0.00000000
     atom   23 type  1   force =     0.00000000    0.00000000    0.00000000
     atom   24 type  1   force =     0.00000000    0.00000000    0.00000000
     atom   25 type  1   force =     0.00000000    0.00000000    0.00000000
     atom   26 type  1   force =     0.00000000    0.00000000    0.00000000
     atom   27 type  1   force =     0.00000000    0.00000000    0.00000000
     atom   28 type  1   force =     0.00000000    0.00000000    0.00000000
     atom   29 type  1   force =     0.00000000    0.00000000    0.00000000
     atom   30 type  1   force =     0.00000000    0.00000000    0.00000000
     atom   31 type  1   force =     0.00000000    0.00000000    0.00000000
     atom   32 type  1   force =     0.00000000    0.00000000    0.00000000
     atom   33 type  1   force =     0.00000000    0.00000000    0.00000000
     atom   34 type  1   force =     0.00000000    0.00000000    0.00000000
     atom   35 type  1   force =     0.00000000    0.00000000    0.00000000
     atom   36 type  1   force =     0.00000000    0.00000000    0.00000000
     atom   37 type  1   force =     0.00000000    0.00000000    0.00000000
     atom   38 type  1   force =     0.00000000    0.00000000    0.00000000
     atom   39 type  1   force =     0.00000000    0.00000000    0.00000000
     atom   40 type  1   force =     0.00000000    0.00000000    0.00000000
     atom   41 type  1   force =     0.00000000    0.00000000    0.00000000
     atom   42 type  1   force =     0.00000000    0.00000000    0.00000000
     atom   43 type  1   force =     0.00000000    0.00000000    0.00000000
     atom   44 type  1   force =     0.00000000    0.00000000    0.00000000
     atom   45 type  1   force =     0.00000000    0.00000000    0.00000000
     atom   46 type  1   force =     0.00000000    0.00000000    0.00000000
     atom   47 type  1   force =     0.00000000    0.00000000    0.00000000
     atom   48 type  1   force =     0.00000000    0.00000000    0.00000000
     The SCF correction term to forces
     atom    1 type  1   force =    -0.00000000   -0.00000000   -0.00000000
     atom    2 type  1   force =    -0.00000000   -0.00000000   -0.00000000
     atom    3 type  1   force =     0.00010206   -0.00000686    0.00011593
     atom    4 type  1   force =     0.00011761    0.00008030    0.00011829
     atom    5 type  1   force =    -0.00006758   -0.00008775   -0.00008985
     atom    6 type  1   force =    -0.00006855    0.00005807   -0.00008343
     atom    7 type  1   force =    -0.00000000    0.00000000   -0.00000000
     atom    8 type  1   force =    -0.00000000   -0.00000000   -0.00000000
     atom    9 type  1   force =     0.00010331    0.00006941    0.00012904
     atom   10 type  1   force =     0.00011463   -0.00001981    0.00011188
     atom   11 type  1   force =    -0.00006267   -0.00000585   -0.00007495
     atom   12 type  1   force =    -0.00007202   -0.00001936   -0.00009070
     atom   13 type  1   force =     0.00000000    0.00000000   -0.00000000
     atom   14 type  1   force =     0.00000000    0.00000000   -0.00000000
     atom   15 type  1   force =    -0.00018230   -0.00010489    0.00010754
     atom   16 type  1   force =    -0.00020968    0.00001249    0.00012511
     atom   17 type  1   force =     0.00005598   -0.00006332   -0.00015158
     atom   18 type  1   force =     0.00005761    0.00009713   -0.00015348
     atom   19 type  1   force =     0.00000000    0.00000000   -0.00000000
     atom   20 type  1   force =     0.00000000   -0.00000000   -0.00000000
     atom   21 type  1   force =    -0.00018068    0.00000810    0.00011613
     atom   22 type  1   force =    -0.00021087   -0.00009288    0.00011882
     atom   23 type  1   force =     0.00005173    0.00003054   -0.00014569
     atom   24 type  1   force =     0.00005428   -0.00000099   -0.00016697
     atom   25 type  1   force =    -0.00000000   -0.00000000   -0.00000000
     atom   26 type  1   force =    -0.00000000    0.00000000   -0.00000000
     atom   27 type  1   force =    -0.00004471   -0.00007314    0.00011226
     atom   28 type  1   force =    -0.00003589    0.00007632    0.00011949
     atom   29 type  1   force =    -0.00002363   -0.00006938   -0.00000679
     atom   30 type  1   force =    -0.00000720    0.00006736   -0.00000344
     atom   31 type  1   force =    -0.00000000    0.00000000   -0.00000000
     atom   32 type  1   force =    -0.00000000   -0.00000000   -0.00000000
     atom   33 type  1   force =    -0.00005878    0.00001110    0.00013579
     atom   34 type  1   force =    -0.00003264   -0.00002301    0.00011618
     atom   35 type  1   force =    -0.00002682   -0.00002576    0.00000353
     atom   36 type  1   force =     0.00000241    0.00002303   -0.00001403
     atom   37 type  1   force =     0.00000000   -0.00000000    0.00000000
     atom   38 type  1   force =     0.00000000    0.00000000    0.00000000
     atom   39 type  1   force =     0.00001974   -0.00005499    0.00010076
     atom   40 type  1   force =     0.00003404    0.00008562    0.00011255
     atom   41 type  1   force =    -0.00023476   -0.00012836   -0.00005885
     atom   42 type  1   force =    -0.00023021    0.00002708   -0.00004838
     atom   43 type  1   force =     0.00000000    0.00000000    0.00000000
     atom   44 type  1   force =     0.00000000   -0.00000000    0.00000000
     atom   45 type  1   force =     0.00004310    0.00002816    0.00012297
     atom   46 type  1   force =     0.00002605    0.00000571    0.00011132
     atom   47 type  1   force =    -0.00023965   -0.00008336   -0.00003624
     atom   48 type  1   force =    -0.00023955   -0.00003486   -0.00006323

     DFT-D3 dispersion contribution to forces:
     atom    1 type  1   force =    -0.00025415   -0.00005870    0.00195366
     atom    2 type  1   force =    -0.00025228   -0.00005676    0.00193119
     atom    3 type  1   force =     0.00012008    0.00001173    0.00027060
     atom    4 type  1   force =     0.00011920   -0.00005866    0.00026683
     atom    5 type  1   force =    -0.00003861    0.00001856   -0.00212841
     atom    6 type  1   force =    -0.00003611   -0.00003300   -0.00212701
     atom    7 type  1   force =    -0.00025376   -0.00005811    0.00194493
     atom    8 type  1   force =    -0.00025261   -0.00005740    0.00193954
     atom    9 type  1   force =     0.00012120   -0.00004514    0.00027249
     atom   10 type  1   force =     0.00011836   -0.00000037    0.00026468
     atom   11 type  1   force =    -0.00003817   -0.00001236   -0.00213679
     atom   12 type  1   force =    -0.00003654   -0.00000538   -0.00211911
     atom   13 type  1   force =    -0.00025277   -0.00005831    0.00194744
     atom   14 type  1   force =    -0.00025034   -0.00005606    0.00192373
     atom   15 type  1   force =     0.00010802    0.00000722    0.00027298
     atom   16 type  1   force =     0.00010217   -0.00005713    0.00026635
     atom   17 type  1   force =    -0.00001805    0.00002195   -0.00212675
     atom   18 type  1   force =    -0.00001485   -0.00002735   -0.00212861
     atom   19 type  1   force =    -0.00025214   -0.00005749    0.00193882
     atom   20 type  1   force =    -0.00025112   -0.00005690    0.00193253
     atom   21 type  1   force =     0.00010835   -0.00005191    0.00027321
     atom   22 type  1   force =     0.00010256   -0.00000209    0.00026624
     atom   23 type  1   force =    -0.00001791   -0.00000456   -0.00213619
     atom   24 type  1   force =    -0.00001364   -0.00000136   -0.00211961
     atom   25 type  1   force =     0.00105426    0.00025458    0.00236934
     atom   26 type  1   force =     0.00105361    0.00025339    0.00235394
     atom   27 type  1   force =    -0.00068794   -0.00008637    0.00044284
     atom   28 type  1   force =    -0.00068914   -0.00015858    0.00044298
     atom   29 type  1   force =    -0.00018843   -0.00001359   -0.00287476
     atom   30 type  1   force =    -0.00018954   -0.00006812   -0.00288007
     atom   31 type  1   force =     0.00105465    0.00025383    0.00236788
     atom   32 type  1   force =     0.00105327    0.00025433    0.00235554
     atom   33 type  1   force =    -0.00069130   -0.00013372    0.00044819
     atom   34 type  1   force =    -0.00068485   -0.00011231    0.00043857
     atom   35 type  1   force =    -0.00018798   -0.00003010   -0.00288461
     atom   36 type  1   force =    -0.00018991   -0.00005374   -0.00286990
     atom   37 type  1   force =     0.00105445    0.00025460    0.00236570
     atom   38 type  1   force =     0.00105403    0.00025348    0.00235126
     atom   39 type  1   force =    -0.00071316   -0.00009068    0.00043610
     atom   40 type  1   force =    -0.00070987   -0.00016792    0.00043474
     atom   41 type  1   force =    -0.00018377   -0.00001481   -0.00288032
     atom   42 type  1   force =    -0.00018715   -0.00006878   -0.00288329
     atom   43 type  1   force =     0.00105477    0.00025356    0.00236480
     atom   44 type  1   force =     0.00105365    0.00025442    0.00235202
     atom   45 type  1   force =    -0.00071423   -0.00014077    0.00044091
     atom   46 type  1   force =    -0.00071061   -0.00011462    0.00042988
     atom   47 type  1   force =    -0.00018423   -0.00002858   -0.00288893
     atom   48 type  1   force =    -0.00018749   -0.00004994   -0.00287554

     Total force =     0.010768     Total SCF correction =     0.000970

     DFT-D3 dispersion Force =     0.013919


     Computing stress (Cartesian axis) and pressure

          total   stress  (Ry/bohr**3)                   (kbar)     P=      -16.25
  -0.00018935  -0.00000463   0.00001253          -27.85       -0.68        1.84
  -0.00000463  -0.00012416   0.00000253           -0.68      -18.26        0.37
   0.00001253   0.00000253  -0.00001785            1.84        0.37       -2.63

     kinetic stress (kbar)  11230.29      6.65      1.04
                                6.65  11212.90      0.19
                                1.04      0.19  11268.16

     local   stress (kbar)-877438.42   2769.53    375.52
                             2769.53-888105.49    102.97
                              375.52    102.97 887343.09

     nonloc. stress (kbar)  -1219.73     -5.39     -0.07
                               -5.39  -1198.19     -0.15
                               -0.07     -0.15  -1233.42

     hartree stress (kbar) 463588.47  -1198.94   -179.04
                            -1198.94 468206.87    -48.60
                             -179.04    -48.60-412085.16

     exc-cor stress (kbar)  -5657.81     -0.73     -0.02
                               -0.73  -5654.95     -0.01
                               -0.02     -0.01  -5661.91

     corecor stress (kbar)      0.00      0.00      0.00
                                0.00      0.00      0.00
                                0.00      0.00      0.00

     ewald   stress (kbar) 409475.52  -1572.24   -195.30
                            -1572.24 415528.47    -53.96
                             -195.30    -53.96-479630.61

     hubbard stress (kbar)      0.00      0.00      0.00
                                0.00      0.00      0.00
                                0.00      0.00      0.00

     DFT-D   stress (kbar)     -6.18      0.44     -0.30
                                0.44     -7.87     -0.07
                               -0.30     -0.07     -2.77

     XDM     stress (kbar)      0.00      0.00      0.00
                                0.00      0.00      0.00
                                0.00      0.00      0.00

     dft-nl  stress (kbar)      0.00      0.00      0.00
                                0.00      0.00      0.00
                                0.00      0.00      0.00

     TS-vdW  stress (kbar)      0.00      0.00      0.00
                                0.00      0.00      0.00
                                0.00      0.00      0.00

     MDB     stress (kbar)      0.00      0.00      0.00
                                0.00      0.00      0.00
                                0.00      0.00      0.00

     3D-RISM stress (kbar)      0.00      0.00      0.00
                                0.00      0.00      0.00
                                0.00      0.00      0.00

     Energy error            =      1.1E-03 Ry
     Gradient error          =      2.2E-03 Ry/Bohr

     number of scf cycles    =   8
     number of bfgs steps    =   7

     energy             old  =  -22154.4894381235 Ry
     energy             new  =  -22154.4905826528 Ry

     CASE: energy            _new < energy            _old

     new trust radius        =       0.0501318542 bohr
     new conv_thr            =       0.0000000434 Ry


ATOMIC_POSITIONS (angstrom)
Zn              -1.0735560000        1.0841420000        1.1977640000    0   0   0
Zn              -2.3094850000        6.1646920000        1.1977640000    0   0   0
Zn              -5.2474974299        0.0658950621        3.6049791804
Zn              -6.4835782775        5.1369000342        3.6063219424
Zn              -9.3119879165       -0.9174380258        5.7543187396
Zn             -10.5479017938        4.1515596401        5.7544561611
Zn              -1.6915200000        3.6244170000        1.1977640000    0   0   0
Zn              -2.9274500000        8.7049670000        1.1977640000    0   0   0
Zn              -5.8660190345        2.5980448514        3.6048471916
Zn              -7.1009919437        7.6854594302        3.6064281181
Zn              -9.9302276093        1.6160030252        5.7534727023
Zn             -11.1655406460        6.6982040251        5.7552202327
Zn               4.4565960000        1.0841420000        1.1977640000    0   0   0
Zn               3.2206660000        6.1646920000        1.1977640000    0   0   0
Zn               0.2787803644        0.0645919891        3.6042911920
Zn              -0.9580650561        5.1365672963        3.6051515777
Zn              -3.7769255979       -0.9165587587        5.7536247868
Zn              -5.0127409280        4.1529795294        5.7531729166
Zn               3.8386310000        3.6244170000        1.1977640000    0   0   0
Zn               2.6027020000        8.7049670000        1.1977640000    0   0   0
Zn              -0.3398858635        2.5964039057        3.6039129975
Zn              -1.5752558379        7.6847669046        3.6055372527
Zn              -4.3952739890        1.6177775107        5.7525840362
Zn              -5.6301059567        6.6990415562        5.7541055497
Zn               1.6915200000        0.4114910000        0.8555450000    0   0   0
Zn               0.4555910000        5.4920410000        0.8555450000    0   0   0
Zn              -2.5671485430       -0.6145581012        3.0306754500
Zn              -3.8043637570        4.4549288011        3.0312616641
Zn              -6.7285332178       -1.6330406324        5.2112783853
Zn              -7.9647972348        3.4373873329        5.2106445874
Zn               1.0735560000        2.9517660000        0.8555450000    0   0   0
Zn              -0.1623740000        8.0323160000        0.8555450000    0   0   0
Zn              -3.1860269526        1.9188800758        3.0301376419
Zn              -4.4213435526        7.0017817766        3.0318939323
Zn              -7.3464939132        0.9042857281        5.2103116331
Zn              -8.5827262455        5.9803038213        5.2115922550
Zn               7.2216720000        0.4114910000        0.8555450000    0   0   0
Zn               5.9857420000        5.4920410000        0.8555450000    0   0   0
Zn               2.9599474636       -0.6150557047        3.0305913767
Zn               1.7233217917        4.4535724739        3.0310272472
Zn              -1.1983832417       -1.6333608302        5.2106812507
Zn              -2.4349897939        3.4371991325        5.2103953651
Zn               6.6037070000        2.9517660000        0.8555450000    0   0   0
Zn               5.3677780000        8.0323160000        0.8555450000    0   0   0
Zn               2.3414907807        1.9178296733        3.0299998151
Zn               1.1056555468        7.0016071602        3.0316163397
Zn              -1.8164227349        0.9042936583        5.2099999742
Zn              -3.0530180183        5.9807689517        5.2109505152



     Writing config-only to output data dir ./tmp/Zn101_3layer_relax.save/ :
     XML data file
     NEW-OLD atomic charge density approx. for the potential

     negative rho (up, down):  5.846E-03 0.000E+00

     total cpu time spent up to now is    34801.1 secs

     Self-consistent Calculation

     iteration #  1     ecut=    40.00 Ry     beta= 0.40
     Davidson diagonalization with overlap

---- Real-time Memory Report at c_bands before calling an iterative solver
           463 MiB given to the printing process from OS
             0 MiB allocation reported by mallinfo(arena+hblkhd)
         11671 MiB available memory on the node where the printing process lives
------------------
     ethr =  1.00E-06,  avg # of iterations =  6.0

     Threshold (ethr) on eigenvalues was too large:
     Diagonalizing with lowered threshold

     Davidson diagonalization with overlap

---- Real-time Memory Report at c_bands before calling an iterative solver
           463 MiB given to the printing process from OS
             0 MiB allocation reported by mallinfo(arena+hblkhd)
         11671 MiB available memory on the node where the printing process lives
------------------
     ethr =  2.80E-08,  avg # of iterations =  2.0

     negative rho (up, down):  5.884E-03 0.000E+00

     total cpu time spent up to now is    36239.6 secs

     total energy              =  -22154.49151273 Ry
     estimated scf accuracy    <       0.00027542 Ry

     iteration #  2     ecut=    40.00 Ry     beta= 0.40
     Davidson diagonalization with overlap

---- Real-time Memory Report at c_bands before calling an iterative solver
           463 MiB given to the printing process from OS
             0 MiB allocation reported by mallinfo(arena+hblkhd)
         11642 MiB available memory on the node where the printing process lives
------------------
     ethr =  2.87E-08,  avg # of iterations =  2.0

     negative rho (up, down):  5.921E-03 0.000E+00

     total cpu time spent up to now is    36714.4 secs

     total energy              =  -22154.49152916 Ry
     estimated scf accuracy    <       0.00019352 Ry

     iteration #  3     ecut=    40.00 Ry     beta= 0.40
     Davidson diagonalization with overlap

---- Real-time Memory Report at c_bands before calling an iterative solver
           463 MiB given to the printing process from OS
             0 MiB allocation reported by mallinfo(arena+hblkhd)
         11623 MiB available memory on the node where the printing process lives
------------------
     ethr =  2.02E-08,  avg # of iterations =  2.0

     negative rho (up, down):  5.949E-03 0.000E+00

     total cpu time spent up to now is    37109.0 secs

     total energy              =  -22154.49151945 Ry
     estimated scf accuracy    <       0.00071569 Ry

     iteration #  4     ecut=    40.00 Ry     beta= 0.40
     Davidson diagonalization with overlap

---- Real-time Memory Report at c_bands before calling an iterative solver
           463 MiB given to the printing process from OS
             0 MiB allocation reported by mallinfo(arena+hblkhd)
         11603 MiB available memory on the node where the printing process lives
------------------
