--------------------------------------------------------------------------
By default, for Open MPI 4.0 and later, infiniband ports on a device
are not used by default.  The intent is to use UCX for these devices.
You can override this policy by setting the btl_openib_allow_ib MCA parameter
to true.

  Local host:              psid04
  Local adapter:           mlx5_0
  Local port:              1

--------------------------------------------------------------------------
--------------------------------------------------------------------------
WARNING: There was an error initializing an OpenFabrics device.

  Local host:   psid04
  Local device: mlx5_0
--------------------------------------------------------------------------

     Program PWSCF v.7.3.1 starts on 25Mar2025 at 17:25:53 

     This program is part of the open-source Quantum ESPRESSO suite
     for quantum simulation of materials; please cite
         "P. Giannozzi et al., J. Phys.:Condens. Matter 21 395502 (2009);
         "P. Giannozzi et al., J. Phys.:Condens. Matter 29 465901 (2017);
         "P. Giannozzi et al., J. Chem. Phys. 152 154105 (2020);
          URL http://www.quantum-espresso.org", 
     in publications or presentations arising from this work. More details at
     http://www.quantum-espresso.org/quote

     Parallel version (MPI), running on    33 processors

     MPI processes distributed on     1 nodes
     91880 MiB available memory on the printing compute node when the environment starts

     Waiting for input...
     Reading input from standard input

     Current dimensions of program PWSCF are:
     Max number of different atomic species (ntypx) = 10
     Max number of k-points (npk) =  40000
     Max angular momentum in pseudopotentials (lmaxx) =  4
     Found identity + ( -0.5000  0.0000  0.0000) symmetry
     This is a supercell, fractional translations are disabled

     R & G space division:  proc/nbgrp/npool/nimage =      33
     Subspace diagonalization in iterative solution of the eigenvalue problem:
     one sub-group per band group will be used
     custom distributed-memory algorithm (size of sub-group:  5*  5 procs)


     Parallelization info
     --------------------
     sticks:   dense  smooth     PW     G-vecs:    dense   smooth      PW
     Min         391     195     53                81671    28871    4069
     Max         392     196     54                81680    28880    4077
     Sum       12919    6457   1759              2695303   952925  134461

     Using Slab Decomposition



     bravais-lattice index     =            0
     lattice parameter (alat)  =      19.7617  a.u.
     unit-cell volume          =   15176.5939 (a.u.)^3
     number of atoms/cell      =           48
     number of atomic types    =            1
     number of electrons       =       960.00
     number of Kohn-Sham states=          576
     kinetic-energy cutoff     =      60.0000  Ry
     charge density cutoff     =     480.0000  Ry
     scf convergence threshold =      1.0E-06
     mixing beta               =       0.4000
     number of iterations used =            8  plain     mixing
     Exchange-correlation= SLA  PW   PBE  PBE
                           (   1   4   3   4   0   0   0)

     celldm(1)=  19.761696  celldm(2)=   0.000000  celldm(3)=   0.000000
     celldm(4)=   0.000000  celldm(5)=   0.000000  celldm(6)=   0.000000

     crystal axes: (cart. coord. in units of alat)
               a(1) = (   1.000000   0.000000   0.000000 )  
               a(2) = (  -0.500000   0.866025   0.000000 )  
               a(3) = (   0.000000   0.000000   2.270759 )  

     reciprocal axes: (cart. coord. in units 2 pi/alat)
               b(1) = (  1.000000  0.577350 -0.000000 )  
               b(2) = (  0.000000  1.154701  0.000000 )  
               b(3) = (  0.000000 -0.000000  0.440381 )  


     PseudoPot. # 1 for Zn read from file:
     /home/ys/qepseudo/SSSP_1.3.0_PBE_efficiency/Zn_pbe_v1.uspp.F.UPF
     MD5 check sum: df62231357ef9e81f77b2b3087fa5675
     Pseudo is Ultrasoft, Zval = 20.0
     Generated by new atomic code, or converted to UPF format
     Using radial grid of  943 points,  6 beta functions with: 
                l(1) =   0
                l(2) =   0
                l(3) =   1
                l(4) =   1
                l(5) =   2
                l(6) =   2
     Q(r) pseudized with  8 coefficients,  rinner =    1.100   1.100   1.100
                                                       1.100   1.100

     atomic species   valence    mass     pseudopotential
     Zn               20.00    65.38000     Zn( 1.00)

     No symmetry found


                                    s                        frac. trans.

      isym =  1     identity                                     

 cryst.   s( 1) = (     1          0          0      )
                  (     0          1          0      )
                  (     0          0          1      )

 cart.    s( 1) = (  1.0000000  0.0000000  0.0000000 )
                  (  0.0000000  1.0000000  0.0000000 )
                  (  0.0000000  0.0000000  1.0000000 )


   Cartesian axes

     site n.     atom                  positions (alat units)
         1        Zn     tau(   1) = (   0.0000000   0.1443375   0.1164998  )
         2        Zn     tau(   2) = (   0.5000000   0.1443375   0.1164998  )
         3        Zn     tau(   3) = (   0.0000000   0.1443375   0.5824993  )
         4        Zn     tau(   4) = (   0.5000000   0.1443375   0.5824993  )
         5        Zn     tau(   5) = (  -0.1250000   0.3608439   0.1164998  )
         6        Zn     tau(   6) = (   0.3750000   0.3608439   0.1164998  )
         7        Zn     tau(   7) = (  -0.1250000   0.3608439   0.5824993  )
         8        Zn     tau(   8) = (   0.3750000   0.3608439   0.5824993  )
         9        Zn     tau(   9) = (  -0.2500000   0.5773502   0.1164998  )
        10        Zn     tau(  10) = (   0.2500000   0.5773502   0.1164998  )
        11        Zn     tau(  11) = (  -0.2500000   0.5773502   0.5824993  )
        12        Zn     tau(  12) = (   0.2500000   0.5773502   0.5824993  )
        13        Zn     tau(  13) = (  -0.3750000   0.7938567   0.1164998  )
        14        Zn     tau(  14) = (   0.1250000   0.7938567   0.1164998  )
        15        Zn     tau(  15) = (  -0.3750000   0.7938567   0.5824993  )
        16        Zn     tau(  16) = (   0.1250000   0.7938567   0.5824993  )
        17        Zn     tau(  17) = (   0.2500000   0.1443375   0.1164998  )
        18        Zn     tau(  18) = (   0.7500000   0.1443375   0.1164998  )
        19        Zn     tau(  19) = (   0.2500000   0.1443375   0.5824993  )
        20        Zn     tau(  20) = (   0.7500000   0.1443375   0.5824993  )
        21        Zn     tau(  21) = (   0.1250000   0.3608439   0.1164998  )
        22        Zn     tau(  22) = (   0.6250000   0.3608439   0.1164998  )
        23        Zn     tau(  23) = (   0.1250000   0.3608439   0.5824993  )
        24        Zn     tau(  24) = (   0.6250000   0.3608439   0.5824993  )
        25        Zn     tau(  25) = (   0.0000000   0.5773502   0.1164998  )
        26        Zn     tau(  26) = (   0.5000000   0.5773502   0.1164998  )
        27        Zn     tau(  27) = (   0.0000000   0.5773502   0.5824993  )
        28        Zn     tau(  28) = (   0.5000000   0.5773502   0.5824993  )
        29        Zn     tau(  29) = (  -0.1250000   0.7938567   0.1164998  )
        30        Zn     tau(  30) = (   0.3750000   0.7938567   0.1164998  )
        31        Zn     tau(  31) = (  -0.1250000   0.7938567   0.5824993  )
        32        Zn     tau(  32) = (   0.3750000   0.7938567   0.5824993  )
        33        Zn     tau(  33) = (   0.1250000   0.0721688   0.3494996  )
        34        Zn     tau(  34) = (   0.6250000   0.0721688   0.3494996  )
        35        Zn     tau(  35) = (   0.0000000   0.2886752   0.3494996  )
        36        Zn     tau(  36) = (   0.5000000   0.2886752   0.3494996  )
        37        Zn     tau(  37) = (  -0.1250000   0.5051815   0.3494996  )
        38        Zn     tau(  38) = (   0.3750000   0.5051815   0.3494996  )
        39        Zn     tau(  39) = (  -0.2500000   0.7216879   0.3494996  )
        40        Zn     tau(  40) = (   0.2500000   0.7216879   0.3494996  )
        41        Zn     tau(  41) = (   0.3750000   0.0721688   0.3494996  )
        42        Zn     tau(  42) = (   0.8750000   0.0721688   0.3494996  )
        43        Zn     tau(  43) = (   0.2500000   0.2886752   0.3494996  )
        44        Zn     tau(  44) = (   0.7500000   0.2886752   0.3494996  )
        45        Zn     tau(  45) = (   0.1250000   0.5051815   0.3494996  )
        46        Zn     tau(  46) = (   0.6250000   0.5051815   0.3494996  )
        47        Zn     tau(  47) = (   0.0000000   0.7216879   0.3494996  )
        48        Zn     tau(  48) = (   0.5000000   0.7216879   0.3494996  )

   Crystallographic axes

     site n.     atom                  positions (cryst. coord.)
         1        Zn     tau(   1) = (  0.0833333  0.1666666  0.0513044  )
         2        Zn     tau(   2) = (  0.5833333  0.1666666  0.0513044  )
         3        Zn     tau(   3) = (  0.0833333  0.1666666  0.2565219  )
         4        Zn     tau(   4) = (  0.5833333  0.1666666  0.2565219  )
         5        Zn     tau(   5) = (  0.0833333  0.4166666  0.0513044  )
         6        Zn     tau(   6) = (  0.5833333  0.4166666  0.0513044  )
         7        Zn     tau(   7) = (  0.0833333  0.4166666  0.2565219  )
         8        Zn     tau(   8) = (  0.5833333  0.4166666  0.2565219  )
         9        Zn     tau(   9) = (  0.0833333  0.6666666  0.0513044  )
        10        Zn     tau(  10) = (  0.5833333  0.6666666  0.0513044  )
        11        Zn     tau(  11) = (  0.0833333  0.6666666  0.2565219  )
        12        Zn     tau(  12) = (  0.5833333  0.6666666  0.2565219  )
        13        Zn     tau(  13) = (  0.0833333  0.9166667  0.0513044  )
        14        Zn     tau(  14) = (  0.5833334  0.9166667  0.0513044  )
        15        Zn     tau(  15) = (  0.0833333  0.9166667  0.2565219  )
        16        Zn     tau(  16) = (  0.5833334  0.9166667  0.2565219  )
        17        Zn     tau(  17) = (  0.3333333  0.1666666  0.0513044  )
        18        Zn     tau(  18) = (  0.8333334  0.1666666  0.0513044  )
        19        Zn     tau(  19) = (  0.3333333  0.1666666  0.2565219  )
        20        Zn     tau(  20) = (  0.8333334  0.1666666  0.2565219  )
        21        Zn     tau(  21) = (  0.3333333  0.4166666  0.0513044  )
        22        Zn     tau(  22) = (  0.8333333  0.4166666  0.0513044  )
        23        Zn     tau(  23) = (  0.3333333  0.4166666  0.2565219  )
        24        Zn     tau(  24) = (  0.8333333  0.4166666  0.2565219  )
        25        Zn     tau(  25) = (  0.3333333  0.6666666  0.0513044  )
        26        Zn     tau(  26) = (  0.8333333  0.6666666  0.0513044  )
        27        Zn     tau(  27) = (  0.3333333  0.6666666  0.2565219  )
        28        Zn     tau(  28) = (  0.8333333  0.6666666  0.2565219  )
        29        Zn     tau(  29) = (  0.3333334  0.9166667  0.0513044  )
        30        Zn     tau(  30) = (  0.8333334  0.9166667  0.0513044  )
        31        Zn     tau(  31) = (  0.3333334  0.9166667  0.2565219  )
        32        Zn     tau(  32) = (  0.8333334  0.9166667  0.2565219  )
        33        Zn     tau(  33) = (  0.1666667  0.0833334  0.1539131  )
        34        Zn     tau(  34) = (  0.6666667  0.0833334  0.1539131  )
        35        Zn     tau(  35) = (  0.1666667  0.3333334  0.1539131  )
        36        Zn     tau(  36) = (  0.6666667  0.3333334  0.1539131  )
        37        Zn     tau(  37) = (  0.1666667  0.5833334  0.1539131  )
        38        Zn     tau(  38) = (  0.6666667  0.5833334  0.1539131  )
        39        Zn     tau(  39) = (  0.1666667  0.8333334  0.1539131  )
        40        Zn     tau(  40) = (  0.6666667  0.8333334  0.1539131  )
        41        Zn     tau(  41) = (  0.4166667  0.0833334  0.1539131  )
        42        Zn     tau(  42) = (  0.9166667  0.0833334  0.1539131  )
        43        Zn     tau(  43) = (  0.4166667  0.3333334  0.1539131  )
        44        Zn     tau(  44) = (  0.9166667  0.3333334  0.1539131  )
        45        Zn     tau(  45) = (  0.4166667  0.5833334  0.1539131  )
        46        Zn     tau(  46) = (  0.9166667  0.5833334  0.1539131  )
        47        Zn     tau(  47) = (  0.4166667  0.8333334  0.1539131  )
        48        Zn     tau(  48) = (  0.9166667  0.8333334  0.1539131  )

     number of k points=    10  Marzari-Vanderbilt smearing, width (Ry)=  0.0200
                       cart. coord. in units 2pi/alat
        k(    1) = (   0.0000000   0.0000000   0.0000000), wk =   0.1250000
        k(    2) = (   0.0000000   0.2886751   0.0000000), wk =   0.2500000
        k(    3) = (   0.0000000  -0.5773503   0.0000000), wk =   0.1250000
        k(    4) = (   0.2500000   0.1443376   0.0000000), wk =   0.2500000
        k(    5) = (   0.2500000   0.4330127   0.0000000), wk =   0.2500000
        k(    6) = (   0.2500000  -0.4330127   0.0000000), wk =   0.2500000
        k(    7) = (   0.2500000  -0.1443376   0.0000000), wk =   0.2500000
        k(    8) = (  -0.5000000  -0.2886751   0.0000000), wk =   0.1250000
        k(    9) = (  -0.5000000   0.0000000   0.0000000), wk =   0.2500000
        k(   10) = (  -0.5000000  -0.8660254   0.0000000), wk =   0.1250000

                       cryst. coord.
        k(    1) = (   0.0000000   0.0000000   0.0000000), wk =   0.1250000
        k(    2) = (   0.0000000   0.2500000   0.0000000), wk =   0.2500000
        k(    3) = (   0.0000000  -0.5000000   0.0000000), wk =   0.1250000
        k(    4) = (   0.2500000   0.0000000   0.0000000), wk =   0.2500000
        k(    5) = (   0.2500000   0.2500000   0.0000000), wk =   0.2500000
        k(    6) = (   0.2500000  -0.5000000   0.0000000), wk =   0.2500000
        k(    7) = (   0.2500000  -0.2500000   0.0000000), wk =   0.2500000
        k(    8) = (  -0.5000000   0.0000000   0.0000000), wk =   0.1250000
        k(    9) = (  -0.5000000   0.2500000   0.0000000), wk =   0.2500000
        k(   10) = (  -0.5000000  -0.5000000   0.0000000), wk =   0.1250000

     Dense  grid:  2695303 G-vectors     FFT dimensions: ( 144, 144, 320)

     Smooth grid:   952925 G-vectors     FFT dimensions: ( 100, 100, 225)

     Dynamical RAM for                 wfc:      31.72 MB

     Dynamical RAM for     wfc (w. buffer):     348.92 MB

     Dynamical RAM for           str. fact:       1.25 MB

     Dynamical RAM for           local pot:       0.00 MB

     Dynamical RAM for          nlocal pot:      47.58 MB

     Dynamical RAM for                qrad:       1.76 MB

     Dynamical RAM for          rho,v,vnew:       8.48 MB

     Dynamical RAM for               rhoin:       2.83 MB

     Dynamical RAM for            rho*nmix:      19.94 MB

     Dynamical RAM for           G-vectors:       4.89 MB

     Dynamical RAM for          h,s,v(r/c):       2.42 MB

     Dynamical RAM for          <psi|beta>:       7.59 MB

     Dynamical RAM for                 psi:      63.44 MB

     Dynamical RAM for                hpsi:      63.44 MB

     Dynamical RAM for                spsi:      63.44 MB

     Dynamical RAM for      wfcinit/wfcrot:      77.64 MB

     Dynamical RAM for           addusdens:     291.62 MB

     Estimated static dynamical RAM per process >     426.11 MB

     Estimated max dynamical RAM per process >     737.67 MB

     Estimated total dynamical RAM >      23.77 GB

     Initial potential from superposition of free atoms

     starting charge     959.9932, renormalised to     960.0000

     negative rho (up, down):  2.140E-03 0.000E+00
     Starting wfcs are  624 randomized atomic wfcs
[psid04:29402] 32 more processes have sent help message help-mpi-btl-openib.txt / ib port not selected
[psid04:29402] Set MCA parameter "orte_base_help_aggregate" to 0 to see all help / error messages
[psid04:29402] 32 more processes have sent help message help-mpi-btl-openib.txt / error in device init

     total cpu time spent up to now is      271.5 secs

     Self-consistent Calculation

     iteration #  1     ecut=    60.00 Ry     beta= 0.40
     Davidson diagonalization with overlap

---- Real-time Memory Report at c_bands before calling an iterative solver
           519 MiB given to the printing process from OS
             0 MiB allocation reported by mallinfo(arena+hblkhd)
         76455 MiB available memory on the node where the printing process lives
------------------
     ethr =  1.00E-02,  avg # of iterations = 10.2

     Threshold (ethr) on eigenvalues was too large:
     Diagonalizing with lowered threshold

     Davidson diagonalization with overlap

---- Real-time Memory Report at c_bands before calling an iterative solver
           757 MiB given to the printing process from OS
             0 MiB allocation reported by mallinfo(arena+hblkhd)
         76421 MiB available memory on the node where the printing process lives
------------------
     ethr =  1.63E-04,  avg # of iterations = 11.1

     negative rho (up, down):  1.227E-03 0.000E+00

     total cpu time spent up to now is     2343.4 secs

     total energy              =  -22153.94091719 Ry
     estimated scf accuracy    <       1.59042595 Ry

     iteration #  2     ecut=    60.00 Ry     beta= 0.40
     Davidson diagonalization with overlap

---- Real-time Memory Report at c_bands before calling an iterative solver
           763 MiB given to the printing process from OS
             0 MiB allocation reported by mallinfo(arena+hblkhd)
         76228 MiB available memory on the node where the printing process lives
------------------
     ethr =  1.66E-04,  avg # of iterations =  2.0

     negative rho (up, down):  7.702E-04 0.000E+00

     total cpu time spent up to now is     3381.9 secs

     total energy              =  -22154.32966161 Ry
     estimated scf accuracy    <       0.27745945 Ry

     iteration #  3     ecut=    60.00 Ry     beta= 0.40
     Davidson diagonalization with overlap

---- Real-time Memory Report at c_bands before calling an iterative solver
           764 MiB given to the printing process from OS
             0 MiB allocation reported by mallinfo(arena+hblkhd)
         76205 MiB available memory on the node where the printing process lives
------------------
     ethr =  2.89E-05,  avg # of iterations =  6.0

     negative rho (up, down):  6.683E-04 0.000E+00

     total cpu time spent up to now is     4301.1 secs

     total energy              =  -22154.34779596 Ry
     estimated scf accuracy    <       0.04642820 Ry

     iteration #  4     ecut=    60.00 Ry     beta= 0.40
     Davidson diagonalization with overlap

---- Real-time Memory Report at c_bands before calling an iterative solver
           765 MiB given to the printing process from OS
             0 MiB allocation reported by mallinfo(arena+hblkhd)
         76171 MiB available memory on the node where the printing process lives
------------------
     c_bands:  1 eigenvalues not converged
     c_bands:  1 eigenvalues not converged
     ethr =  4.84E-06,  avg # of iterations = 10.5

     negative rho (up, down):  5.031E-04 0.000E+00

     total cpu time spent up to now is     5275.9 secs

     total energy              =  -22154.34924265 Ry
     estimated scf accuracy    <       0.01526768 Ry

     iteration #  5     ecut=    60.00 Ry     beta= 0.40
     Davidson diagonalization with overlap

---- Real-time Memory Report at c_bands before calling an iterative solver
           766 MiB given to the printing process from OS
             0 MiB allocation reported by mallinfo(arena+hblkhd)
         76142 MiB available memory on the node where the printing process lives
------------------
     ethr =  1.59E-06,  avg # of iterations =  5.0

     negative rho (up, down):  4.453E-04 0.000E+00

     total cpu time spent up to now is     6202.5 secs

     total energy              =  -22154.35030635 Ry
     estimated scf accuracy    <       0.00231595 Ry

     iteration #  6     ecut=    60.00 Ry     beta= 0.40
     Davidson diagonalization with overlap

---- Real-time Memory Report at c_bands before calling an iterative solver
           767 MiB given to the printing process from OS
             0 MiB allocation reported by mallinfo(arena+hblkhd)
         76101 MiB available memory on the node where the printing process lives
------------------
     ethr =  2.41E-07,  avg # of iterations =  2.0

     negative rho (up, down):  4.178E-04 0.000E+00

     total cpu time spent up to now is     7212.9 secs

     total energy              =  -22154.35061308 Ry
     estimated scf accuracy    <       0.00088821 Ry

     iteration #  7     ecut=    60.00 Ry     beta= 0.40
     Davidson diagonalization with overlap

---- Real-time Memory Report at c_bands before calling an iterative solver
           768 MiB given to the printing process from OS
             0 MiB allocation reported by mallinfo(arena+hblkhd)
         76072 MiB available memory on the node where the printing process lives
------------------
     ethr =  9.25E-08,  avg # of iterations =  1.2

     negative rho (up, down):  4.120E-04 0.000E+00

     total cpu time spent up to now is     7949.8 secs

     total energy              =  -22154.35072176 Ry
     estimated scf accuracy    <       0.00062097 Ry

     iteration #  8     ecut=    60.00 Ry     beta= 0.40
     Davidson diagonalization with overlap

---- Real-time Memory Report at c_bands before calling an iterative solver
           768 MiB given to the printing process from OS
             0 MiB allocation reported by mallinfo(arena+hblkhd)
         76039 MiB available memory on the node where the printing process lives
------------------
     ethr =  6.47E-08,  avg # of iterations =  1.0

     negative rho (up, down):  4.103E-04 0.000E+00

     total cpu time spent up to now is     8650.3 secs

     total energy              =  -22154.35073023 Ry
     estimated scf accuracy    <       0.00005036 Ry

     iteration #  9     ecut=    60.00 Ry     beta= 0.40
     Davidson diagonalization with overlap

---- Real-time Memory Report at c_bands before calling an iterative solver
           771 MiB given to the printing process from OS
             0 MiB allocation reported by mallinfo(arena+hblkhd)
         75999 MiB available memory on the node where the printing process lives
------------------
     ethr =  5.25E-09,  avg # of iterations =  2.0

     negative rho (up, down):  4.112E-04 0.000E+00

     total cpu time spent up to now is     9741.3 secs

     total energy              =  -22154.35074524 Ry
     estimated scf accuracy    <       0.00001306 Ry

     iteration # 10     ecut=    60.00 Ry     beta= 0.40
     Davidson diagonalization with overlap

---- Real-time Memory Report at c_bands before calling an iterative solver
           772 MiB given to the printing process from OS
             0 MiB allocation reported by mallinfo(arena+hblkhd)
         75966 MiB available memory on the node where the printing process lives
------------------
     ethr =  1.36E-09,  avg # of iterations =  2.0

     negative rho (up, down):  4.138E-04 0.000E+00

     total cpu time spent up to now is    10780.3 secs

     End of self-consistent calculation

          k = 0.0000 0.0000 0.0000 (119205 PWs)   bands (ev):

  -125.0715-125.0700-125.0700-125.0697-125.0696-125.0692-125.0691-125.0685
  -125.0682-125.0681-125.0678-125.0678-125.0675-125.0675-125.0671-125.0668
  -124.8674-124.8672-124.8659-124.8659-124.8657-124.8657-124.8656-124.8656
  -124.8655-124.8654-124.8653-124.8653-124.8652-124.8650-124.8643-124.8642
  -124.8640-124.8640-124.8639-124.8639-124.8638-124.8638-124.8637-124.8637
  -124.8636-124.8635-124.8635-124.8633-124.8633-124.8632-124.8630-124.8630
   -79.2376 -79.2375 -79.2375 -79.2311 -79.2311 -79.2309 -79.2308 -79.2307
   -79.2307 -79.2201 -79.2198 -79.2198 -79.2197 -79.2196 -79.2194 -79.2194
   -79.2184 -79.2184 -79.2181 -79.2180 -79.2178 -79.2178 -79.2177 -79.2176
   -79.2175 -79.2175 -79.2174 -79.2174 -79.2167 -79.2164 -79.2162 -79.2160
   -79.2160 -79.2158 -79.2157 -79.2153 -79.2150 -79.2110 -79.2109 -79.2109
   -79.2065 -79.2064 -79.2063 -79.2062 -79.2061 -79.2060 -79.2016 -79.2016
   -79.0302 -79.0302 -79.0302 -79.0300 -79.0300 -79.0300 -79.0245 -79.0242
   -79.0237 -79.0237 -79.0235 -79.0235 -79.0235 -79.0235 -79.0234 -79.0234
   -79.0233 -79.0233 -79.0232 -79.0232 -79.0228 -79.0228 -79.0226 -79.0226
   -79.0225 -79.0225 -79.0224 -79.0223 -79.0222 -79.0222 -79.0221 -79.0219
   -79.0210 -79.0209 -79.0208 -79.0208 -79.0207 -79.0206 -79.0206 -79.0206
   -79.0205 -79.0205 -79.0204 -79.0203 -79.0203 -79.0201 -79.0200 -79.0200
   -79.0198 -79.0198 -79.0125 -79.0124 -79.0123 -79.0123 -79.0122 -79.0122
   -79.0122 -79.0121 -79.0121 -79.0120 -79.0119 -79.0119 -79.0104 -79.0104
   -79.0103 -79.0103 -79.0102 -79.0102 -79.0101 -79.0101 -79.0101 -79.0100
   -79.0099 -79.0099 -79.0037 -79.0037 -79.0036 -79.0035 -79.0035 -79.0034
   -78.9992 -78.9991 -78.9990 -78.9990 -78.9990 -78.9989 -78.9989 -78.9988
   -78.9988 -78.9988 -78.9987 -78.9986 -78.9943 -78.9943 -78.9941 -78.9941
    -8.6214  -7.3995  -7.0916  -7.0679  -7.0678  -7.0677  -7.0676  -7.0675
    -7.0675  -6.9140  -6.9140  -6.9140  -6.7252  -6.7252  -6.7252  -6.6776
    -6.6776  -6.6776  -6.5889  -6.5888  -6.5887  -6.5887  -6.5886  -6.5886
    -6.5397  -6.5396  -6.5396  -6.5395  -6.5395  -6.5395  -6.5363  -6.5363
    -6.5363  -6.4791  -6.4791  -6.4788  -6.4788  -6.4787  -6.4787  -6.4322
    -6.4322  -6.4320  -6.4320  -6.4318  -6.4318  -6.3350  -6.3350  -6.3348
    -6.3347  -6.3345  -6.3345  -6.3334  -6.3333  -6.3333  -6.2736  -6.2736
    -6.2734  -6.2734  -6.2733  -6.2732  -6.2701  -6.2115  -6.2115  -6.2114
    -6.2113  -6.2112  -6.2112  -6.1716  -6.1716  -6.1715  -6.1715  -6.1715
    -6.1715  -6.1459  -6.1459  -6.1459  -6.1459  -6.1459  -6.1458  -6.1224
    -6.1224  -6.1224  -6.1224  -6.1223  -6.1223  -6.1223  -6.1223  -6.0976
    -6.0976  -6.0976  -6.0966  -6.0965  -6.0965  -6.0965  -6.0965  -6.0965
    -5.9944  -5.9944  -5.9943  -5.9943  -5.9941  -5.9941  -5.9166  -5.9166
    -5.8978  -5.8978  -5.8657  -5.8657  -5.8657  -5.8657  -5.8657  -5.8657
    -5.8638  -5.8638  -5.8637  -5.8637  -5.8635  -5.8635  -5.8323  -5.8323
    -5.8323  -5.7831  -5.7831  -5.7830  -5.7830  -5.7830  -5.7830  -5.7767
    -5.7767  -5.7767  -5.7767  -5.7766  -5.7766  -5.7765  -5.7764  -5.7764
    -5.7763  -5.7763  -5.7763  -5.7547  -5.7547  -5.7547  -5.7546  -5.7546
    -5.7546  -5.7455  -5.7455  -5.7454  -5.7453  -5.7452  -5.7452  -5.7285
    -5.7284  -5.7283  -5.7282  -5.7281  -5.7281  -5.7158  -5.7095  -5.7095
    -5.7094  -5.7094  -5.7092  -5.7092  -5.6974  -5.6974  -5.6974  -5.6110
    -5.6110  -5.5760  -5.5760  -5.5758  -5.5758  -5.5756  -5.5756  -5.5694
    -5.5694  -5.5693  -5.5693  -5.5691  -5.5691  -5.5461  -5.5460  -5.5459
    -5.5459  -5.5458  -5.5458  -5.5298  -5.5298  -5.5298  -5.5029  -5.5029
    -5.5028  -5.5027  -5.5026  -5.5026  -5.4943  -5.4943  -5.4942  -5.4941
    -5.4941  -5.4940  -5.4464  -5.4464  -5.4463  -5.4462  -5.4461  -5.4461
    -5.4343  -5.4343  -5.4343  -5.4338  -5.4338  -5.4338  -5.3978  -5.3978
    -5.3978  -5.3917  -5.3916  -5.3916  -5.3915  -5.3914  -5.3914  -5.3839
    -5.3839  -5.3627  -5.3627  -5.3203  -5.3203  -5.3202  -5.3202  -5.3200
    -5.3200  -5.2906  -5.2906  -5.2906  -5.2906  -5.2905  -5.2905  -5.2814
    -5.2814  -5.2814  -5.0718  -5.0718  -5.0718  -5.0716  -5.0716  -5.0716
    -4.3975  -4.3975  -4.3973  -4.3972  -4.3971  -4.3970  -3.4500  -2.1034
    -2.1034  -2.1034  -2.1034  -2.1034  -2.1034  -2.0200  -2.0199  -2.0198
    -2.0197  -2.0195  -2.0194  -0.8424  -0.8424  -0.8424  -0.7119  -0.6399
    -0.6399  -0.6399  -0.6399  -0.6399  -0.6399  -0.0843  -0.0843  -0.0843
     0.2451   0.2451   0.2451   1.5365   1.5365   1.5365   1.5365   1.5365
     1.5365   1.5805   1.5806   1.5807   1.5808   1.5810   1.5810   2.3096
     2.3096   2.3096   3.1111   3.3015   3.3015   3.3015   4.1422   4.1422
     4.1422   4.8865   4.8865   4.8866   4.8867   4.8868   4.8869   5.1516
     5.4271   5.4271   5.4271   5.4271   5.4271   5.4271   5.4352   5.4352
     5.4354   5.4354   5.4355   5.4355   5.5176   5.6049   5.6049   5.6050
     5.6050   5.6052   5.6052   6.3575   6.5624   6.5624   6.5624   6.6113
     6.9443   6.9443   6.9444   6.9444   6.9445   6.9445   7.0110   7.0110
     7.0112   7.0112   7.0113   7.0113   7.1885   7.1885   7.1886   7.1886
     7.1887   7.1887   7.3545   7.3545   7.3546   7.3546   7.3546   7.3546
     8.1464   8.1464   8.1465   8.1465   8.1465   8.1465   8.1947   8.1947
     8.1947   8.1948   8.1948   8.1948   8.3755   8.3755   8.3755   8.3952
     8.3984   8.3984   8.3984   8.3984   8.3985   8.3985   8.5084   9.2896

     occupation numbers 
     1.0000   1.0000   1.0000   1.0000   1.0000   1.0000   1.0000   1.0000
     1.0000   1.0000   1.0000   1.0000   1.0000   1.0000   1.0000   1.0000
     1.0000   1.0000   1.0000   1.0000   1.0000   1.0000   1.0000   1.0000
     1.0000   1.0000   1.0000   1.0000   1.0000   1.0000   1.0000   1.0000
     1.0000   1.0000   1.0000   1.0000   1.0000   1.0000   1.0000   1.0000
     1.0000   1.0000   1.0000   1.0000   1.0000   1.0000   1.0000   1.0000
     1.0000   1.0000   1.0000   1.0000   1.0000   1.0000   1.0000   1.0000
     1.0000   1.0000   1.0000   1.0000   1.0000   1.0000   1.0000   1.0000
     1.0000   1.0000   1.0000   1.0000   1.0000   1.0000   1.0000   1.0000
     1.0000   1.0000   1.0000   1.0000   1.0000   1.0000   1.0000   1.0000
     1.0000   1.0000   1.0000   1.0000   1.0000   1.0000   1.0000   1.0000
     1.0000   1.0000   1.0000   1.0000   1.0000   1.0000   1.0000   1.0000
     1.0000   1.0000   1.0000   1.0000   1.0000   1.0000   1.0000   1.0000
     1.0000   1.0000   1.0000   1.0000   1.0000   1.0000   1.0000   1.0000
     1.0000   1.0000   1.0000   1.0000   1.0000   1.0000   1.0000   1.0000
     1.0000   1.0000   1.0000   1.0000   1.0000   1.0000   1.0000   1.0000
     1.0000   1.0000   1.0000   1.0000   1.0000   1.0000   1.0000   1.0000
     1.0000   1.0000   1.0000   1.0000   1.0000   1.0000   1.0000   1.0000
     1.0000   1.0000   1.0000   1.0000   1.0000   1.0000   1.0000   1.0000
     1.0000   1.0000   1.0000   1.0000   1.0000   1.0000   1.0000   1.0000
     1.0000   1.0000   1.0000   1.0000   1.0000   1.0000   1.0000   1.0000
     1.0000   1.0000   1.0000   1.0000   1.0000   1.0000   1.0000   1.0000
     1.0000   1.0000   1.0000   1.0000   1.0000   1.0000   1.0000   1.0000
     1.0000   1.0000   1.0000   1.0000   1.0000   1.0000   1.0000   1.0000
     1.0000   1.0000   1.0000   1.0000   1.0000   1.0000   1.0000   1.0000
     1.0000   1.0000   1.0000   1.0000   1.0000   1.0000   1.0000   1.0000
     1.0000   1.0000   1.0000   1.0000   1.0000   1.0000   1.0000   1.0000
     1.0000   1.0000   1.0000   1.0000   1.0000   1.0000   1.0000   1.0000
     1.0000   1.0000   1.0000   1.0000   1.0000   1.0000   1.0000   1.0000
     1.0000   1.0000   1.0000   1.0000   1.0000   1.0000   1.0000   1.0000
     1.0000   1.0000   1.0000   1.0000   1.0000   1.0000   1.0000   1.0000
     1.0000   1.0000   1.0000   1.0000   1.0000   1.0000   1.0000   1.0000
     1.0000   1.0000   1.0000   1.0000   1.0000   1.0000   1.0000   1.0000
     1.0000   1.0000   1.0000   1.0000   1.0000   1.0000   1.0000   1.0000
     1.0000   1.0000   1.0000   1.0000   1.0000   1.0000   1.0000   1.0000
     1.0000   1.0000   1.0000   1.0000   1.0000   1.0000   1.0000   1.0000
     1.0000   1.0000   1.0000   1.0000   1.0000   1.0000   1.0000   1.0000
     1.0000   1.0000   1.0000   1.0000   1.0000   1.0000   1.0000   1.0000
     1.0000   1.0000   1.0000   1.0000   1.0000   1.0000   1.0000   1.0000
     1.0000   1.0000   1.0000   1.0000   1.0000   1.0000   1.0000   1.0000
     1.0000   1.0000   1.0000   1.0000   1.0000   1.0000   1.0000   1.0000
     1.0000   1.0000   1.0000   1.0000   1.0000   1.0000   1.0000   1.0000
     1.0000   1.0000   1.0000   1.0000   1.0000   1.0000   1.0000   1.0000
     1.0000   1.0000   1.0000   1.0000   1.0000   1.0000   1.0000   1.0000
     1.0000   1.0000   1.0000   1.0000   1.0000   1.0000   1.0000   1.0000
     1.0000   1.0000   1.0000   1.0000   1.0000   1.0000   1.0000   1.0000
     1.0000   1.0000   1.0000   1.0000   1.0000   1.0000   1.0000   1.0000
     1.0000   1.0000   1.0000   1.0000   1.0000   1.0000   1.0000   1.0000
     1.0000   1.0000   1.0000   1.0000   1.0000   1.0000   1.0000   1.0000
     1.0000   1.0000   1.0000   1.0000   1.0000   1.0000   1.0000   1.0000
     1.0000   1.0000   1.0000   1.0000   1.0000   1.0000   1.0000   1.0000
     1.0000   1.0000   1.0000   1.0000   1.0000   1.0000   1.0000   1.0000
     1.0000   1.0000   1.0000   1.0000   1.0000   1.0000   1.0000   1.0000
     1.0000   1.0000   1.0000   1.0000   1.0000   1.0000   1.0000   1.0000
     1.0000   1.0000   1.0000   1.0000   1.0000   1.0000   1.0000   1.0000
     1.0000   1.0000   1.0000   1.0000   1.0000   1.0000   1.0000   1.0000
     1.0000   1.0000   1.0000   1.0000   1.0000   1.0000   1.0000   1.0000
     1.0000   1.0000   1.0000   1.0000   1.0000   1.0000   1.0000   1.0000
     1.0000   1.0000   1.0000   1.0000   1.0000   1.0000   1.0000   1.0000
     1.0000   1.0000   1.0000   0.1846   0.1846   0.1846   0.1846   0.1846
     0.1846   0.1226   0.1225   0.1224   0.1223   0.1221   0.1220   0.0000
     0.0000   0.0000   0.0000   0.0000   0.0000   0.0000   0.0000   0.0000
     0.0000   0.0000   0.0000   0.0000   0.0000   0.0000   0.0000   0.0000
     0.0000   0.0000   0.0000   0.0000   0.0000   0.0000   0.0000   0.0000
     0.0000   0.0000   0.0000   0.0000   0.0000   0.0000   0.0000   0.0000
     0.0000   0.0000   0.0000   0.0000   0.0000   0.0000   0.0000   0.0000
     0.0000   0.0000   0.0000   0.0000   0.0000   0.0000   0.0000   0.0000
     0.0000   0.0000   0.0000   0.0000   0.0000   0.0000   0.0000   0.0000
     0.0000   0.0000   0.0000   0.0000   0.0000   0.0000   0.0000   0.0000
     0.0000   0.0000   0.0000   0.0000   0.0000   0.0000   0.0000   0.0000
     0.0000   0.0000   0.0000   0.0000   0.0000   0.0000   0.0000   0.0000
     0.0000   0.0000   0.0000   0.0000   0.0000   0.0000   0.0000   0.0000

          k = 0.0000 0.2887 0.0000 (119162 PWs)   bands (ev):

  -125.0714-125.0705-125.0699-125.0696-125.0695-125.0692-125.0687-125.0686
  -125.0684-125.0680-125.0679-125.0678-125.0676-125.0675-125.0670-125.0668
  -124.8673-124.8671-124.8664-124.8662-124.8659-124.8657-124.8657-124.8655
  -124.8654-124.8652-124.8651-124.8650-124.8648-124.8646-124.8645-124.8643
  -124.8642-124.8641-124.8641-124.8639-124.8639-124.8638-124.8637-124.8637
  -124.8636-124.8636-124.8635-124.8633-124.8633-124.8632-124.8630-124.8629
   -79.2368 -79.2368 -79.2362 -79.2323 -79.2322 -79.2313 -79.2313 -79.2294
   -79.2293 -79.2265 -79.2233 -79.2232 -79.2206 -79.2206 -79.2200 -79.2190
   -79.2183 -79.2181 -79.2178 -79.2176 -79.2170 -79.2168 -79.2167 -79.2166
   -79.2166 -79.2162 -79.2162 -79.2162 -79.2161 -79.2160 -79.2158 -79.2157
   -79.2152 -79.2150 -79.2140 -79.2139 -79.2127 -79.2117 -79.2117 -79.2105
   -79.2082 -79.2078 -79.2076 -79.2059 -79.2058 -79.2045 -79.2029 -79.2019
   -79.0294 -79.0294 -79.0292 -79.0292 -79.0288 -79.0286 -79.0249 -79.0249
   -79.0247 -79.0247 -79.0244 -79.0241 -79.0240 -79.0240 -79.0238 -79.0237
   -79.0234 -79.0231 -79.0228 -79.0226 -79.0226 -79.0224 -79.0222 -79.0221
   -79.0220 -79.0220 -79.0220 -79.0219 -79.0218 -79.0218 -79.0216 -79.0214
   -79.0213 -79.0211 -79.0210 -79.0209 -79.0208 -79.0207 -79.0206 -79.0206
   -79.0205 -79.0205 -79.0204 -79.0203 -79.0203 -79.0201 -79.0200 -79.0200
   -79.0197 -79.0197 -79.0191 -79.0189 -79.0159 -79.0159 -79.0157 -79.0157
   -79.0133 -79.0133 -79.0131 -79.0131 -79.0093 -79.0093 -79.0091 -79.0091
   -79.0090 -79.0089 -79.0087 -79.0087 -79.0067 -79.0066 -79.0064 -79.0064
   -79.0054 -79.0052 -79.0044 -79.0044 -79.0042 -79.0042 -79.0033 -79.0031
   -79.0009 -79.0007 -79.0005 -79.0004 -79.0003 -79.0002 -78.9986 -78.9986
   -78.9984 -78.9984 -78.9972 -78.9970 -78.9957 -78.9955 -78.9947 -78.9945
    -8.5026  -7.6192  -7.2996  -7.2473  -7.2473  -7.0291  -6.8979  -6.8717
    -6.8717  -6.8489  -6.8454  -6.8454  -6.7064  -6.6915  -6.6915  -6.6901
    -6.6750  -6.6623  -6.6379  -6.6379  -6.5896  -6.5802  -6.5770  -6.5770
    -6.5675  -6.5675  -6.5480  -6.5480  -6.5280  -6.5280  -6.5184  -6.5184
    -6.5168  -6.5119  -6.5119  -6.5091  -6.5091  -6.5021  -6.5021  -6.4863
    -6.4863  -6.4607  -6.4607  -6.4230  -6.4230  -6.3950  -6.3950  -6.3801
    -6.3800  -6.3759  -6.3220  -6.3173  -6.3173  -6.3155  -6.3155  -6.3153
    -6.3153  -6.2688  -6.2688  -6.2592  -6.2519  -6.2295  -6.2295  -6.2233
    -6.2233  -6.2217  -6.2217  -6.2217  -6.2084  -6.2084  -6.2047  -6.2047
    -6.1957  -6.1957  -6.1840  -6.1840  -6.1799  -6.1783  -6.1783  -6.1544
    -6.1380  -6.1235  -6.1235  -6.1143  -6.1143  -6.1007  -6.1007  -6.0931
    -6.0906  -6.0906  -6.0782  -6.0637  -6.0637  -6.0498  -6.0498  -6.0486
    -6.0486  -5.9591  -5.9591  -5.9590  -5.9590  -5.9437  -5.9411  -5.9373
    -5.9372  -5.9349  -5.9349  -5.9242  -5.9242  -5.9130  -5.9114  -5.9114
    -5.8933  -5.8933  -5.8894  -5.8857  -5.8815  -5.8743  -5.8743  -5.8688
    -5.8463  -5.8463  -5.8394  -5.8394  -5.8253  -5.8114  -5.7957  -5.7957
    -5.7955  -5.7955  -5.7868  -5.7868  -5.7769  -5.7768  -5.7762  -5.7732
    -5.7732  -5.7555  -5.7555  -5.7477  -5.7477  -5.7403  -5.7306  -5.7306
    -5.7145  -5.7131  -5.7131  -5.7053  -5.7053  -5.6977  -5.6977  -5.6953
    -5.6953  -5.6925  -5.6925  -5.6796  -5.6681  -5.6681  -5.6572  -5.6443
    -5.6395  -5.6395  -5.6336  -5.6336  -5.6187  -5.6187  -5.6174  -5.6165
    -5.6165  -5.6127  -5.6116  -5.6057  -5.6057  -5.5799  -5.5643  -5.5610
    -5.5610  -5.5566  -5.5566  -5.5482  -5.5482  -5.5458  -5.5458  -5.5440
    -5.5440  -5.5412  -5.5269  -5.5268  -5.5262  -5.5218  -5.5218  -5.5127
    -5.5127  -5.4916  -5.4916  -5.4629  -5.4607  -5.4582  -5.4582  -5.4544
    -5.4544  -5.4522  -5.4522  -5.4402  -5.4402  -5.4310  -5.4262  -5.4262
    -5.4239  -5.4200  -5.4148  -5.4145  -5.4029  -5.4029  -5.3999  -5.3999
    -5.3889  -5.3872  -5.3872  -5.3809  -5.3688  -5.3688  -5.3648  -5.3596
    -5.3458  -5.3458  -5.3415  -5.3326  -5.3203  -5.3203  -5.3140  -5.3117
    -5.3117  -5.3020  -5.3020  -5.2933  -5.2933  -5.2828  -5.2828  -5.1438
    -5.1438  -5.1297  -5.1297  -5.1242  -5.1242  -5.1059  -5.1052  -4.9472
    -4.9341  -4.6382  -4.6382  -3.8807  -3.8807  -3.4796  -3.3936  -3.3936
    -3.3650  -2.6733  -2.3014  -2.3014  -2.2217  -2.0209  -2.0209  -1.9710
    -1.9710  -1.5144  -1.5144  -1.2919  -1.2919  -1.1165  -0.7947  -0.5727
    -0.5727  -0.5606  -0.5606  -0.5518   0.0239   0.0239   0.2693   0.2693
     0.5601   0.5601   0.6336   0.8766   0.8984   0.8984   1.1836   1.1836
     1.5566   1.5566   2.2264   2.2264   2.6480   2.6963   2.6963   2.7210
     2.7831   2.7831   2.9506   2.9506   3.2230   3.5469   3.6914   3.6914
     3.9092   3.9092   4.1154   4.1851   4.1851   4.5595   4.5595   4.8023
     4.8023   4.8434   4.8434   5.1520   5.1520   5.1606   5.1606   5.2642
     5.4291   5.4291   5.5684   5.6328   5.6432   5.7936   5.7936   5.8093
     6.0943   6.0943   6.1636   6.3131   6.3131   6.4735   6.5527   6.5948
     6.5948   6.6119   6.6119   6.7113   6.7238   7.0106   7.0106   7.0117
     7.0117   7.0869   7.0869   7.1747   7.1747   7.3088   7.3088   7.3979
     7.4480   7.4480   7.4910   7.4910   7.6223   7.6572   7.6572   7.7799
     7.8571   7.8571   7.8975   7.8975   7.9466   7.9466   8.0520   8.0520
     8.0695   8.0695   8.3586   8.3867   8.5106   8.6203   8.6993   8.7900
     8.7907   8.8083   8.8083   8.8291   8.8292   8.8362   8.8362   8.9669

     occupation numbers 
     1.0000   1.0000   1.0000   1.0000   1.0000   1.0000   1.0000   1.0000
     1.0000   1.0000   1.0000   1.0000   1.0000   1.0000   1.0000   1.0000
     1.0000   1.0000   1.0000   1.0000   1.0000   1.0000   1.0000   1.0000
     1.0000   1.0000   1.0000   1.0000   1.0000   1.0000   1.0000   1.0000
     1.0000   1.0000   1.0000   1.0000   1.0000   1.0000   1.0000   1.0000
     1.0000   1.0000   1.0000   1.0000   1.0000   1.0000   1.0000   1.0000
     1.0000   1.0000   1.0000   1.0000   1.0000   1.0000   1.0000   1.0000
     1.0000   1.0000   1.0000   1.0000   1.0000   1.0000   1.0000   1.0000
     1.0000   1.0000   1.0000   1.0000   1.0000   1.0000   1.0000   1.0000
     1.0000   1.0000   1.0000   1.0000   1.0000   1.0000   1.0000   1.0000
     1.0000   1.0000   1.0000   1.0000   1.0000   1.0000   1.0000   1.0000
     1.0000   1.0000   1.0000   1.0000   1.0000   1.0000   1.0000   1.0000
     1.0000   1.0000   1.0000   1.0000   1.0000   1.0000   1.0000   1.0000
     1.0000   1.0000   1.0000   1.0000   1.0000   1.0000   1.0000   1.0000
     1.0000   1.0000   1.0000   1.0000   1.0000   1.0000   1.0000   1.0000
     1.0000   1.0000   1.0000   1.0000   1.0000   1.0000   1.0000   1.0000
     1.0000   1.0000   1.0000   1.0000   1.0000   1.0000   1.0000   1.0000
     1.0000   1.0000   1.0000   1.0000   1.0000   1.0000   1.0000   1.0000
     1.0000   1.0000   1.0000   1.0000   1.0000   1.0000   1.0000   1.0000
     1.0000   1.0000   1.0000   1.0000   1.0000   1.0000   1.0000   1.0000
     1.0000   1.0000   1.0000   1.0000   1.0000   1.0000   1.0000   1.0000
     1.0000   1.0000   1.0000   1.0000   1.0000   1.0000   1.0000   1.0000
     1.0000   1.0000   1.0000   1.0000   1.0000   1.0000   1.0000   1.0000
     1.0000   1.0000   1.0000   1.0000   1.0000   1.0000   1.0000   1.0000
     1.0000   1.0000   1.0000   1.0000   1.0000   1.0000   1.0000   1.0000
     1.0000   1.0000   1.0000   1.0000   1.0000   1.0000   1.0000   1.0000
     1.0000   1.0000   1.0000   1.0000   1.0000   1.0000   1.0000   1.0000
     1.0000   1.0000   1.0000   1.0000   1.0000   1.0000   1.0000   1.0000
     1.0000   1.0000   1.0000   1.0000   1.0000   1.0000   1.0000   1.0000
     1.0000   1.0000   1.0000   1.0000   1.0000   1.0000   1.0000   1.0000
     1.0000   1.0000   1.0000   1.0000   1.0000   1.0000   1.0000   1.0000
     1.0000   1.0000   1.0000   1.0000   1.0000   1.0000   1.0000   1.0000
     1.0000   1.0000   1.0000   1.0000   1.0000   1.0000   1.0000   1.0000
     1.0000   1.0000   1.0000   1.0000   1.0000   1.0000   1.0000   1.0000
     1.0000   1.0000   1.0000   1.0000   1.0000   1.0000   1.0000   1.0000
     1.0000   1.0000   1.0000   1.0000   1.0000   1.0000   1.0000   1.0000
     1.0000   1.0000   1.0000   1.0000   1.0000   1.0000   1.0000   1.0000
     1.0000   1.0000   1.0000   1.0000   1.0000   1.0000   1.0000   1.0000
     1.0000   1.0000   1.0000   1.0000   1.0000   1.0000   1.0000   1.0000
     1.0000   1.0000   1.0000   1.0000   1.0000   1.0000   1.0000   1.0000
     1.0000   1.0000   1.0000   1.0000   1.0000   1.0000   1.0000   1.0000
     1.0000   1.0000   1.0000   1.0000   1.0000   1.0000   1.0000   1.0000
     1.0000   1.0000   1.0000   1.0000   1.0000   1.0000   1.0000   1.0000
     1.0000   1.0000   1.0000   1.0000   1.0000   1.0000   1.0000   1.0000
     1.0000   1.0000   1.0000   1.0000   1.0000   1.0000   1.0000   1.0000
     1.0000   1.0000   1.0000   1.0000   1.0000   1.0000   1.0000   1.0000
     1.0000   1.0000   1.0000   1.0000   1.0000   1.0000   1.0000   1.0000
     1.0000   1.0000   1.0000   1.0000   1.0000   1.0000   1.0000   1.0000
     1.0000   1.0000   1.0000   1.0000   1.0000   1.0000   1.0000   1.0000
     1.0000   1.0000   1.0000   1.0000   1.0000   1.0000   1.0000   1.0000
     1.0000   1.0000   1.0000   1.0000   1.0000   1.0000   1.0000   1.0000
     1.0000   1.0000   1.0000   1.0000   1.0000   1.0000   1.0000   1.0000
     1.0000   1.0000   1.0000   1.0000   1.0000   1.0000   1.0000   1.0000
     1.0000   1.0000   1.0000   1.0000   1.0000   1.0000   1.0000   1.0000
     1.0000   1.0000   1.0000   1.0000   1.0000   1.0000   1.0000   1.0000
     1.0000   1.0000   1.0000   1.0000   1.0000   1.0000   1.0000   1.0000
     1.0000   1.0000   1.0000   1.0000   1.0000   1.0000   1.0000   1.0000
     1.0000   1.0000   1.0000   1.0000   1.0000   1.0000   1.0000   1.0000
     1.0000   1.0000   1.0000   1.0000   1.0000   1.0000   1.0000   1.0000
     1.0006   1.0006   1.0019   1.0373   1.0444   1.0444   0.9984   0.9984
     0.1540   0.1540   0.0000   0.0000   0.0000   0.0000   0.0000   0.0000
     0.0000   0.0000   0.0000   0.0000   0.0000   0.0000   0.0000   0.0000
     0.0000   0.0000   0.0000   0.0000   0.0000   0.0000   0.0000   0.0000
     0.0000   0.0000   0.0000   0.0000   0.0000   0.0000   0.0000   0.0000
     0.0000   0.0000   0.0000   0.0000   0.0000   0.0000   0.0000   0.0000
     0.0000   0.0000   0.0000   0.0000   0.0000   0.0000   0.0000   0.0000
     0.0000   0.0000   0.0000   0.0000   0.0000   0.0000   0.0000   0.0000
     0.0000   0.0000   0.0000   0.0000   0.0000   0.0000   0.0000   0.0000
     0.0000   0.0000   0.0000   0.0000   0.0000   0.0000   0.0000   0.0000
     0.0000   0.0000   0.0000   0.0000   0.0000   0.0000   0.0000   0.0000
     0.0000   0.0000   0.0000   0.0000   0.0000   0.0000   0.0000   0.0000
     0.0000   0.0000   0.0000   0.0000   0.0000   0.0000   0.0000   0.0000

          k = 0.0000-0.5774 0.0000 (119074 PWs)   bands (ev):

  -125.0711-125.0709-125.0700-125.0697-125.0691-125.0689-125.0689-125.0686
  -125.0683-125.0681-125.0680-125.0678-125.0676-125.0675-125.0670-125.0668
  -124.8670-124.8669-124.8668-124.8666-124.8660-124.8658-124.8658-124.8656
  -124.8650-124.8649-124.8648-124.8647-124.8647-124.8646-124.8646-124.8645
  -124.8643-124.8643-124.8641-124.8640-124.8639-124.8638-124.8638-124.8637
  -124.8636-124.8636-124.8635-124.8634-124.8632-124.8631-124.8629-124.8629
   -79.2349 -79.2348 -79.2347 -79.2346 -79.2325 -79.2323 -79.2313 -79.2310
   -79.2267 -79.2267 -79.2267 -79.2267 -79.2219 -79.2219 -79.2197 -79.2195
   -79.2184 -79.2182 -79.2174 -79.2172 -79.2172 -79.2170 -79.2165 -79.2163
   -79.2162 -79.2160 -79.2158 -79.2157 -79.2153 -79.2153 -79.2152 -79.2150
   -79.2139 -79.2138 -79.2137 -79.2136 -79.2105 -79.2105 -79.2104 -79.2104
   -79.2096 -79.2094 -79.2071 -79.2069 -79.2059 -79.2056 -79.2031 -79.2028
   -79.0275 -79.0275 -79.0274 -79.0274 -79.0273 -79.0273 -79.0271 -79.0271
   -79.0251 -79.0250 -79.0249 -79.0247 -79.0240 -79.0239 -79.0239 -79.0238
   -79.0238 -79.0237 -79.0236 -79.0236 -79.0229 -79.0228 -79.0227 -79.0225
   -79.0218 -79.0217 -79.0217 -79.0216 -79.0215 -79.0214 -79.0214 -79.0213
   -79.0211 -79.0211 -79.0209 -79.0208 -79.0207 -79.0206 -79.0205 -79.0205
   -79.0204 -79.0204 -79.0203 -79.0202 -79.0200 -79.0199 -79.0197 -79.0197
   -79.0194 -79.0194 -79.0194 -79.0194 -79.0192 -79.0192 -79.0192 -79.0192
   -79.0146 -79.0146 -79.0144 -79.0143 -79.0080 -79.0080 -79.0078 -79.0078
   -79.0065 -79.0065 -79.0064 -79.0064 -79.0063 -79.0063 -79.0062 -79.0061
   -79.0032 -79.0032 -79.0032 -79.0031 -79.0030 -79.0030 -79.0030 -79.0029
   -79.0023 -79.0022 -79.0021 -79.0019 -78.9997 -78.9996 -78.9995 -78.9994
   -78.9986 -78.9985 -78.9984 -78.9982 -78.9958 -78.9957 -78.9956 -78.9954
    -8.1548  -8.1546  -7.3159  -7.3159  -7.0252  -7.0251  -6.8638  -6.8637
    -6.8594  -6.8592  -6.7494  -6.7494  -6.7493  -6.7492  -6.6534  -6.6533
    -6.6466  -6.6466  -6.6466  -6.6466  -6.6244  -6.6243  -6.6069  -6.6068
    -6.6068  -6.6067  -6.5535  -6.5535  -6.5286  -6.5286  -6.5285  -6.5285
    -6.5057  -6.5057  -6.4873  -6.4873  -6.4873  -6.4873  -6.4629  -6.4629
    -6.4629  -6.4629  -6.4607  -6.4606  -6.4496  -6.4496  -6.4260  -6.4260
    -6.4218  -6.4218  -6.4216  -6.4216  -6.3101  -6.3101  -6.3013  -6.3013
    -6.2930  -6.2930  -6.2930  -6.2930  -6.2917  -6.2915  -6.2708  -6.2708
    -6.2706  -6.2706  -6.2364  -6.2363  -6.2211  -6.2211  -6.2211  -6.2211
    -6.2061  -6.2061  -6.2011  -6.2011  -6.1702  -6.1701  -6.1421  -6.1421
    -6.1117  -6.1117  -6.1033  -6.1033  -6.0827  -6.0827  -6.0827  -6.0826
    -6.0617  -6.0617  -6.0617  -6.0617  -6.0420  -6.0420  -6.0324  -6.0324
    -6.0260  -6.0259  -6.0225  -6.0224  -6.0093  -6.0091  -5.9901  -5.9901
    -5.9901  -5.9901  -5.9469  -5.9469  -5.9459  -5.9457  -5.9154  -5.9153
    -5.9057  -5.9057  -5.8722  -5.8721  -5.8721  -5.8720  -5.8152  -5.8150
    -5.8095  -5.8095  -5.8088  -5.8088  -5.8088  -5.8088  -5.8055  -5.8053
    -5.7875  -5.7875  -5.7851  -5.7850  -5.7761  -5.7761  -5.7760  -5.7760
    -5.7683  -5.7681  -5.7676  -5.7676  -5.7676  -5.7676  -5.7559  -5.7559
    -5.7541  -5.7541  -5.7541  -5.7541  -5.6755  -5.6755  -5.6741  -5.6741
    -5.6674  -5.6674  -5.6458  -5.6458  -5.6458  -5.6458  -5.6314  -5.6313
    -5.6241  -5.6241  -5.6050  -5.6049  -5.6049  -5.6048  -5.5947  -5.5947
    -5.5708  -5.5706  -5.5439  -5.5437  -5.5293  -5.5293  -5.5292  -5.5292
    -5.5268  -5.5268  -5.5268  -5.5268  -5.5235  -5.5234  -5.5214  -5.5213
    -5.4996  -5.4995  -5.4994  -5.4994  -5.4895  -5.4894  -5.4889  -5.4888
    -5.4871  -5.4871  -5.4793  -5.4793  -5.4646  -5.4645  -5.4645  -5.4645
    -5.4518  -5.4518  -5.4517  -5.4516  -5.4403  -5.4403  -5.4233  -5.4232
    -5.4159  -5.4159  -5.4158  -5.4158  -5.4130  -5.4130  -5.4121  -5.4121
    -5.4057  -5.4057  -5.4032  -5.4031  -5.4005  -5.4003  -5.3711  -5.3710
    -5.3630  -5.3630  -5.3630  -5.3630  -5.3246  -5.3246  -5.3246  -5.3246
    -5.2546  -5.2546  -5.2544  -5.2544  -5.2355  -5.2355  -5.2346  -5.2346
    -5.2345  -5.2345  -5.2018  -5.2017  -5.1991  -5.1990  -4.7020  -4.7020
    -4.4183  -4.4183  -4.4183  -4.4183  -3.7279  -3.7279  -3.1103  -3.1102
    -3.0612  -3.0612  -3.0612  -3.0612  -2.3910  -2.3910  -2.2393  -2.2393
    -1.7577  -1.7576  -1.7575  -1.7575  -0.7548  -0.7548  -0.7548  -0.7548
    -0.3252  -0.3252  -0.3251  -0.3251  -0.0900  -0.0899   0.0135   0.0135
     1.0213   1.0213   1.0494   1.0494   1.3384   1.3384   1.3699   1.3699
     1.3700   1.3700   2.2234   2.2234   2.9008   2.9008   2.9009   2.9009
     3.1018   3.1018   3.1018   3.1018   3.3229   3.3229   3.5583   3.5584
     3.8670   3.8670   3.8671   3.8671   3.9984   3.9985   4.2584   4.2584
     4.4504   4.4504   4.7461   4.7461   4.8577   4.8577   5.4840   5.4840
     5.6018   5.6018   5.8014   5.8014   5.9297   5.9298   5.9298   5.9299
     5.9781   5.9781   5.9837   5.9837   5.9837   5.9837   6.1566   6.1566
     6.1566   6.1566   6.5008   6.5008   6.5602   6.5602   6.8210   6.8210
     6.8686   6.8686   6.8972   6.8972   7.0149   7.0149   7.0149   7.0149
     7.0612   7.0612   7.7433   7.7433   7.9589   7.9589   8.0648   8.0648
     8.1279   8.1279   8.1279   8.1279   8.2825   8.2825   8.6717   8.6717
     8.6717   8.6717   8.7297   8.7297   8.7297   8.7297   8.7370   8.7370
     8.8560   8.8560   8.9547   8.9547   9.0023   9.0024   9.0024   9.0025

     occupation numbers 
     1.0000   1.0000   1.0000   1.0000   1.0000   1.0000   1.0000   1.0000
     1.0000   1.0000   1.0000   1.0000   1.0000   1.0000   1.0000   1.0000
     1.0000   1.0000   1.0000   1.0000   1.0000   1.0000   1.0000   1.0000
     1.0000   1.0000   1.0000   1.0000   1.0000   1.0000   1.0000   1.0000
     1.0000   1.0000   1.0000   1.0000   1.0000   1.0000   1.0000   1.0000
     1.0000   1.0000   1.0000   1.0000   1.0000   1.0000   1.0000   1.0000
     1.0000   1.0000   1.0000   1.0000   1.0000   1.0000   1.0000   1.0000
     1.0000   1.0000   1.0000   1.0000   1.0000   1.0000   1.0000   1.0000
     1.0000   1.0000   1.0000   1.0000   1.0000   1.0000   1.0000   1.0000
     1.0000   1.0000   1.0000   1.0000   1.0000   1.0000   1.0000   1.0000
     1.0000   1.0000   1.0000   1.0000   1.0000   1.0000   1.0000   1.0000
     1.0000   1.0000   1.0000   1.0000   1.0000   1.0000   1.0000   1.0000
     1.0000   1.0000   1.0000   1.0000   1.0000   1.0000   1.0000   1.0000
     1.0000   1.0000   1.0000   1.0000   1.0000   1.0000   1.0000   1.0000
     1.0000   1.0000   1.0000   1.0000   1.0000   1.0000   1.0000   1.0000
     1.0000   1.0000   1.0000   1.0000   1.0000   1.0000   1.0000   1.0000
     1.0000   1.0000   1.0000   1.0000   1.0000   1.0000   1.0000   1.0000
     1.0000   1.0000   1.0000   1.0000   1.0000   1.0000   1.0000   1.0000
     1.0000   1.0000   1.0000   1.0000   1.0000   1.0000   1.0000   1.0000
     1.0000   1.0000   1.0000   1.0000   1.0000   1.0000   1.0000   1.0000
     1.0000   1.0000   1.0000   1.0000   1.0000   1.0000   1.0000   1.0000
     1.0000   1.0000   1.0000   1.0000   1.0000   1.0000   1.0000   1.0000
     1.0000   1.0000   1.0000   1.0000   1.0000   1.0000   1.0000   1.0000
     1.0000   1.0000   1.0000   1.0000   1.0000   1.0000   1.0000   1.0000
     1.0000   1.0000   1.0000   1.0000   1.0000   1.0000   1.0000   1.0000
     1.0000   1.0000   1.0000   1.0000   1.0000   1.0000   1.0000   1.0000
     1.0000   1.0000   1.0000   1.0000   1.0000   1.0000   1.0000   1.0000
     1.0000   1.0000   1.0000   1.0000   1.0000   1.0000   1.0000   1.0000
     1.0000   1.0000   1.0000   1.0000   1.0000   1.0000   1.0000   1.0000
     1.0000   1.0000   1.0000   1.0000   1.0000   1.0000   1.0000   1.0000
     1.0000   1.0000   1.0000   1.0000   1.0000   1.0000   1.0000   1.0000
     1.0000   1.0000   1.0000   1.0000   1.0000   1.0000   1.0000   1.0000
     1.0000   1.0000   1.0000   1.0000   1.0000   1.0000   1.0000   1.0000
     1.0000   1.0000   1.0000   1.0000   1.0000   1.0000   1.0000   1.0000
     1.0000   1.0000   1.0000   1.0000   1.0000   1.0000   1.0000   1.0000
     1.0000   1.0000   1.0000   1.0000   1.0000   1.0000   1.0000   1.0000
     1.0000   1.0000   1.0000   1.0000   1.0000   1.0000   1.0000   1.0000
     1.0000   1.0000   1.0000   1.0000   1.0000   1.0000   1.0000   1.0000
     1.0000   1.0000   1.0000   1.0000   1.0000   1.0000   1.0000   1.0000
     1.0000   1.0000   1.0000   1.0000   1.0000   1.0000   1.0000   1.0000
     1.0000   1.0000   1.0000   1.0000   1.0000   1.0000   1.0000   1.0000
     1.0000   1.0000   1.0000   1.0000   1.0000   1.0000   1.0000   1.0000
     1.0000   1.0000   1.0000   1.0000   1.0000   1.0000   1.0000   1.0000
     1.0000   1.0000   1.0000   1.0000   1.0000   1.0000   1.0000   1.0000
     1.0000   1.0000   1.0000   1.0000   1.0000   1.0000   1.0000   1.0000
     1.0000   1.0000   1.0000   1.0000   1.0000   1.0000   1.0000   1.0000
     1.0000   1.0000   1.0000   1.0000   1.0000   1.0000   1.0000   1.0000
     1.0000   1.0000   1.0000   1.0000   1.0000   1.0000   1.0000   1.0000
     1.0000   1.0000   1.0000   1.0000   1.0000   1.0000   1.0000   1.0000
     1.0000   1.0000   1.0000   1.0000   1.0000   1.0000   1.0000   1.0000
     1.0000   1.0000   1.0000   1.0000   1.0000   1.0000   1.0000   1.0000
     1.0000   1.0000   1.0000   1.0000   1.0000   1.0000   1.0000   1.0000
     1.0000   1.0000   1.0000   1.0000   1.0000   1.0000   1.0000   1.0000
     1.0000   1.0000   1.0000   1.0000   1.0000   1.0000   1.0000   1.0000
     1.0000   1.0000   1.0000   1.0000   1.0000   1.0000   1.0000   1.0000
     1.0000   1.0000   1.0000   1.0000   1.0000   1.0000   1.0000   1.0000
     1.0000   1.0000   1.0000   1.0000   1.0000   1.0000   1.0000   1.0000
     1.0000   1.0000   1.0000   1.0000   1.0000   1.0000   1.0000   1.0000
     1.0000   1.0000   1.0000   1.0000   1.0000   1.0000   1.0000   1.0000
     1.0812   1.0812   1.0833   1.0833   0.6566   0.6566   0.5694   0.5693
     0.5692   0.5691   0.0000   0.0000   0.0000   0.0000   0.0000   0.0000
     0.0000   0.0000   0.0000   0.0000   0.0000   0.0000   0.0000   0.0000
     0.0000   0.0000   0.0000   0.0000   0.0000   0.0000   0.0000   0.0000
     0.0000   0.0000   0.0000   0.0000   0.0000   0.0000   0.0000   0.0000
     0.0000   0.0000   0.0000   0.0000   0.0000   0.0000   0.0000   0.0000
     0.0000   0.0000   0.0000   0.0000   0.0000   0.0000   0.0000   0.0000
     0.0000   0.0000   0.0000   0.0000   0.0000   0.0000   0.0000   0.0000
     0.0000   0.0000   0.0000   0.0000   0.0000   0.0000   0.0000   0.0000
     0.0000   0.0000   0.0000   0.0000   0.0000   0.0000   0.0000   0.0000
     0.0000   0.0000   0.0000   0.0000   0.0000   0.0000   0.0000   0.0000
     0.0000   0.0000   0.0000   0.0000   0.0000   0.0000   0.0000   0.0000
     0.0000   0.0000   0.0000   0.0000   0.0000   0.0000   0.0000   0.0000

          k = 0.2500 0.1443 0.0000 (119162 PWs)   bands (ev):

  -125.0714-125.0703-125.0700-125.0699-125.0693-125.0691-125.0688-125.0685
  -125.0683-125.0682-125.0679-125.0678-125.0676-125.0674-125.0671-125.0668
  -124.8673-124.8671-124.8663-124.8661-124.8660-124.8659-124.8657-124.8656
  -124.8652-124.8651-124.8650-124.8649-124.8649-124.8646-124.8644-124.8643
  -124.8641-124.8641-124.8641-124.8641-124.8639-124.8639-124.8638-124.8637
  -124.8636-124.8635-124.8634-124.8633-124.8632-124.8632-124.8630-124.8630
   -79.2369 -79.2368 -79.2362 -79.2322 -79.2322 -79.2314 -79.2313 -79.2294
   -79.2294 -79.2264 -79.2233 -79.2233 -79.2206 -79.2206 -79.2200 -79.2188
   -79.2185 -79.2183 -79.2176 -79.2174 -79.2171 -79.2167 -79.2166 -79.2166
   -79.2166 -79.2164 -79.2163 -79.2162 -79.2161 -79.2160 -79.2158 -79.2156
   -79.2153 -79.2150 -79.2139 -79.2139 -79.2127 -79.2117 -79.2116 -79.2106
   -79.2081 -79.2078 -79.2077 -79.2058 -79.2058 -79.2045 -79.2029 -79.2019
   -79.0294 -79.0294 -79.0292 -79.0292 -79.0288 -79.0286 -79.0249 -79.0249
   -79.0247 -79.0246 -79.0244 -79.0241 -79.0240 -79.0240 -79.0238 -79.0238
   -79.0233 -79.0231 -79.0229 -79.0228 -79.0226 -79.0226 -79.0221 -79.0220
   -79.0220 -79.0220 -79.0219 -79.0218 -79.0218 -79.0218 -79.0217 -79.0215
   -79.0212 -79.0211 -79.0209 -79.0209 -79.0209 -79.0209 -79.0207 -79.0207
   -79.0206 -79.0205 -79.0204 -79.0202 -79.0202 -79.0200 -79.0200 -79.0200
   -79.0197 -79.0197 -79.0191 -79.0189 -79.0160 -79.0160 -79.0157 -79.0157
   -79.0133 -79.0133 -79.0131 -79.0131 -79.0093 -79.0093 -79.0091 -79.0090
   -79.0090 -79.0090 -79.0088 -79.0087 -79.0066 -79.0066 -79.0064 -79.0064
   -79.0054 -79.0052 -79.0044 -79.0044 -79.0042 -79.0042 -79.0033 -79.0031
   -79.0008 -79.0006 -79.0005 -79.0005 -79.0003 -79.0002 -78.9986 -78.9986
   -78.9984 -78.9983 -78.9972 -78.9970 -78.9957 -78.9955 -78.9947 -78.9945
    -8.5026  -7.6192  -7.2996  -7.2473  -7.2473  -7.0291  -6.8979  -6.8717
    -6.8717  -6.8489  -6.8454  -6.8454  -6.7064  -6.6915  -6.6915  -6.6901
    -6.6750  -6.6623  -6.6379  -6.6379  -6.5896  -6.5802  -6.5770  -6.5770
    -6.5675  -6.5675  -6.5480  -6.5480  -6.5280  -6.5280  -6.5184  -6.5184
    -6.5168  -6.5119  -6.5119  -6.5091  -6.5091  -6.5021  -6.5021  -6.4863
    -6.4863  -6.4607  -6.4607  -6.4230  -6.4230  -6.3950  -6.3950  -6.3801
    -6.3801  -6.3759  -6.3220  -6.3173  -6.3173  -6.3155  -6.3155  -6.3153
    -6.3153  -6.2688  -6.2688  -6.2592  -6.2518  -6.2295  -6.2295  -6.2233
    -6.2233  -6.2217  -6.2217  -6.2217  -6.2084  -6.2084  -6.2047  -6.2047
    -6.1957  -6.1957  -6.1840  -6.1840  -6.1799  -6.1783  -6.1783  -6.1544
    -6.1380  -6.1235  -6.1235  -6.1143  -6.1143  -6.1007  -6.1007  -6.0931
    -6.0906  -6.0906  -6.0782  -6.0637  -6.0637  -6.0498  -6.0498  -6.0486
    -6.0486  -5.9591  -5.9591  -5.9590  -5.9590  -5.9438  -5.9411  -5.9373
    -5.9372  -5.9349  -5.9349  -5.9242  -5.9242  -5.9130  -5.9114  -5.9114
    -5.8933  -5.8933  -5.8894  -5.8857  -5.8815  -5.8743  -5.8743  -5.8688
    -5.8463  -5.8463  -5.8394  -5.8394  -5.8253  -5.8114  -5.7957  -5.7957
    -5.7955  -5.7955  -5.7868  -5.7868  -5.7769  -5.7768  -5.7762  -5.7732
    -5.7732  -5.7555  -5.7555  -5.7477  -5.7477  -5.7403  -5.7306  -5.7306
    -5.7145  -5.7131  -5.7131  -5.7053  -5.7053  -5.6977  -5.6977  -5.6953
    -5.6953  -5.6925  -5.6925  -5.6796  -5.6681  -5.6681  -5.6572  -5.6443
    -5.6395  -5.6395  -5.6336  -5.6336  -5.6187  -5.6187  -5.6174  -5.6165
    -5.6165  -5.6127  -5.6116  -5.6057  -5.6057  -5.5799  -5.5643  -5.5610
    -5.5610  -5.5566  -5.5566  -5.5482  -5.5482  -5.5458  -5.5458  -5.5440
    -5.5440  -5.5412  -5.5269  -5.5268  -5.5262  -5.5218  -5.5218  -5.5127
    -5.5127  -5.4916  -5.4916  -5.4629  -5.4607  -5.4582  -5.4582  -5.4544
    -5.4544  -5.4522  -5.4522  -5.4402  -5.4402  -5.4310  -5.4262  -5.4262
    -5.4239  -5.4200  -5.4148  -5.4145  -5.4029  -5.4029  -5.3999  -5.3999
    -5.3889  -5.3872  -5.3872  -5.3809  -5.3688  -5.3688  -5.3648  -5.3596
    -5.3458  -5.3458  -5.3415  -5.3326  -5.3203  -5.3203  -5.3140  -5.3117
    -5.3117  -5.3020  -5.3020  -5.2933  -5.2933  -5.2828  -5.2828  -5.1438
    -5.1438  -5.1297  -5.1297  -5.1242  -5.1242  -5.1059  -5.1052  -4.9472
    -4.9341  -4.6382  -4.6382  -3.8807  -3.8807  -3.4796  -3.3936  -3.3936
    -3.3650  -2.6732  -2.3014  -2.3014  -2.2217  -2.0209  -2.0209  -1.9710
    -1.9710  -1.5144  -1.5144  -1.2919  -1.2919  -1.1165  -0.7947  -0.5727
    -0.5727  -0.5606  -0.5606  -0.5518   0.0239   0.0239   0.2693   0.2693
     0.5601   0.5601   0.6336   0.8766   0.8984   0.8984   1.1836   1.1836
     1.5566   1.5566   2.2264   2.2264   2.6480   2.6963   2.6963   2.7210
     2.7831   2.7831   2.9506   2.9506   3.2230   3.5469   3.6914   3.6914
     3.9092   3.9092   4.1154   4.1851   4.1851   4.5595   4.5595   4.8023
     4.8023   4.8434   4.8434   5.1520   5.1520   5.1606   5.1606   5.2642
     5.4291   5.4291   5.5684   5.6328   5.6432   5.7936   5.7936   5.8093
     6.0943   6.0943   6.1636   6.3131   6.3131   6.4735   6.5527   6.5948
     6.5948   6.6119   6.6119   6.7113   6.7238   7.0106   7.0106   7.0117
     7.0117   7.0869   7.0869   7.1747   7.1747   7.3088   7.3088   7.3979
     7.4480   7.4480   7.4910   7.4910   7.6223   7.6572   7.6572   7.7799
     7.8571   7.8571   7.8975   7.8975   7.9466   7.9466   8.0520   8.0520
     8.0695   8.0695   8.3586   8.3867   8.5106   8.6203   8.6993   8.7899
     8.7899   8.8083   8.8083   8.8291   8.8291   8.8362   8.8362   8.9082

     occupation numbers 
     1.0000   1.0000   1.0000   1.0000   1.0000   1.0000   1.0000   1.0000
     1.0000   1.0000   1.0000   1.0000   1.0000   1.0000   1.0000   1.0000
     1.0000   1.0000   1.0000   1.0000   1.0000   1.0000   1.0000   1.0000
     1.0000   1.0000   1.0000   1.0000   1.0000   1.0000   1.0000   1.0000
     1.0000   1.0000   1.0000   1.0000   1.0000   1.0000   1.0000   1.0000
     1.0000   1.0000   1.0000   1.0000   1.0000   1.0000   1.0000   1.0000
     1.0000   1.0000   1.0000   1.0000   1.0000   1.0000   1.0000   1.0000
     1.0000   1.0000   1.0000   1.0000   1.0000   1.0000   1.0000   1.0000
     1.0000   1.0000   1.0000   1.0000   1.0000   1.0000   1.0000   1.0000
     1.0000   1.0000   1.0000   1.0000   1.0000   1.0000   1.0000   1.0000
     1.0000   1.0000   1.0000   1.0000   1.0000   1.0000   1.0000   1.0000
     1.0000   1.0000   1.0000   1.0000   1.0000   1.0000   1.0000   1.0000
     1.0000   1.0000   1.0000   1.0000   1.0000   1.0000   1.0000   1.0000
     1.0000   1.0000   1.0000   1.0000   1.0000   1.0000   1.0000   1.0000
     1.0000   1.0000   1.0000   1.0000   1.0000   1.0000   1.0000   1.0000
     1.0000   1.0000   1.0000   1.0000   1.0000   1.0000   1.0000   1.0000
     1.0000   1.0000   1.0000   1.0000   1.0000   1.0000   1.0000   1.0000
     1.0000   1.0000   1.0000   1.0000   1.0000   1.0000   1.0000   1.0000
     1.0000   1.0000   1.0000   1.0000   1.0000   1.0000   1.0000   1.0000
     1.0000   1.0000   1.0000   1.0000   1.0000   1.0000   1.0000   1.0000
     1.0000   1.0000   1.0000   1.0000   1.0000   1.0000   1.0000   1.0000
     1.0000   1.0000   1.0000   1.0000   1.0000   1.0000   1.0000   1.0000
     1.0000   1.0000   1.0000   1.0000   1.0000   1.0000   1.0000   1.0000
     1.0000   1.0000   1.0000   1.0000   1.0000   1.0000   1.0000   1.0000
     1.0000   1.0000   1.0000   1.0000   1.0000   1.0000   1.0000   1.0000
     1.0000   1.0000   1.0000   1.0000   1.0000   1.0000   1.0000   1.0000
     1.0000   1.0000   1.0000   1.0000   1.0000   1.0000   1.0000   1.0000
     1.0000   1.0000   1.0000   1.0000   1.0000   1.0000   1.0000   1.0000
     1.0000   1.0000   1.0000   1.0000   1.0000   1.0000   1.0000   1.0000
     1.0000   1.0000   1.0000   1.0000   1.0000   1.0000   1.0000   1.0000
     1.0000   1.0000   1.0000   1.0000   1.0000   1.0000   1.0000   1.0000
     1.0000   1.0000   1.0000   1.0000   1.0000   1.0000   1.0000   1.0000
     1.0000   1.0000   1.0000   1.0000   1.0000   1.0000   1.0000   1.0000
     1.0000   1.0000   1.0000   1.0000   1.0000   1.0000   1.0000   1.0000
     1.0000   1.0000   1.0000   1.0000   1.0000   1.0000   1.0000   1.0000
     1.0000   1.0000   1.0000   1.0000   1.0000   1.0000   1.0000   1.0000
     1.0000   1.0000   1.0000   1.0000   1.0000   1.0000   1.0000   1.0000
     1.0000   1.0000   1.0000   1.0000   1.0000   1.0000   1.0000   1.0000
     1.0000   1.0000   1.0000   1.0000   1.0000   1.0000   1.0000   1.0000
     1.0000   1.0000   1.0000   1.0000   1.0000   1.0000   1.0000   1.0000
     1.0000   1.0000   1.0000   1.0000   1.0000   1.0000   1.0000   1.0000
     1.0000   1.0000   1.0000   1.0000   1.0000   1.0000   1.0000   1.0000
     1.0000   1.0000   1.0000   1.0000   1.0000   1.0000   1.0000   1.0000
     1.0000   1.0000   1.0000   1.0000   1.0000   1.0000   1.0000   1.0000
     1.0000   1.0000   1.0000   1.0000   1.0000   1.0000   1.0000   1.0000
     1.0000   1.0000   1.0000   1.0000   1.0000   1.0000   1.0000   1.0000
     1.0000   1.0000   1.0000   1.0000   1.0000   1.0000   1.0000   1.0000
     1.0000   1.0000   1.0000   1.0000   1.0000   1.0000   1.0000   1.0000
     1.0000   1.0000   1.0000   1.0000   1.0000   1.0000   1.0000   1.0000
     1.0000   1.0000   1.0000   1.0000   1.0000   1.0000   1.0000   1.0000
     1.0000   1.0000   1.0000   1.0000   1.0000   1.0000   1.0000   1.0000
     1.0000   1.0000   1.0000   1.0000   1.0000   1.0000   1.0000   1.0000
     1.0000   1.0000   1.0000   1.0000   1.0000   1.0000   1.0000   1.0000
     1.0000   1.0000   1.0000   1.0000   1.0000   1.0000   1.0000   1.0000
     1.0000   1.0000   1.0000   1.0000   1.0000   1.0000   1.0000   1.0000
     1.0000   1.0000   1.0000   1.0000   1.0000   1.0000   1.0000   1.0000
     1.0000   1.0000   1.0000   1.0000   1.0000   1.0000   1.0000   1.0000
     1.0000   1.0000   1.0000   1.0000   1.0000   1.0000   1.0000   1.0000
     1.0000   1.0000   1.0000   1.0000   1.0000   1.0000   1.0000   1.0000
     1.0006   1.0006   1.0019   1.0373   1.0444   1.0444   0.9984   0.9984
     0.1540   0.1540   0.0000   0.0000   0.0000   0.0000   0.0000   0.0000
     0.0000   0.0000   0.0000   0.0000   0.0000   0.0000   0.0000   0.0000
     0.0000   0.0000   0.0000   0.0000   0.0000   0.0000   0.0000   0.0000
     0.0000   0.0000   0.0000   0.0000   0.0000   0.0000   0.0000   0.0000
     0.0000   0.0000   0.0000   0.0000   0.0000   0.0000   0.0000   0.0000
     0.0000   0.0000   0.0000   0.0000   0.0000   0.0000   0.0000   0.0000
     0.0000   0.0000   0.0000   0.0000   0.0000   0.0000   0.0000   0.0000
     0.0000   0.0000   0.0000   0.0000   0.0000   0.0000   0.0000   0.0000
     0.0000   0.0000   0.0000   0.0000   0.0000   0.0000   0.0000   0.0000
     0.0000   0.0000   0.0000   0.0000   0.0000   0.0000   0.0000   0.0000
     0.0000   0.0000   0.0000   0.0000   0.0000   0.0000   0.0000   0.0000
     0.0000   0.0000   0.0000   0.0000   0.0000   0.0000   0.0000   0.0000

          k = 0.2500 0.4330 0.0000 (119084 PWs)   bands (ev):

  -125.0712-125.0707-125.0703-125.0695-125.0693-125.0689-125.0687-125.0686
  -125.0684-125.0681-125.0679-125.0679-125.0676-125.0674-125.0670-125.0668
  -124.8671-124.8669-124.8666-124.8664-124.8663-124.8661-124.8654-124.8653
  -124.8652-124.8651-124.8649-124.8647-124.8646-124.8645-124.8645-124.8644
  -124.8643-124.8642-124.8641-124.8641-124.8640-124.8639-124.8638-124.8637
  -124.8637-124.8635-124.8635-124.8633-124.8632-124.8632-124.8629-124.8629
   -79.2359 -79.2344 -79.2343 -79.2337 -79.2335 -79.2317 -79.2313 -79.2297
   -79.2294 -79.2288 -79.2255 -79.2247 -79.2211 -79.2210 -79.2198 -79.2192
   -79.2188 -79.2179 -79.2177 -79.2176 -79.2175 -79.2172 -79.2170 -79.2168
   -79.2166 -79.2164 -79.2162 -79.2161 -79.2158 -79.2156 -79.2152 -79.2150
   -79.2143 -79.2126 -79.2122 -79.2113 -79.2110 -79.2108 -79.2104 -79.2103
   -79.2097 -79.2094 -79.2081 -79.2081 -79.2056 -79.2041 -79.2040 -79.2026
   -79.0285 -79.0283 -79.0270 -79.0269 -79.0267 -79.0267 -79.0264 -79.0262
   -79.0262 -79.0260 -79.0243 -79.0241 -79.0241 -79.0241 -79.0239 -79.0238
   -79.0236 -79.0234 -79.0233 -79.0231 -79.0223 -79.0223 -79.0222 -79.0221
   -79.0221 -79.0221 -79.0220 -79.0219 -79.0217 -79.0216 -79.0215 -79.0215
   -79.0214 -79.0213 -79.0213 -79.0212 -79.0211 -79.0210 -79.0209 -79.0209
   -79.0208 -79.0207 -79.0206 -79.0205 -79.0204 -79.0203 -79.0202 -79.0201
   -79.0200 -79.0199 -79.0197 -79.0197 -79.0182 -79.0180 -79.0174 -79.0172
   -79.0137 -79.0137 -79.0135 -79.0135 -79.0103 -79.0102 -79.0101 -79.0100
   -79.0069 -79.0067 -79.0053 -79.0051 -79.0050 -79.0047 -79.0039 -79.0037
   -79.0037 -79.0035 -79.0035 -79.0033 -79.0031 -79.0030 -79.0029 -79.0028
   -79.0024 -79.0022 -79.0022 -79.0020 -79.0009 -79.0008 -79.0006 -79.0006
   -78.9983 -78.9981 -78.9968 -78.9968 -78.9966 -78.9965 -78.9954 -78.9952
    -8.2689  -7.8222  -7.8219  -7.1112  -6.9141  -6.8395  -6.8395  -6.8028
    -6.8028  -6.7967  -6.7966  -6.7925  -6.7922  -6.7684  -6.7277  -6.7274
    -6.6982  -6.6978  -6.6549  -6.6549  -6.6231  -6.6089  -6.6089  -6.6043
    -6.6041  -6.5879  -6.5877  -6.5677  -6.5676  -6.5599  -6.5595  -6.5436
    -6.5342  -6.5340  -6.4918  -6.4915  -6.4719  -6.4719  -6.4687  -6.4618
    -6.4618  -6.4401  -6.4398  -6.4173  -6.4121  -6.4121  -6.4119  -6.4117
    -6.4030  -6.4029  -6.3923  -6.3699  -6.3696  -6.3125  -6.3019  -6.3018
    -6.2972  -6.2972  -6.2920  -6.2920  -6.2915  -6.2785  -6.2671  -6.2633
    -6.2631  -6.2548  -6.2492  -6.2489  -6.2438  -6.2437  -6.2420  -6.2224
    -6.2224  -6.2020  -6.2019  -6.1778  -6.1777  -6.1658  -6.1473  -6.1454
    -6.1415  -6.1415  -6.1181  -6.1180  -6.1082  -6.1082  -6.0947  -6.0889
    -6.0563  -6.0563  -6.0468  -6.0466  -6.0423  -6.0331  -6.0201  -6.0201
    -5.9974  -5.9920  -5.9918  -5.9890  -5.9802  -5.9802  -5.9728  -5.9728
    -5.9702  -5.9702  -5.9574  -5.9490  -5.9421  -5.9156  -5.9155  -5.9078
    -5.9076  -5.9065  -5.8990  -5.8913  -5.8913  -5.8863  -5.8862  -5.8777
    -5.8775  -5.8536  -5.8536  -5.8466  -5.8465  -5.8340  -5.8337  -5.8332
    -5.8326  -5.8290  -5.8290  -5.8086  -5.7971  -5.7969  -5.7937  -5.7727
    -5.7632  -5.7632  -5.7559  -5.7525  -5.7525  -5.7501  -5.7134  -5.7134
    -5.6942  -5.6942  -5.6918  -5.6916  -5.6577  -5.6545  -5.6545  -5.6536
    -5.6535  -5.6470  -5.6328  -5.6312  -5.6310  -5.6242  -5.6240  -5.5931
    -5.5929  -5.5927  -5.5925  -5.5924  -5.5831  -5.5829  -5.5813  -5.5812
    -5.5791  -5.5789  -5.5748  -5.5746  -5.5668  -5.5668  -5.5497  -5.5495
    -5.5490  -5.5490  -5.5452  -5.5406  -5.5369  -5.5369  -5.5153  -5.5153
    -5.5126  -5.5101  -5.5099  -5.5077  -5.5034  -5.4844  -5.4841  -5.4825
    -5.4798  -5.4795  -5.4666  -5.4619  -5.4619  -5.4602  -5.4600  -5.4583
    -5.4580  -5.4561  -5.4561  -5.4436  -5.4436  -5.4411  -5.4411  -5.4341
    -5.4339  -5.4313  -5.4185  -5.4184  -5.4104  -5.4101  -5.4101  -5.3992
    -5.3957  -5.3870  -5.3869  -5.3751  -5.3748  -5.3748  -5.3693  -5.3679
    -5.3654  -5.3652  -5.3356  -5.3282  -5.3281  -5.3086  -5.3084  -5.2822
    -5.2764  -5.2761  -5.2732  -5.2731  -5.2723  -5.2722  -5.2571  -5.2289
    -5.1873  -5.1873  -5.1833  -5.1833  -5.1442  -5.1442  -5.0649  -5.0647
    -4.4562  -4.2330  -4.2327  -4.0436  -4.0436  -3.2448  -3.2448  -3.1953
    -3.1445  -2.8770  -2.8770  -2.8495  -2.8492  -2.7802  -2.7799  -1.7957
    -1.7956  -1.7011  -1.7011  -1.4130  -1.4130  -0.8445  -0.4755  -0.4752
    -0.4120  -0.4120  -0.3231  -0.2411   0.2948   0.3501   0.3504   0.4238
     0.4238   0.7000   0.7000   0.7890   0.9702   0.9702   1.0868   1.4156
     1.4159   1.9759   1.9759   2.5309   2.5526   2.8206   2.9856   3.0906
     3.3264   3.3264   3.3644   3.3646   3.4465   3.4467   3.4467   3.5753
     3.5753   3.6675   3.8932   3.8935   4.3747   4.3747   4.3914   4.4255
     4.4436   4.4436   4.5671   4.5671   4.8798   4.9333   5.1391   5.1391
     5.2233   5.2233   5.4445   5.4447   5.4523   5.4523   5.4893   5.8630
     5.9392   5.9392   6.0933   6.1240   6.1241   6.3230   6.3231   6.5448
     6.5450   6.6440   6.6461   6.6461   6.7053   6.9488   6.9521   6.9994
     6.9994   7.0024   7.0438   7.0439   7.1638   7.1638   7.1676   7.1676
     7.2237   7.2238   7.2819   7.2819   7.3983   7.3983   7.6988   7.6988
     8.1561   8.2180   8.2180   8.3619   8.5389   8.5395   8.5395   8.5811
     8.5855   8.5856   8.6577   8.6784   8.6784   8.6959   8.6960   8.7352
     8.7352   8.7410   8.7760   8.8435   9.0375   9.0375   9.2007   9.3373

     occupation numbers 
     1.0000   1.0000   1.0000   1.0000   1.0000   1.0000   1.0000   1.0000
     1.0000   1.0000   1.0000   1.0000   1.0000   1.0000   1.0000   1.0000
     1.0000   1.0000   1.0000   1.0000   1.0000   1.0000   1.0000   1.0000
     1.0000   1.0000   1.0000   1.0000   1.0000   1.0000   1.0000   1.0000
     1.0000   1.0000   1.0000   1.0000   1.0000   1.0000   1.0000   1.0000
     1.0000   1.0000   1.0000   1.0000   1.0000   1.0000   1.0000   1.0000
     1.0000   1.0000   1.0000   1.0000   1.0000   1.0000   1.0000   1.0000
     1.0000   1.0000   1.0000   1.0000   1.0000   1.0000   1.0000   1.0000
     1.0000   1.0000   1.0000   1.0000   1.0000   1.0000   1.0000   1.0000
     1.0000   1.0000   1.0000   1.0000   1.0000   1.0000   1.0000   1.0000
     1.0000   1.0000   1.0000   1.0000   1.0000   1.0000   1.0000   1.0000
     1.0000   1.0000   1.0000   1.0000   1.0000   1.0000   1.0000   1.0000
     1.0000   1.0000   1.0000   1.0000   1.0000   1.0000   1.0000   1.0000
     1.0000   1.0000   1.0000   1.0000   1.0000   1.0000   1.0000   1.0000
     1.0000   1.0000   1.0000   1.0000   1.0000   1.0000   1.0000   1.0000
     1.0000   1.0000   1.0000   1.0000   1.0000   1.0000   1.0000   1.0000
     1.0000   1.0000   1.0000   1.0000   1.0000   1.0000   1.0000   1.0000
     1.0000   1.0000   1.0000   1.0000   1.0000   1.0000   1.0000   1.0000
     1.0000   1.0000   1.0000   1.0000   1.0000   1.0000   1.0000   1.0000
     1.0000   1.0000   1.0000   1.0000   1.0000   1.0000   1.0000   1.0000
     1.0000   1.0000   1.0000   1.0000   1.0000   1.0000   1.0000   1.0000
     1.0000   1.0000   1.0000   1.0000   1.0000   1.0000   1.0000   1.0000
     1.0000   1.0000   1.0000   1.0000   1.0000   1.0000   1.0000   1.0000
     1.0000   1.0000   1.0000   1.0000   1.0000   1.0000   1.0000   1.0000
     1.0000   1.0000   1.0000   1.0000   1.0000   1.0000   1.0000   1.0000
     1.0000   1.0000   1.0000   1.0000   1.0000   1.0000   1.0000   1.0000
     1.0000   1.0000   1.0000   1.0000   1.0000   1.0000   1.0000   1.0000
     1.0000   1.0000   1.0000   1.0000   1.0000   1.0000   1.0000   1.0000
     1.0000   1.0000   1.0000   1.0000   1.0000   1.0000   1.0000   1.0000
     1.0000   1.0000   1.0000   1.0000   1.0000   1.0000   1.0000   1.0000
     1.0000   1.0000   1.0000   1.0000   1.0000   1.0000   1.0000   1.0000
     1.0000   1.0000   1.0000   1.0000   1.0000   1.0000   1.0000   1.0000
     1.0000   1.0000   1.0000   1.0000   1.0000   1.0000   1.0000   1.0000
     1.0000   1.0000   1.0000   1.0000   1.0000   1.0000   1.0000   1.0000
     1.0000   1.0000   1.0000   1.0000   1.0000   1.0000   1.0000   1.0000
     1.0000   1.0000   1.0000   1.0000   1.0000   1.0000   1.0000   1.0000
     1.0000   1.0000   1.0000   1.0000   1.0000   1.0000   1.0000   1.0000
     1.0000   1.0000   1.0000   1.0000   1.0000   1.0000   1.0000   1.0000
     1.0000   1.0000   1.0000   1.0000   1.0000   1.0000   1.0000   1.0000
     1.0000   1.0000   1.0000   1.0000   1.0000   1.0000   1.0000   1.0000
     1.0000   1.0000   1.0000   1.0000   1.0000   1.0000   1.0000   1.0000
     1.0000   1.0000   1.0000   1.0000   1.0000   1.0000   1.0000   1.0000
     1.0000   1.0000   1.0000   1.0000   1.0000   1.0000   1.0000   1.0000
     1.0000   1.0000   1.0000   1.0000   1.0000   1.0000   1.0000   1.0000
     1.0000   1.0000   1.0000   1.0000   1.0000   1.0000   1.0000   1.0000
     1.0000   1.0000   1.0000   1.0000   1.0000   1.0000   1.0000   1.0000
     1.0000   1.0000   1.0000   1.0000   1.0000   1.0000   1.0000   1.0000
     1.0000   1.0000   1.0000   1.0000   1.0000   1.0000   1.0000   1.0000
     1.0000   1.0000   1.0000   1.0000   1.0000   1.0000   1.0000   1.0000
     1.0000   1.0000   1.0000   1.0000   1.0000   1.0000   1.0000   1.0000
     1.0000   1.0000   1.0000   1.0000   1.0000   1.0000   1.0000   1.0000
     1.0000   1.0000   1.0000   1.0000   1.0000   1.0000   1.0000   1.0000
     1.0000   1.0000   1.0000   1.0000   1.0000   1.0000   1.0000   1.0000
     1.0000   1.0000   1.0000   1.0000   1.0000   1.0000   1.0000   1.0000
     1.0000   1.0000   1.0000   1.0000   1.0000   1.0000   1.0000   1.0000
     1.0000   1.0000   1.0000   1.0000   1.0000   1.0000   1.0000   1.0000
     1.0000   1.0000   1.0000   1.0000   1.0000   1.0000   1.0000   1.0000
     1.0000   1.0000   1.0000   1.0000   1.0000   1.0000   1.0000   1.0000
     1.0000   1.0000   1.0000   1.0000   1.0000   1.0000   1.0000   1.0000
     1.0000   1.0052   1.0052   1.0159   1.0686   1.0686   1.0778   0.4457
     0.4449   0.0003   0.0003   0.0000   0.0000   0.0000   0.0000   0.0000
     0.0000   0.0000   0.0000   0.0000   0.0000   0.0000   0.0000   0.0000
     0.0000   0.0000   0.0000   0.0000   0.0000   0.0000   0.0000   0.0000
     0.0000   0.0000   0.0000   0.0000   0.0000   0.0000   0.0000   0.0000
     0.0000   0.0000   0.0000   0.0000   0.0000   0.0000   0.0000   0.0000
     0.0000   0.0000   0.0000   0.0000   0.0000   0.0000   0.0000   0.0000
     0.0000   0.0000   0.0000   0.0000   0.0000   0.0000   0.0000   0.0000
     0.0000   0.0000   0.0000   0.0000   0.0000   0.0000   0.0000   0.0000
     0.0000   0.0000   0.0000   0.0000   0.0000   0.0000   0.0000   0.0000
     0.0000   0.0000   0.0000   0.0000   0.0000   0.0000   0.0000   0.0000
     0.0000   0.0000   0.0000   0.0000   0.0000   0.0000   0.0000   0.0000
     0.0000   0.0000   0.0000   0.0000   0.0000   0.0000   0.0000   0.0000

          k = 0.2500-0.4330 0.0000 (119084 PWs)   bands (ev):

  -125.0712-125.0708-125.0702-125.0694-125.0693-125.0691-125.0689-125.0685
  -125.0683-125.0681-125.0680-125.0679-125.0676-125.0675-125.0670-125.0668
  -124.8671-124.8669-124.8667-124.8665-124.8663-124.8661-124.8654-124.8653
  -124.8652-124.8651-124.8649-124.8648-124.8647-124.8645-124.8644-124.8644
  -124.8642-124.8642-124.8641-124.8640-124.8640-124.8639-124.8638-124.8637
  -124.8637-124.8635-124.8635-124.8633-124.8632-124.8631-124.8629-124.8629
   -79.2359 -79.2343 -79.2343 -79.2338 -79.2336 -79.2319 -79.2312 -79.2297
   -79.2293 -79.2289 -79.2255 -79.2247 -79.2211 -79.2210 -79.2197 -79.2193
   -79.2187 -79.2178 -79.2177 -79.2176 -79.2175 -79.2174 -79.2171 -79.2167
   -79.2166 -79.2163 -79.2162 -79.2161 -79.2158 -79.2157 -79.2152 -79.2150
   -79.2142 -79.2128 -79.2121 -79.2114 -79.2110 -79.2106 -79.2104 -79.2103
   -79.2098 -79.2093 -79.2082 -79.2081 -79.2055 -79.2041 -79.2040 -79.2026
   -79.0285 -79.0283 -79.0269 -79.0269 -79.0267 -79.0267 -79.0264 -79.0263
   -79.0262 -79.0260 -79.0244 -79.0242 -79.0241 -79.0240 -79.0238 -79.0238
   -79.0237 -79.0235 -79.0232 -79.0230 -79.0223 -79.0223 -79.0222 -79.0221
   -79.0221 -79.0220 -79.0220 -79.0218 -79.0218 -79.0217 -79.0216 -79.0215
   -79.0214 -79.0214 -79.0212 -79.0212 -79.0210 -79.0210 -79.0210 -79.0208
   -79.0208 -79.0207 -79.0206 -79.0205 -79.0205 -79.0203 -79.0203 -79.0201
   -79.0200 -79.0199 -79.0197 -79.0197 -79.0182 -79.0180 -79.0174 -79.0172
   -79.0137 -79.0137 -79.0135 -79.0135 -79.0104 -79.0102 -79.0102 -79.0100
   -79.0069 -79.0067 -79.0054 -79.0051 -79.0049 -79.0047 -79.0040 -79.0038
   -79.0037 -79.0035 -79.0034 -79.0032 -79.0031 -79.0030 -79.0029 -79.0028
   -79.0025 -79.0022 -79.0021 -79.0019 -79.0009 -79.0008 -79.0007 -79.0006
   -78.9983 -78.9981 -78.9968 -78.9967 -78.9966 -78.9965 -78.9954 -78.9952
    -8.2689  -7.8223  -7.8218  -7.1112  -6.9141  -6.8395  -6.8395  -6.8028
    -6.8028  -6.7967  -6.7965  -6.7925  -6.7922  -6.7684  -6.7278  -6.7273
    -6.6984  -6.6977  -6.6549  -6.6549  -6.6231  -6.6089  -6.6089  -6.6043
[...]
     1.0000   1.0000   1.0000   1.0000   1.0000   1.0000   1.0000   1.0000
     1.0000   1.0000   1.0000   1.0000   1.0000   1.0000   1.0000   1.0000
     1.0000   1.0000   1.0000   1.0000   1.0000   1.0000   1.0000   1.0000
     1.0000   1.0000   1.0000   1.0000   1.0000   1.0000   1.0000   1.0000
     1.0000   1.0000   1.0000   1.0000   1.0000   1.0000   1.0000   1.0000
     1.0000   1.0000   1.0000   1.0000   1.0000   1.0000   1.0000   1.0000
     1.0000   1.0000   1.0000   1.0000   1.0000   1.0000   1.0000   1.0000
     1.0000   1.0000   1.0000   1.0000   1.0000   1.0000   1.0000   1.0000
     1.0000   1.0000   1.0000   1.0000   1.0000   1.0000   1.0000   1.0000
     1.0000   1.0000   1.0000   1.0000   1.0000   1.0000   1.0000   1.0000
     1.0000   1.0000   1.0000   1.0000   1.0000   1.0000   1.0000   1.0000
     1.0000   1.0000   1.0000   1.0000   1.0000   1.0000   1.0000   1.0000
     1.0000   1.0000   1.0000   1.0000   1.0000   1.0000   1.0000   1.0000
     1.0000   1.0000   1.0000   1.0000   1.0000   1.0000   1.0000   1.0000
     1.0000   1.0000   1.0000   1.0000   1.0000   1.0000   1.0000   1.0000
     1.0000   1.0000   1.0000   1.0000   1.0000   1.0000   1.0000   1.0000
     1.0000   1.0000   1.0000   1.0000   1.0000   1.0000   1.0000   1.0000
     1.0000   1.0000   1.0000   1.0000   1.0000   1.0000   1.0000   1.0000
     1.0000   1.0000   1.0000   1.0000   1.0000   1.0000   1.0000   1.0000
     1.0000   1.0000   1.0000   1.0000   1.0000   1.0000   1.0000   1.0000
     1.0000   1.0000   1.0000   1.0000   1.0000   1.0000   1.0000   1.0000
     1.0000   1.0000   1.0000   1.0000   1.0000   1.0000   1.0000   1.0000
     1.0000   1.0000   1.0000   1.0000   1.0000   1.0000   1.0000   1.0000
     1.0000   1.0000   1.0000   1.0000   1.0000   1.0000   1.0000   1.0000
     1.0000   1.0000   1.0000   1.0000   1.0000   1.0000   1.0000   1.0000
     1.0000   1.0000   1.0000   1.0000   1.0000   1.0000   1.0000   1.0000
     1.0000   1.0000   1.0000   1.0000   1.0000   1.0000   1.0000   1.0000
     1.0000   1.0000   1.0000   1.0000   1.0000   1.0000   1.0000   1.0000
     1.0000   1.0000   1.0000   1.0000   1.0000   1.0000   1.0000   1.0000
     1.0000   1.0000   1.0000   1.0000   1.0000   1.0000   1.0000   1.0000
     1.0000   1.0000   1.0000   1.0000   1.0000   1.0000   1.0000   1.0000
     1.0000   1.0000   1.0000   1.0000   1.0000   1.0000   1.0000   1.0000
     1.0000   1.0000   1.0000   1.0000   1.0000   1.0000   1.0000   1.0000
     1.0000   1.0000   1.0000   1.0000   1.0000   1.0000   1.0000   1.0000
     1.0000   1.0000   1.0000   1.0000   1.0000   1.0000   1.0000   1.0000
     1.0000   1.0000   1.0000   1.0000   1.0000   1.0000   1.0000   1.0000
     1.0000   1.0000   1.0000   1.0000   1.0000   1.0000   1.0000   1.0000
     1.0000   1.0000   1.0000   1.0000   1.0000   1.0000   1.0000   1.0000
     1.0000   1.0000   1.0000   1.0000   1.0000   1.0000   1.0000   1.0000
     1.0000   1.0000   1.0000   1.0000   1.0000   1.0000   1.0000   1.0000
     1.0000   1.0052   1.0052   1.0159   1.0686   1.0686   1.0778   0.4455
     0.4452   0.0003   0.0003   0.0000   0.0000   0.0000   0.0000   0.0000
     0.0000   0.0000   0.0000   0.0000   0.0000   0.0000   0.0000   0.0000
     0.0000   0.0000   0.0000   0.0000   0.0000   0.0000   0.0000   0.0000
     0.0000   0.0000   0.0000   0.0000   0.0000   0.0000   0.0000   0.0000
     0.0000   0.0000   0.0000   0.0000   0.0000   0.0000   0.0000   0.0000
     0.0000   0.0000   0.0000   0.0000   0.0000   0.0000   0.0000   0.0000
     0.0000   0.0000   0.0000   0.0000   0.0000   0.0000   0.0000   0.0000
     0.0000   0.0000   0.0000   0.0000   0.0000   0.0000   0.0000   0.0000
     0.0000   0.0000   0.0000   0.0000   0.0000   0.0000   0.0000   0.0000
     0.0000   0.0000   0.0000   0.0000   0.0000   0.0000   0.0000   0.0000
     0.0000   0.0000   0.0000   0.0000   0.0000   0.0000   0.0000   0.0000
     0.0000   0.0000   0.0000   0.0000   0.0000   0.0000   0.0000   0.0000

          k =-0.5000-0.8660 0.0000 (119074 PWs)   bands (ev):

  -125.0712-125.0708-125.0700-125.0699-125.0691-125.0689-125.0688-125.0687
  -125.0683-125.0682-125.0680-125.0678-125.0676-125.0674-125.0670-125.0668
  -124.8671-124.8669-124.8668-124.8666-124.8660-124.8659-124.8658-124.8657
  -124.8649-124.8648-124.8647-124.8647-124.8647-124.8646-124.8645-124.8645
  -124.8644-124.8643-124.8641-124.8640-124.8639-124.8639-124.8638-124.8637
  -124.8637-124.8635-124.8635-124.8633-124.8632-124.8632-124.8629-124.8629
   -79.2351 -79.2348 -79.2347 -79.2344 -79.2326 -79.2322 -79.2312 -79.2311
   -79.2267 -79.2267 -79.2267 -79.2267 -79.2219 -79.2219 -79.2197 -79.2194
   -79.2184 -79.2183 -79.2174 -79.2172 -79.2171 -79.2170 -79.2165 -79.2164
   -79.2163 -79.2160 -79.2158 -79.2156 -79.2153 -79.2153 -79.2152 -79.2150
   -79.2141 -79.2138 -79.2137 -79.2134 -79.2105 -79.2105 -79.2104 -79.2104
   -79.2097 -79.2093 -79.2071 -79.2068 -79.2058 -79.2057 -79.2032 -79.2027
   -79.0276 -79.0276 -79.0274 -79.0274 -79.0273 -79.0272 -79.0270 -79.0270
   -79.0251 -79.0249 -79.0249 -79.0246 -79.0241 -79.0239 -79.0239 -79.0238
   -79.0238 -79.0237 -79.0236 -79.0235 -79.0229 -79.0229 -79.0227 -79.0226
   -79.0217 -79.0217 -79.0216 -79.0215 -79.0215 -79.0214 -79.0214 -79.0213
   -79.0212 -79.0211 -79.0210 -79.0208 -79.0207 -79.0207 -79.0205 -79.0205
   -79.0205 -79.0203 -79.0202 -79.0201 -79.0200 -79.0199 -79.0197 -79.0197
   -79.0194 -79.0194 -79.0194 -79.0194 -79.0192 -79.0192 -79.0192 -79.0192
   -79.0146 -79.0146 -79.0144 -79.0143 -79.0080 -79.0080 -79.0078 -79.0078
   -79.0067 -79.0066 -79.0065 -79.0064 -79.0063 -79.0062 -79.0061 -79.0060
   -79.0032 -79.0032 -79.0032 -79.0031 -79.0030 -79.0030 -79.0029 -79.0029
   -79.0024 -79.0022 -79.0021 -79.0019 -78.9998 -78.9996 -78.9995 -78.9993
   -78.9986 -78.9985 -78.9984 -78.9983 -78.9959 -78.9957 -78.9956 -78.9953
    -8.1549  -8.1545  -7.3159  -7.3159  -7.0253  -7.0250  -6.8639  -6.8636
    -6.8595  -6.8591  -6.7496  -6.7494  -6.7492  -6.7490  -6.6535  -6.6532
    -6.6466  -6.6466  -6.6466  -6.6466  -6.6245  -6.6242  -6.6071  -6.6069
    -6.6067  -6.6065  -6.5535  -6.5535  -6.5288  -6.5287  -6.5285  -6.5283
    -6.5057  -6.5057  -6.4873  -6.4873  -6.4873  -6.4873  -6.4629  -6.4629
    -6.4629  -6.4629  -6.4608  -6.4605  -6.4496  -6.4496  -6.4260  -6.4260
    -6.4219  -6.4219  -6.4215  -6.4215  -6.3101  -6.3101  -6.3013  -6.3013
    -6.2930  -6.2930  -6.2930  -6.2930  -6.2918  -6.2915  -6.2710  -6.2708
    -6.2706  -6.2705  -6.2364  -6.2362  -6.2211  -6.2211  -6.2211  -6.2211
    -6.2061  -6.2061  -6.2011  -6.2011  -6.1703  -6.1700  -6.1421  -6.1421
    -6.1117  -6.1117  -6.1033  -6.1033  -6.0828  -6.0828  -6.0826  -6.0825
    -6.0617  -6.0617  -6.0617  -6.0617  -6.0420  -6.0420  -6.0324  -6.0324
    -6.0261  -6.0259  -6.0226  -6.0223  -6.0094  -6.0090  -5.9901  -5.9901
    -5.9901  -5.9901  -5.9469  -5.9469  -5.9460  -5.9457  -5.9154  -5.9153
    -5.9057  -5.9057  -5.8723  -5.8722  -5.8720  -5.8719  -5.8153  -5.8149
    -5.8096  -5.8096  -5.8088  -5.8088  -5.8088  -5.8088  -5.8056  -5.8052
    -5.7875  -5.7875  -5.7852  -5.7849  -5.7761  -5.7761  -5.7759  -5.7759
    -5.7684  -5.7681  -5.7676  -5.7676  -5.7676  -5.7676  -5.7559  -5.7559
    -5.7541  -5.7541  -5.7541  -5.7541  -5.6755  -5.6755  -5.6741  -5.6741
    -5.6674  -5.6674  -5.6458  -5.6458  -5.6458  -5.6458  -5.6316  -5.6312
    -5.6241  -5.6241  -5.6051  -5.6050  -5.6048  -5.6047  -5.5947  -5.5947
    -5.5709  -5.5706  -5.5440  -5.5436  -5.5294  -5.5293  -5.5292  -5.5291
    -5.5268  -5.5268  -5.5268  -5.5268  -5.5235  -5.5234  -5.5215  -5.5212
    -5.4997  -5.4996  -5.4993  -5.4993  -5.4896  -5.4893  -5.4890  -5.4887
    -5.4871  -5.4871  -5.4793  -5.4793  -5.4646  -5.4645  -5.4645  -5.4645
    -5.4519  -5.4519  -5.4516  -5.4515  -5.4403  -5.4403  -5.4234  -5.4231
    -5.4160  -5.4159  -5.4158  -5.4157  -5.4130  -5.4130  -5.4121  -5.4121
    -5.4057  -5.4057  -5.4033  -5.4030  -5.4006  -5.4002  -5.3712  -5.3709
    -5.3630  -5.3630  -5.3630  -5.3630  -5.3246  -5.3246  -5.3246  -5.3246
    -5.2547  -5.2547  -5.2543  -5.2543  -5.2355  -5.2354  -5.2347  -5.2347
    -5.2344  -5.2344  -5.2019  -5.2016  -5.1992  -5.1989  -4.7020  -4.7020
    -4.4183  -4.4183  -4.4183  -4.4183  -3.7279  -3.7279  -3.1104  -3.1101
    -3.0612  -3.0612  -3.0612  -3.0612  -2.3910  -2.3910  -2.2393  -2.2393
    -1.7578  -1.7577  -1.7574  -1.7574  -0.7548  -0.7548  -0.7548  -0.7548
    -0.3253  -0.3253  -0.3251  -0.3250  -0.0901  -0.0899   0.0135   0.0135
     1.0213   1.0213   1.0494   1.0494   1.3384   1.3384   1.3699   1.3699
     1.3700   1.3701   2.2234   2.2234   2.9008   2.9008   2.9009   2.9009
     3.1018   3.1018   3.1018   3.1018   3.3229   3.3229   3.5583   3.5585
     3.8670   3.8670   3.8671   3.8671   3.9984   3.9985   4.2584   4.2585
     4.4504   4.4504   4.7461   4.7461   4.8577   4.8577   5.4840   5.4840
     5.6018   5.6018   5.8013   5.8014   5.9297   5.9297   5.9299   5.9299
     5.9781   5.9781   5.9836   5.9837   5.9837   5.9837   6.1566   6.1566
     6.1566   6.1566   6.5008   6.5008   6.5602   6.5602   6.8210   6.8210
     6.8686   6.8686   6.8972   6.8972   7.0149   7.0149   7.0149   7.0149
     7.0612   7.0612   7.7433   7.7433   7.9589   7.9589   8.0648   8.0648
     8.1279   8.1279   8.1279   8.1279   8.2824   8.2825   8.6717   8.6717
     8.6717   8.6717   8.7297   8.7297   8.7297   8.7297   8.7370   8.7370
     8.8560   8.8560   8.9547   8.9548   9.0023   9.0024   9.0025   9.0025

     occupation numbers 
     1.0000   1.0000   1.0000   1.0000   1.0000   1.0000   1.0000   1.0000
     1.0000   1.0000   1.0000   1.0000   1.0000   1.0000   1.0000   1.0000
     1.0000   1.0000   1.0000   1.0000   1.0000   1.0000   1.0000   1.0000
     1.0000   1.0000   1.0000   1.0000   1.0000   1.0000   1.0000   1.0000
     1.0000   1.0000   1.0000   1.0000   1.0000   1.0000   1.0000   1.0000
     1.0000   1.0000   1.0000   1.0000   1.0000   1.0000   1.0000   1.0000
     1.0000   1.0000   1.0000   1.0000   1.0000   1.0000   1.0000   1.0000
     1.0000   1.0000   1.0000   1.0000   1.0000   1.0000   1.0000   1.0000
     1.0000   1.0000   1.0000   1.0000   1.0000   1.0000   1.0000   1.0000
     1.0000   1.0000   1.0000   1.0000   1.0000   1.0000   1.0000   1.0000
     1.0000   1.0000   1.0000   1.0000   1.0000   1.0000   1.0000   1.0000
     1.0000   1.0000   1.0000   1.0000   1.0000   1.0000   1.0000   1.0000
     1.0000   1.0000   1.0000   1.0000   1.0000   1.0000   1.0000   1.0000
     1.0000   1.0000   1.0000   1.0000   1.0000   1.0000   1.0000   1.0000
     1.0000   1.0000   1.0000   1.0000   1.0000   1.0000   1.0000   1.0000
     1.0000   1.0000   1.0000   1.0000   1.0000   1.0000   1.0000   1.0000
     1.0000   1.0000   1.0000   1.0000   1.0000   1.0000   1.0000   1.0000
     1.0000   1.0000   1.0000   1.0000   1.0000   1.0000   1.0000   1.0000
     1.0000   1.0000   1.0000   1.0000   1.0000   1.0000   1.0000   1.0000
     1.0000   1.0000   1.0000   1.0000   1.0000   1.0000   1.0000   1.0000
     1.0000   1.0000   1.0000   1.0000   1.0000   1.0000   1.0000   1.0000
     1.0000   1.0000   1.0000   1.0000   1.0000   1.0000   1.0000   1.0000
     1.0000   1.0000   1.0000   1.0000   1.0000   1.0000   1.0000   1.0000
     1.0000   1.0000   1.0000   1.0000   1.0000   1.0000   1.0000   1.0000
     1.0000   1.0000   1.0000   1.0000   1.0000   1.0000   1.0000   1.0000
     1.0000   1.0000   1.0000   1.0000   1.0000   1.0000   1.0000   1.0000
     1.0000   1.0000   1.0000   1.0000   1.0000   1.0000   1.0000   1.0000
     1.0000   1.0000   1.0000   1.0000   1.0000   1.0000   1.0000   1.0000
     1.0000   1.0000   1.0000   1.0000   1.0000   1.0000   1.0000   1.0000
     1.0000   1.0000   1.0000   1.0000   1.0000   1.0000   1.0000   1.0000
     1.0000   1.0000   1.0000   1.0000   1.0000   1.0000   1.0000   1.0000
     1.0000   1.0000   1.0000   1.0000   1.0000   1.0000   1.0000   1.0000
     1.0000   1.0000   1.0000   1.0000   1.0000   1.0000   1.0000   1.0000
     1.0000   1.0000   1.0000   1.0000   1.0000   1.0000   1.0000   1.0000
     1.0000   1.0000   1.0000   1.0000   1.0000   1.0000   1.0000   1.0000
     1.0000   1.0000   1.0000   1.0000   1.0000   1.0000   1.0000   1.0000
     1.0000   1.0000   1.0000   1.0000   1.0000   1.0000   1.0000   1.0000
     1.0000   1.0000   1.0000   1.0000   1.0000   1.0000   1.0000   1.0000
     1.0000   1.0000   1.0000   1.0000   1.0000   1.0000   1.0000   1.0000
     1.0000   1.0000   1.0000   1.0000   1.0000   1.0000   1.0000   1.0000
     1.0000   1.0000   1.0000   1.0000   1.0000   1.0000   1.0000   1.0000
     1.0000   1.0000   1.0000   1.0000   1.0000   1.0000   1.0000   1.0000
     1.0000   1.0000   1.0000   1.0000   1.0000   1.0000   1.0000   1.0000
     1.0000   1.0000   1.0000   1.0000   1.0000   1.0000   1.0000   1.0000
     1.0000   1.0000   1.0000   1.0000   1.0000   1.0000   1.0000   1.0000
     1.0000   1.0000   1.0000   1.0000   1.0000   1.0000   1.0000   1.0000
     1.0000   1.0000   1.0000   1.0000   1.0000   1.0000   1.0000   1.0000
     1.0000   1.0000   1.0000   1.0000   1.0000   1.0000   1.0000   1.0000
     1.0000   1.0000   1.0000   1.0000   1.0000   1.0000   1.0000   1.0000
     1.0000   1.0000   1.0000   1.0000   1.0000   1.0000   1.0000   1.0000
     1.0000   1.0000   1.0000   1.0000   1.0000   1.0000   1.0000   1.0000
     1.0000   1.0000   1.0000   1.0000   1.0000   1.0000   1.0000   1.0000
     1.0000   1.0000   1.0000   1.0000   1.0000   1.0000   1.0000   1.0000
     1.0000   1.0000   1.0000   1.0000   1.0000   1.0000   1.0000   1.0000
     1.0000   1.0000   1.0000   1.0000   1.0000   1.0000   1.0000   1.0000
     1.0000   1.0000   1.0000   1.0000   1.0000   1.0000   1.0000   1.0000
     1.0000   1.0000   1.0000   1.0000   1.0000   1.0000   1.0000   1.0000
     1.0000   1.0000   1.0000   1.0000   1.0000   1.0000   1.0000   1.0000
     1.0000   1.0000   1.0000   1.0000   1.0000   1.0000   1.0000   1.0000
     1.0812   1.0812   1.0833   1.0833   0.6566   0.6566   0.5696   0.5694
     0.5691   0.5690   0.0000   0.0000   0.0000   0.0000   0.0000   0.0000
     0.0000   0.0000   0.0000   0.0000   0.0000   0.0000   0.0000   0.0000
     0.0000   0.0000   0.0000   0.0000   0.0000   0.0000   0.0000   0.0000
     0.0000   0.0000   0.0000   0.0000   0.0000   0.0000   0.0000   0.0000
     0.0000   0.0000   0.0000   0.0000   0.0000   0.0000   0.0000   0.0000
     0.0000   0.0000   0.0000   0.0000   0.0000   0.0000   0.0000   0.0000
     0.0000   0.0000   0.0000   0.0000   0.0000   0.0000   0.0000   0.0000
     0.0000   0.0000   0.0000   0.0000   0.0000   0.0000   0.0000   0.0000
     0.0000   0.0000   0.0000   0.0000   0.0000   0.0000   0.0000   0.0000
     0.0000   0.0000   0.0000   0.0000   0.0000   0.0000   0.0000   0.0000
     0.0000   0.0000   0.0000   0.0000   0.0000   0.0000   0.0000   0.0000
     0.0000   0.0000   0.0000   0.0000   0.0000   0.0000   0.0000   0.0000

     the Fermi energy is     1.4331 ev

!    total energy              =  -22154.35074737 Ry
     estimated scf accuracy    <       0.00000090 Ry
     smearing contrib. (-TS)   =       0.00133597 Ry
     internal energy E=F+TS    =  -22154.35208334 Ry

     The total energy is F=E-TS. E is the sum of the following terms:
     one-electron contribution = -144865.47961674 Ry
     hartree contribution      =   72366.01379536 Ry
     xc contribution           =   -2024.13420565 Ry
     ewald contribution        =   52369.24794370 Ry

     convergence has been achieved in  10 iterations

     Writing all to output data dir ./tmp/Zn002.save/ :
     XML data file, charge density, pseudopotentials, collected wavefunctions

     init_run     :    268.73s CPU    271.43s WALL (       1 calls)
     electrons    :  10422.68s CPU  10508.97s WALL (       1 calls)

     Called by init_run:
     wfcinit      :    265.32s CPU    267.89s WALL (       1 calls)
     wfcinit:atom :      0.22s CPU      0.34s WALL (      10 calls)
     wfcinit:wfcr :    262.93s CPU    265.24s WALL (      10 calls)
     potinit      :      0.22s CPU      0.24s WALL (       1 calls)
     hinit0       :      0.06s CPU      0.07s WALL (       1 calls)

     Called by electrons:
     c_bands      :   9710.11s CPU   9785.86s WALL (      11 calls)
     sum_band     :    685.18s CPU    694.64s WALL (      11 calls)
     v_of_rho     :      2.14s CPU      2.23s WALL (      11 calls)
     v_h          :      0.17s CPU      0.18s WALL (      11 calls)
     v_xc         :      1.96s CPU      2.04s WALL (      11 calls)
     newd         :     27.06s CPU     27.98s WALL (      11 calls)
     mix_rho      :      0.31s CPU      0.33s WALL (      11 calls)

     Called by c_bands:
     init_us_2    :      9.97s CPU     10.03s WALL (     230 calls)
     cegterg      :   9692.01s CPU   9767.63s WALL (     110 calls)

     Called by sum_band:
     sum_band:wei :      0.05s CPU      0.05s WALL (      11 calls)
     sum_band:loo :    654.51s CPU    663.02s WALL (      11 calls)
     sum_band:buf :      2.26s CPU      2.27s WALL (     110 calls)
     sum_band:ini :      4.76s CPU      4.78s WALL (     110 calls)
     sum_band:cal :    532.50s CPU    534.30s WALL (     110 calls)
     sum_band:bec :      2.25s CPU      2.26s WALL (     110 calls)
     addusdens    :     30.34s CPU     31.27s WALL (      11 calls)
                                        0.00s GPU  (      11 calls)
     addusd:skk   :      0.29s CPU      0.50s WALL (      11 calls)
                                        0.00s GPU  (      11 calls)

     Called by *egterg:
     cdiaghg      :    287.10s CPU    297.52s WALL (     630 calls)
     cegterg:over :   1571.43s CPU   1575.80s WALL (     530 calls)
     cegterg:upda :    905.08s CPU    908.65s WALL (     530 calls)
     cegterg:last :   2509.90s CPU   2519.36s WALL (     202 calls)
     cdiaghg:chol :     17.29s CPU     17.34s WALL (     630 calls)
     cdiaghg:inve :      2.79s CPU      2.80s WALL (     630 calls)
     cdiaghg:para :     72.19s CPU     73.48s WALL (    1260 calls)
     h_psi        :   2904.37s CPU   2946.94s WALL (     650 calls)
     s_psi        :   1229.38s CPU   1232.32s WALL (     650 calls)
     g_psi        :      1.36s CPU      1.37s WALL (     530 calls)

     Called by h_psi:
     h_psi:calbec :   1258.72s CPU   1263.02s WALL (     650 calls)
     vloc_psi     :    407.08s CPU    439.98s WALL (     650 calls)
     add_vuspsi   :   1234.17s CPU   1237.18s WALL (     650 calls)

     General routines
     calbec       :   1791.22s CPU   1797.31s WALL (     760 calls)
     fft          :      1.32s CPU      1.44s WALL (     141 calls)
     ffts         :      0.05s CPU      0.05s WALL (      22 calls)
     fftw         :    363.79s CPU    392.35s WALL (  362184 calls)
     interpolate  :      0.15s CPU      0.16s WALL (      11 calls)

     Parallel routines

     PWSCF        :      2h58m CPU      2h59m WALL


   This run was terminated on:  20:25:49  25Mar2025            

=------------------------------------------------------------------------------=
   JOB DONE.
=------------------------------------------------------------------------------=
Note: The following floating-point exceptions are signalling: IEEE_DENORMAL
Note: The following floating-point exceptions are signalling: IEEE_DENORMAL
Note: The following floating-point exceptions are signalling: IEEE_DENORMAL
Note: The following floating-point exceptions are signalling: IEEE_DENORMAL
Note: The following floating-point exceptions are signalling: IEEE_DENORMAL
Note: The following floating-point exceptions are signalling: IEEE_DENORMAL
Note: The following floating-point exceptions are signalling: IEEE_DENORMAL
Note: The following floating-point exceptions are signalling: IEEE_DENORMAL
Note: The following floating-point exceptions are signalling: IEEE_DENORMAL
Note: The following floating-point exceptions are signalling: IEEE_DENORMAL
Note: The following floating-point exceptions are signalling: IEEE_DENORMAL
Note: The following floating-point exceptions are signalling: IEEE_DENORMAL
