--------------------------------------------------------------------------
WARNING: There was an error initializing an OpenFabrics device.

  Local host:   ga00
  Local device: mlx5_0
--------------------------------------------------------------------------

     Program PWSCF v.7.3.1 starts on  5Apr2025 at  1:17:53 

     This program is part of the open-source Quantum ESPRESSO suite
     for quantum simulation of materials; please cite
         "P. Giannozzi et al., J. Phys.:Condens. Matter 21 395502 (2009);
         "P. Giannozzi et al., J. Phys.:Condens. Matter 29 465901 (2017);
         "P. Giannozzi et al., J. Chem. Phys. 152 154105 (2020);
          URL http://www.quantum-espresso.org", 
     in publications or presentations arising from this work. More details at
     http://www.quantum-espresso.org/quote

     Parallel version (MPI), running on    31 processors

     MPI processes distributed on     1 nodes
     116283 MiB available memory on the printing compute node when the environment starts

     Waiting for input...
     Reading input from standard input
Warning: card &CELL ignored
Warning: card   CELL_DOFREE = 'ALL' ignored
Warning: card / ignored

     Current dimensions of program PWSCF are:
     Max number of different atomic species (ntypx) = 10
     Max number of k-points (npk) =  40000
     Max angular momentum in pseudopotentials (lmaxx) =  4
     file C.pbe-n-kjpaw_psl.1.0.0.UPF: wavefunction(s)  2S 2P renormalized

     R & G space division:  proc/nbgrp/npool/nimage =      31
     Subspace diagonalization in iterative solution of the eigenvalue problem:
     a serial algorithm will be used


     Parallelization info
     --------------------
     sticks:   dense  smooth     PW     G-vecs:    dense   smooth      PW
     Min        1603     916    233               269117   116246   14961
     Max        1604     917    235               269120   116251   14965
     Sum       49717   28417   7237              8342671  3603727  463837

     Using Slab Decomposition



     bravais-lattice index     =            1
     lattice parameter (alat)  =      47.2432  a.u.
     unit-cell volume          =  105442.7265 (a.u.)^3
     number of atoms/cell      =           15
     number of atomic types    =            3
     number of electrons       =        37.00
     number of Kohn-Sham states=           23
     kinetic-energy cutoff     =      40.0000  Ry
     charge density cutoff     =     280.0000  Ry
     scf convergence threshold =      1.0E-06
     mixing beta               =       0.4000
     number of iterations used =            8  plain     mixing
     energy convergence thresh.=      1.0E-05
     force convergence thresh. =      5.0E-04
     Exchange-correlation= PBE
                           (   1   4   3   4   0   0   0)
     nstep                     =          100


     celldm(1)=  47.243153  celldm(2)=   0.000000  celldm(3)=   0.000000
     celldm(4)=   0.000000  celldm(5)=   0.000000  celldm(6)=   0.000000

     crystal axes: (cart. coord. in units of alat)
               a(1) = (   1.000000   0.000000   0.000000 )  
               a(2) = (   0.000000   1.000000   0.000000 )  
               a(3) = (   0.000000   0.000000   1.000000 )  

     reciprocal axes: (cart. coord. in units 2 pi/alat)
               b(1) = (  1.000000  0.000000  0.000000 )  
               b(2) = (  0.000000  1.000000  0.000000 )  
               b(3) = (  0.000000  0.000000  1.000000 )  


     PseudoPot. # 1 for N  read from file:
     /home/yongsang/Research/PSID_server_room/qe/[00]QE/qepseudo/SSSP_1.3.0_PBE_efficiency/N.pbe-n-radius_5.UPF
     MD5 check sum: 16739722b17309cd8fe442a2ace49922
     Pseudo is Ultrasoft + core correction, Zval =  5.0
     Generated using "atomic" code by A. Dal Corso  v.5.1
     Using radial grid of 1085 points,  4 beta functions with: 
                l(1) =   0
                l(2) =   0
                l(3) =   1
                l(4) =   1
     Q(r) pseudized with 0 coefficients 


     PseudoPot. # 2 for C  read from file:
     /home/yongsang/Research/PSID_server_room/qe/[00]QE/qepseudo/SSSP_1.3.0_PBE_efficiency/C.pbe-n-kjpaw_psl.1.0.0.UPF
     MD5 check sum: 5d2aebdfa2cae82b50a7e79e9516da0f
     Pseudo is Projector augmented-wave + core cor, Zval =  4.0
     Generated using "atomic" code by A. Dal Corso  v.5.1
     Shape of augmentation charge: PSQ
     Using radial grid of 1073 points,  4 beta functions with: 
                l(1) =   0
                l(2) =   0
                l(3) =   1
                l(4) =   1
     Q(r) pseudized with 0 coefficients 


     PseudoPot. # 3 for H  read from file:
     /home/yongsang/Research/PSID_server_room/qe/[00]QE/qepseudo/SSSP_1.3.0_PBE_efficiency/H.pbe-rrkjus_psl.1.0.0.UPF
     MD5 check sum: f52b6d4d1c606e5624b1dc7b2218f220
     Pseudo is Ultrasoft, Zval =  1.0
     Generated using "atomic" code by A. Dal Corso  v.5.1
     Using radial grid of  929 points,  2 beta functions with: 
                l(1) =   0
                l(2) =   0
     Q(r) pseudized with 0 coefficients 


     atomic species   valence    mass     pseudopotential
     N                 5.00    14.00674     N ( 1.00)
     C                 4.00    12.01070     C ( 1.00)
     H                 1.00     1.00794     H ( 1.00)

     No symmetry found


                                    s                        frac. trans.

      isym =  1     identity                                     

 cryst.   s( 1) = (     1          0          0      )
                  (     0          1          0      )
                  (     0          0          1      )

 cart.    s( 1) = (  1.0000000  0.0000000  0.0000000 )
                  (  0.0000000  1.0000000  0.0000000 )
                  (  0.0000000  0.0000000  1.0000000 )


     point group C_1 (1)    
     there are  1 classes
     the character table:

       E    
A      1.00

     the symmetry operations in each class and the name of the first element:

     E        1
          identity                                               

   Cartesian axes

     site n.     atom                  positions (alat units)
         1        N      tau(   1) = (  -0.0903236   0.0100118   0.0237588  )
         2        C      tau(   2) = (  -0.0323363   0.0090217   0.0090641  )
         3        C      tau(   3) = (  -0.0061592   0.0575707   0.0021034  )
         4        C      tau(   4) = (  -0.0072125  -0.0403351   0.0042892  )
         5        C      tau(   5) = (   0.0483182   0.0562806  -0.0102634  )
         6        C      tau(   6) = (   0.0472858  -0.0407744  -0.0080502  )
         7        C      tau(   7) = (   0.0748360   0.0073253  -0.0151936  )
         8        H      tau(   8) = (  -0.0271323   0.0956881   0.0060307  )
         9        H      tau(   9) = (  -0.0289875  -0.0777918   0.0098902  )
        10        H      tau(  10) = (   0.0698673   0.0937178  -0.0160307  )
        11        H      tau(  11) = (   0.0680282  -0.0788848  -0.0121284  )
        12        H      tau(  12) = (   0.1173549   0.0066535  -0.0247926  )
        13        H      tau(  13) = (  -0.1095390  -0.0239169   0.0104398  )
        14        H      tau(  14) = (  -0.1093061   0.0425024   0.0069668  )
        15        H      tau(  15) = (  -0.0957053   0.0121634   0.0646278  )

     --------------------------------------------
     DFT-D3 Dispersion Correction (3-body terms):
     --------------------------------------------
       Reference C6 values for interpolation: 

         atom   Coordination number   C6
         H          0.912             6.05
         H          0.000            15.18
         C          0.000            98.23
         C          0.987            86.49
         C          1.998            58.72
         C          2.999            51.56
         C          3.984            36.41
         N          0.000            50.54
         N          0.994            44.25
         N          2.014            39.35
         N          2.990            31.16

       Values used:

         atom   Coordination number  R0_AB[au]  C6      C8
         N          4.042            2.478     31.16    687.49
         C          3.168            2.750     50.38   1456.95
         C          3.147            2.750     50.56   1462.30
         C          3.147            2.750     50.56   1462.32
         C          3.136            2.750     50.64   1464.60
         C          3.136            2.750     50.64   1464.60
         C          3.129            2.750     50.70   1466.21
         H          1.002            2.062      6.18     74.70
         H          1.002            2.062      6.18     74.70
         H          1.002            2.062      6.18     74.70
         H          1.002            2.062      6.18     74.70
         H          1.002            2.062      6.18     74.70
         H          1.003            2.062      6.18     74.69
         H          1.003            2.062      6.18     74.69
         H          1.002            2.062      6.18     74.70

         Molecular C6 ( Ry / a.u.^6 ) =      4633.52


   Crystallographic axes

     site n.     atom                  positions (cryst. coord.)
         1        N      tau(   1) = ( -0.0903236  0.0100118  0.0237588  )
         2        C      tau(   2) = ( -0.0323363  0.0090217  0.0090641  )
         3        C      tau(   3) = ( -0.0061592  0.0575707  0.0021034  )
         4        C      tau(   4) = ( -0.0072125 -0.0403351  0.0042892  )
         5        C      tau(   5) = (  0.0483182  0.0562806 -0.0102634  )
         6        C      tau(   6) = (  0.0472858 -0.0407744 -0.0080502  )
         7        C      tau(   7) = (  0.0748360  0.0073253 -0.0151936  )
         8        H      tau(   8) = ( -0.0271323  0.0956881  0.0060307  )
         9        H      tau(   9) = ( -0.0289875 -0.0777918  0.0098902  )
        10        H      tau(  10) = (  0.0698673  0.0937178 -0.0160307  )
        11        H      tau(  11) = (  0.0680282 -0.0788848 -0.0121284  )
        12        H      tau(  12) = (  0.1173549  0.0066535 -0.0247926  )
        13        H      tau(  13) = ( -0.1095390 -0.0239169  0.0104398  )
        14        H      tau(  14) = ( -0.1093061  0.0425024  0.0069668  )
        15        H      tau(  15) = ( -0.0957053  0.0121634  0.0646278  )

     number of k points=     5  Marzari-Vanderbilt smearing, width (Ry)=  0.0200
                       cart. coord. in units 2pi/alat
        k(    1) = (   0.0000000   0.0000000   0.0000000), wk =   0.2222222
        k(    2) = (   0.0000000   0.3333333   0.0000000), wk =   0.4444444
        k(    3) = (   0.3333333   0.0000000   0.0000000), wk =   0.4444444
        k(    4) = (   0.3333333   0.3333333   0.0000000), wk =   0.4444444
        k(    5) = (   0.3333333  -0.3333333   0.0000000), wk =   0.4444444

                       cryst. coord.
        k(    1) = (   0.0000000   0.0000000   0.0000000), wk =   0.2222222
        k(    2) = (   0.0000000   0.3333333   0.0000000), wk =   0.4444444
        k(    3) = (   0.3333333   0.0000000   0.0000000), wk =   0.4444444
        k(    4) = (   0.3333333   0.3333333   0.0000000), wk =   0.4444444
        k(    5) = (   0.3333333  -0.3333333   0.0000000), wk =   0.4444444

     Dense  grid:  8342671 G-vectors     FFT dimensions: ( 256, 256, 256)

     Smooth grid:  3603727 G-vectors     FFT dimensions: ( 192, 192, 192)

     Dynamical RAM for                 wfc:       5.10 MB

     Dynamical RAM for     wfc (w. buffer):      30.60 MB

     Dynamical RAM for           str. fact:      12.32 MB

     Dynamical RAM for           local pot:       0.00 MB

     Dynamical RAM for          nlocal pot:      15.96 MB

     Dynamical RAM for                qrad:       1.15 MB

     Dynamical RAM for          rho,v,vnew:      25.82 MB

     Dynamical RAM for               rhoin:       8.61 MB

     Dynamical RAM for            rho*nmix:      65.70 MB

     Dynamical RAM for           G-vectors:      16.29 MB

     Dynamical RAM for          h,s,v(r/c):       0.10 MB

     Dynamical RAM for          <psi|beta>:       0.03 MB

     Dynamical RAM for                 psi:      10.20 MB

     Dynamical RAM for                hpsi:      10.20 MB

     Dynamical RAM for                spsi:      10.20 MB

     Dynamical RAM for      wfcinit/wfcrot:      15.99 MB

     Dynamical RAM for           addusdens:     209.43 MB

     Dynamical RAM for          addusforce:     268.98 MB

     Dynamical RAM for         addusstress:     205.32 MB

     Estimated static dynamical RAM per process >     149.67 MB

     Estimated max dynamical RAM per process >     484.35 MB

     Estimated total dynamical RAM >      14.66 GB
[ga00:3777618] 30 more processes have sent help message help-mpi-btl-openib.txt / error in device init
[ga00:3777618] Set MCA parameter "orte_base_help_aggregate" to 0 to see all help / error messages

     Initial potential from superposition of free atoms

     starting charge      36.9997, renormalised to      37.0000

     negative rho (up, down):  9.056E-03 0.000E+00
     Starting wfcs are   36 randomized atomic wfcs
     Checking if some PAW data can be deallocated... 
       PAW data deallocated on   19 nodes for type:  2

     total cpu time spent up to now is       10.7 secs

     Self-consistent Calculation

     iteration #  1     ecut=    40.00 Ry     beta= 0.40
     Davidson diagonalization with overlap

---- Real-time Memory Report at c_bands before calling an iterative solver
           478 MiB given to the printing process from OS
             0 MiB allocation reported by mallinfo(arena+hblkhd)
        110045 MiB available memory on the node where the printing process lives
------------------
     ethr =  1.00E-02,  avg # of iterations =  3.0

     negative rho (up, down):  1.020E-02 0.000E+00

     total cpu time spent up to now is       21.7 secs

     total energy              =    -139.75794643 Ry
     estimated scf accuracy    <       2.21315168 Ry

     iteration #  2     ecut=    40.00 Ry     beta= 0.40
     Davidson diagonalization with overlap

---- Real-time Memory Report at c_bands before calling an iterative solver
           547 MiB given to the printing process from OS
             0 MiB allocation reported by mallinfo(arena+hblkhd)
        108881 MiB available memory on the node where the printing process lives
------------------
     ethr =  5.98E-03,  avg # of iterations =  5.0

     negative rho (up, down):  9.988E-03 0.000E+00

     total cpu time spent up to now is       32.2 secs

     total energy              =    -140.03460510 Ry
     estimated scf accuracy    <       0.30566345 Ry

     iteration #  3     ecut=    40.00 Ry     beta= 0.40
     Davidson diagonalization with overlap

---- Real-time Memory Report at c_bands before calling an iterative solver
           552 MiB given to the printing process from OS
             0 MiB allocation reported by mallinfo(arena+hblkhd)
        108763 MiB available memory on the node where the printing process lives
------------------
     ethr =  8.26E-04,  avg # of iterations =  5.0

     negative rho (up, down):  1.018E-02 0.000E+00

     total cpu time spent up to now is       41.8 secs

     total energy              =    -140.03365282 Ry
     estimated scf accuracy    <       0.12021627 Ry

     iteration #  4     ecut=    40.00 Ry     beta= 0.40
     Davidson diagonalization with overlap

---- Real-time Memory Report at c_bands before calling an iterative solver
           556 MiB given to the printing process from OS
             0 MiB allocation reported by mallinfo(arena+hblkhd)
        108647 MiB available memory on the node where the printing process lives
------------------
     ethr =  3.25E-04,  avg # of iterations =  4.0

     negative rho (up, down):  1.002E-02 0.000E+00

     total cpu time spent up to now is       51.0 secs

     total energy              =    -140.05620574 Ry
     estimated scf accuracy    <       0.06765864 Ry

     iteration #  5     ecut=    40.00 Ry     beta= 0.40
     Davidson diagonalization with overlap

---- Real-time Memory Report at c_bands before calling an iterative solver
           560 MiB given to the printing process from OS
             0 MiB allocation reported by mallinfo(arena+hblkhd)
        108527 MiB available memory on the node where the printing process lives
------------------
     ethr =  1.83E-04,  avg # of iterations =  2.4

     negative rho (up, down):  9.926E-03 0.000E+00

     total cpu time spent up to now is       59.8 secs

     total energy              =    -140.05869277 Ry
     estimated scf accuracy    <       0.00848417 Ry

     iteration #  6     ecut=    40.00 Ry     beta= 0.40
     Davidson diagonalization with overlap

---- Real-time Memory Report at c_bands before calling an iterative solver
           562 MiB given to the printing process from OS
             0 MiB allocation reported by mallinfo(arena+hblkhd)
        108409 MiB available memory on the node where the printing process lives
------------------
     ethr =  2.29E-05,  avg # of iterations =  5.2

     negative rho (up, down):  9.715E-03 0.000E+00

     total cpu time spent up to now is       70.5 secs

     total energy              =    -140.05931138 Ry
     estimated scf accuracy    <       0.00252439 Ry

     iteration #  7     ecut=    40.00 Ry     beta= 0.40
     Davidson diagonalization with overlap

---- Real-time Memory Report at c_bands before calling an iterative solver
           566 MiB given to the printing process from OS
             0 MiB allocation reported by mallinfo(arena+hblkhd)
        108283 MiB available memory on the node where the printing process lives
------------------
     ethr =  6.82E-06,  avg # of iterations =  3.2

     negative rho (up, down):  9.607E-03 0.000E+00

     total cpu time spent up to now is       79.9 secs

     total energy              =    -140.05992097 Ry
     estimated scf accuracy    <       0.00767355 Ry

     iteration #  8     ecut=    40.00 Ry     beta= 0.40
     Davidson diagonalization with overlap

---- Real-time Memory Report at c_bands before calling an iterative solver
           570 MiB given to the printing process from OS
             0 MiB allocation reported by mallinfo(arena+hblkhd)
        108179 MiB available memory on the node where the printing process lives
------------------
     ethr =  6.82E-06,  avg # of iterations =  1.2

     negative rho (up, down):  9.572E-03 0.000E+00

     total cpu time spent up to now is       88.4 secs

     total energy              =    -140.06014698 Ry
     estimated scf accuracy    <       0.00067262 Ry

     iteration #  9     ecut=    40.00 Ry     beta= 0.40
     Davidson diagonalization with overlap

---- Real-time Memory Report at c_bands before calling an iterative solver
           574 MiB given to the printing process from OS
             0 MiB allocation reported by mallinfo(arena+hblkhd)
        108059 MiB available memory on the node where the printing process lives
------------------
     ethr =  1.82E-06,  avg # of iterations =  3.8

     negative rho (up, down):  9.558E-03 0.000E+00

     total cpu time spent up to now is       97.5 secs

     total energy              =    -140.06021556 Ry
     estimated scf accuracy    <       0.00001114 Ry

     iteration # 10     ecut=    40.00 Ry     beta= 0.40
     Davidson diagonalization with overlap

---- Real-time Memory Report at c_bands before calling an iterative solver
           576 MiB given to the printing process from OS
             0 MiB allocation reported by mallinfo(arena+hblkhd)
        107938 MiB available memory on the node where the printing process lives
------------------
     c_bands:  1 eigenvalues not converged
     c_bands:  1 eigenvalues not converged
     ethr =  3.01E-08,  avg # of iterations = 16.2

     negative rho (up, down):  9.557E-03 0.000E+00

     total cpu time spent up to now is      111.0 secs

     total energy              =    -140.06021854 Ry
     estimated scf accuracy    <       0.00000372 Ry

     iteration # 11     ecut=    40.00 Ry     beta= 0.40
     Davidson diagonalization with overlap

---- Real-time Memory Report at c_bands before calling an iterative solver
           576 MiB given to the printing process from OS
             0 MiB allocation reported by mallinfo(arena+hblkhd)
        107942 MiB available memory on the node where the printing process lives
------------------
     ethr =  1.01E-08,  avg # of iterations =  3.0

     negative rho (up, down):  9.565E-03 0.000E+00

     total cpu time spent up to now is      120.1 secs

     End of self-consistent calculation

          k = 0.0000 0.0000 0.0000 (450991 PWs)   bands (ev):

   -25.4082 -21.5279 -18.8894 -18.7402 -15.7694 -15.4957 -14.5832 -14.0677
   -13.6694 -12.1647 -11.2140 -10.9038 -10.6234  -9.4044  -8.9100  -8.7009
    -6.6853  -6.6712  -1.8484  -1.6805  -1.6588  -0.6967  -0.5909

     occupation numbers 
     1.0000   1.0000   1.0000   1.0000   1.0000   1.0000   1.0000   1.0000
     1.0000   1.0000   1.0000   1.0000   1.0000   1.0000   1.0000   1.0000
     1.0000   1.0000   0.3544   0.0815   0.0641   0.0000   0.0000

          k = 0.0000 0.3333 0.0000 (450515 PWs)   bands (ev):

   -25.4082 -21.5279 -18.8894 -18.7402 -15.7694 -15.4957 -14.5832 -14.0677
   -13.6693 -12.1646 -11.2140 -10.9037 -10.6234  -9.4044  -8.9100  -8.7008
    -6.6853  -6.6712  -1.8484  -1.6804  -1.6588  -0.6972  -0.5902

     occupation numbers 
     1.0000   1.0000   1.0000   1.0000   1.0000   1.0000   1.0000   1.0000
     1.0000   1.0000   1.0000   1.0000   1.0000   1.0000   1.0000   1.0000
     1.0000   1.0000   0.3544   0.0815   0.0641   0.0000   0.0000

          k = 0.3333 0.0000 0.0000 (450515 PWs)   bands (ev):

   -25.4082 -21.5279 -18.8894 -18.7402 -15.7694 -15.4957 -14.5832 -14.0677
   -13.6693 -12.1646 -11.2140 -10.9037 -10.6234  -9.4044  -8.9100  -8.7008
    -6.6853  -6.6712  -1.8484  -1.6804  -1.6588  -0.6969  -0.5913

     occupation numbers 
     1.0000   1.0000   1.0000   1.0000   1.0000   1.0000   1.0000   1.0000
     1.0000   1.0000   1.0000   1.0000   1.0000   1.0000   1.0000   1.0000
     1.0000   1.0000   0.3544   0.0815   0.0641   0.0000   0.0000

          k = 0.3333 0.3333 0.0000 (450333 PWs)   bands (ev):

   -25.4082 -21.5279 -18.8894 -18.7402 -15.7694 -15.4957 -14.5832 -14.0676
   -13.6693 -12.1646 -11.2140 -10.9037 -10.6234  -9.4044  -8.9100  -8.7008
    -6.6853  -6.6712  -1.8484  -1.6804  -1.6588  -0.5909  -0.5338

     occupation numbers 
     1.0000   1.0000   1.0000   1.0000   1.0000   1.0000   1.0000   1.0000
     1.0000   1.0000   1.0000   1.0000   1.0000   1.0000   1.0000   1.0000
     1.0000   1.0000   0.3544   0.0815   0.0641   0.0000   0.0000

          k = 0.3333-0.3333 0.0000 (450333 PWs)   bands (ev):

   -25.4082 -21.5279 -18.8894 -18.7402 -15.7694 -15.4957 -14.5832 -14.0676
   -13.6693 -12.1646 -11.2140 -10.9037 -10.6234  -9.4044  -8.9100  -8.7008
    -6.6853  -6.6712  -1.8484  -1.6804  -1.6588  -0.6977  -0.5906

     occupation numbers 
     1.0000   1.0000   1.0000   1.0000   1.0000   1.0000   1.0000   1.0000
     1.0000   1.0000   1.0000   1.0000   1.0000   1.0000   1.0000   1.0000
     1.0000   1.0000   0.3544   0.0815   0.0641   0.0000   0.0000

     the Fermi energy is    -1.8673 ev

!    total energy              =    -140.06021910 Ry
     estimated scf accuracy    <       0.00000026 Ry
     smearing contrib. (-TS)   =      -0.01264968 Ry
     internal energy E=F+TS    =    -140.04756942 Ry

     The total energy is F=E-TS. E is the sum of the following terms:
     one-electron contribution =    -557.42871387 Ry
     hartree contribution      =     282.01676464 Ry
     xc contribution           =     -38.66325560 Ry
     ewald contribution        =     211.04006908 Ry
     DFT-D3 Dispersion         =      -0.00962157 Ry
     one-center paw contrib.   =     -37.00281210 Ry
      -> PAW hartree energy AE =       0.00000000 Ry
      -> PAW hartree energy PS =       0.00000000 Ry
      -> PAW xc energy AE      =       0.00000000 Ry
      -> PAW xc energy PS      =       0.00000000 Ry
      -> total E_H with PAW    =     282.01676464 Ry
      -> total E_XC with PAW   =     -38.66325560 Ry

     convergence has been achieved in  11 iterations

     negative rho (up, down):  9.565E-03 0.000E+00

     Forces acting on atoms (cartesian axes, Ry/au):

     atom    1 type  1   force =     0.03908670   -0.00138370   -0.01316314
     atom    2 type  2   force =    -0.02954909   -0.00085510    0.00335294
     atom    3 type  2   force =     0.00399885    0.01048757    0.00002059
     atom    4 type  2   force =     0.00387818   -0.00908194    0.00034869
     atom    5 type  2   force =     0.00412662    0.00481134   -0.00062868
     atom    6 type  2   force =     0.00315478   -0.00652550   -0.00014355
     atom    7 type  2   force =     0.00898534    0.00115542   -0.00256215
     atom    8 type  3   force =    -0.00101438   -0.00368914    0.00022786
     atom    9 type  3   force =    -0.00100556    0.00376837    0.00010137
     atom   10 type  3   force =     0.00075348    0.00027560   -0.00024124
     atom   11 type  3   force =     0.00063856   -0.00028764   -0.00015357
     atom   12 type  3   force =     0.00089454    0.00001627   -0.00030735
     atom   13 type  3   force =    -0.01344567   -0.01662636   -0.00671899
     atom   14 type  3   force =    -0.01357707    0.01636774   -0.00869699
     atom   15 type  3   force =    -0.00692529    0.00156705    0.02856423
     The non-local contrib.  to forces
     atom    1 type  1   force =     0.12803034   -0.00332941   -0.04490121
     atom    2 type  2   force =    -0.59388704    0.00926275    0.15422848
     atom    3 type  2   force =    -0.06171753   -0.04386288    0.01857883
     atom    4 type  2   force =    -0.06100250    0.04561121    0.01690941
     atom    5 type  2   force =    -0.03557626    0.01976268    0.00712851
     atom    6 type  2   force =    -0.03698757   -0.01903088    0.00795109
     atom    7 type  2   force =     0.00564575    0.00063852   -0.00304859
     atom    8 type  3   force =     0.03593657   -0.06852761   -0.00672607
     atom    9 type  3   force =     0.03735740    0.06739683   -0.00972976
     atom   10 type  3   force =    -0.03886094   -0.06721876    0.01038196
     atom   11 type  3   force =    -0.03740269    0.06840462    0.00735016
     atom   12 type  3   force =    -0.07619220    0.00120137    0.01718972
     atom   13 type  3   force =     0.04528130    0.07916631    0.03124941
     atom   14 type  3   force =     0.04467163   -0.07574915    0.03935776
     atom   15 type  3   force =     0.01218327   -0.00492743   -0.09407455
     The ionic contribution  to forces
     atom    1 type  1   force =    -7.91589250    0.13343268    1.97906525
     atom    2 type  2   force =    -2.38798194    0.03137002    0.39419661
     atom    3 type  2   force =    -1.59757719    7.10532897    0.18839497
     atom    4 type  2   force =    -1.75146885   -7.05369454    0.50162106
     atom    5 type  2   force =     4.40285769    6.25965838   -1.14556197
     atom    6 type  2   force =     4.26807844   -6.39887336   -0.85133966
     atom    7 type  2   force =     7.53346019   -0.11854840   -1.69793523
     atom    8 type  3   force =    -1.28946197    3.25617570    0.22030758
     atom    9 type  3   force =    -1.35781441   -3.21460910    0.36355834
     atom   10 type  3   force =     1.80377874    2.94124828   -0.47894035
     atom   11 type  3   force =     1.74022026   -2.99755715   -0.34517533
     atom   12 type  3   force =     3.38140014   -0.05347617   -0.76411079
     atom   13 type  3   force =    -2.71313615   -2.79430944   -0.91390483
     atom   14 type  3   force =    -2.68935063    2.70713560   -1.21091199
     atom   15 type  3   force =    -1.42711180    0.19671851    3.76073633
     The local contribution  to forces
     atom    1 type  1   force =     7.82965931   -0.13147528   -1.94813252
     atom    2 type  2   force =     2.93810142   -0.04122210   -0.54145815
     atom    3 type  2   force =     1.66192484   -7.05018521   -0.20673127
     atom    4 type  2   force =     1.81471960    6.99829368   -0.51767987
     atom    5 type  2   force =    -4.36311862   -6.27307287    1.13794691
     atom    6 type  2   force =    -4.22765707    6.40987323    0.84306091
     atom    7 type  2   force =    -7.52877824    0.11911573    1.69820309
     atom    8 type  3   force =     1.25263005   -3.19134529   -0.21342944
     atom    9 type  3   force =     1.31954641    3.15097443   -0.35379989
     atom   10 type  3   force =    -1.76416763   -2.87380746    0.46829095
     atom   11 type  3   force =    -1.70216781    2.92892126    0.33763947
     atom   12 type  3   force =    -3.30433264    0.05229913    0.74658997
     atom   13 type  3   force =     2.65455131    2.69842400    0.87591382
     atom   14 type  3   force =     2.63123075   -2.61491681    1.16283608
     atom   15 type  3   force =     1.40783333   -0.19020447   -3.63804555
     The core correction contribution to forces
     atom    1 type  1   force =    -0.00239374    0.00004720    0.00067951
     atom    2 type  2   force =     0.01455789   -0.00016705   -0.00371589
     atom    3 type  2   force =     0.00157067   -0.00101178   -0.00034128
     atom    4 type  2   force =     0.00182437    0.00099525   -0.00062635
     atom    5 type  2   force =    -0.00007900   -0.00171079   -0.00016178
     atom    6 type  2   force =    -0.00023022    0.00172563    0.00013440
     atom    7 type  2   force =    -0.00157317   -0.00000022    0.00024167
     atom    8 type  3   force =     0.00000000    0.00000000    0.00000000
     atom    9 type  3   force =     0.00000000    0.00000000    0.00000000
     atom   10 type  3   force =     0.00000000    0.00000000    0.00000000
     atom   11 type  3   force =     0.00000000    0.00000000    0.00000000
     atom   12 type  3   force =     0.00000000    0.00000000    0.00000000
     atom   13 type  3   force =     0.00000000    0.00000000    0.00000000
     atom   14 type  3   force =     0.00000000    0.00000000    0.00000000
     atom   15 type  3   force =     0.00000000    0.00000000    0.00000000
     The Hubbard contrib.    to forces
     atom    1 type  1   force =     0.00000000    0.00000000    0.00000000
     atom    2 type  2   force =     0.00000000    0.00000000    0.00000000
     atom    3 type  2   force =     0.00000000    0.00000000    0.00000000
     atom    4 type  2   force =     0.00000000    0.00000000    0.00000000
     atom    5 type  2   force =     0.00000000    0.00000000    0.00000000
     atom    6 type  2   force =     0.00000000    0.00000000    0.00000000
     atom    7 type  2   force =     0.00000000    0.00000000    0.00000000
     atom    8 type  3   force =     0.00000000    0.00000000    0.00000000
     atom    9 type  3   force =     0.00000000    0.00000000    0.00000000
     atom   10 type  3   force =     0.00000000    0.00000000    0.00000000
     atom   11 type  3   force =     0.00000000    0.00000000    0.00000000
     atom   12 type  3   force =     0.00000000    0.00000000    0.00000000
     atom   13 type  3   force =     0.00000000    0.00000000    0.00000000
     atom   14 type  3   force =     0.00000000    0.00000000    0.00000000
     atom   15 type  3   force =     0.00000000    0.00000000    0.00000000
     The SCF correction term to forces
     atom    1 type  1   force =    -0.00022046   -0.00005549    0.00007213
     atom    2 type  2   force =    -0.00044045   -0.00009269    0.00010597
     atom    3 type  2   force =    -0.00021767    0.00004246    0.00005509
     atom    4 type  2   force =    -0.00021273   -0.00010739    0.00005547
     atom    5 type  2   force =     0.00014152    0.00004143   -0.00003007
     atom    6 type  2   force =     0.00005262   -0.00008276   -0.00000628
     atom    7 type  2   force =     0.00014853   -0.00004488   -0.00003504
     atom    8 type  3   force =    -0.00006833    0.00005675    0.00001588
     atom    9 type  3   force =    -0.00005476   -0.00003405    0.00001485
     atom   10 type  3   force =     0.00004040    0.00006056   -0.00000983
     atom   11 type  3   force =     0.00002568   -0.00005639   -0.00000377
     atom   12 type  3   force =     0.00005012   -0.00000464   -0.00001149
     atom   13 type  3   force =    -0.00000482    0.00003622    0.00002774
     atom   14 type  3   force =    -0.00001220   -0.00004361    0.00003122
     atom   15 type  3   force =    -0.00002580   -0.00000898   -0.00003641

     DFT-D3 dispersion contribution to forces:
     atom    1 type  1   force =    -0.00007406    0.00000026    0.00002072
     atom    2 type  2   force =     0.00012324   -0.00000238   -0.00003705
     atom    3 type  2   force =     0.00003794    0.00017967    0.00003127
     atom    4 type  2   force =     0.00004048   -0.00017648    0.00003599
     atom    5 type  2   force =    -0.00007651    0.00013617    0.00001675
     atom    6 type  2   force =    -0.00007922   -0.00013371    0.00002302
     atom    7 type  2   force =     0.00010448   -0.00000167   -0.00002104
     atom    8 type  3   force =    -0.00002849   -0.00004503    0.00002694
     atom    9 type  3   force =    -0.00001800    0.00004392    0.00002487
     atom   10 type  3   force =    -0.00001489   -0.00000336    0.00000305
     atom   11 type  3   force =    -0.00001469    0.00000369    0.00000293
     atom   12 type  3   force =    -0.00000868    0.00000024    0.00000227
     atom   13 type  3   force =    -0.00011511    0.00006020   -0.00003811
     atom   14 type  3   force =    -0.00009442   -0.00005462   -0.00004304
     atom   15 type  3   force =     0.00021792   -0.00000691   -0.00004856

     Total force =     0.070157     Total SCF correction =     0.000687

     DFT-D3 dispersion Force =     0.000491


     Computing stress (Cartesian axis) and pressure


     negative rho (up, down):  9.565E-03 0.000E+00
          total   stress  (Ry/bohr**3)                   (kbar)     P=        0.07
   0.00000064   0.00000002  -0.00000011            0.09        0.00       -0.02
   0.00000002   0.00000055  -0.00000001            0.00        0.08       -0.00
  -0.00000011  -0.00000001   0.00000029           -0.02       -0.00        0.04

     kinetic stress (kbar)     57.97      0.02      1.37
                                0.02     57.23      0.13
                                1.37      0.13     63.71

     local   stress (kbar)   -420.93      2.65     76.17
                                2.65   -333.27      4.23
                               76.17      4.23   -105.91

     nonloc. stress (kbar)     13.06     -0.00     -0.18
                               -0.00     13.15     -0.02
                               -0.18     -0.02     12.31

     hartree stress (kbar)    187.34     -1.13    -30.72
                               -1.13    146.09     -1.57
                              -30.72     -1.57     60.02

     exc-cor stress (kbar)     -4.96     -0.00     -0.09
                               -0.00     -4.93     -0.01
                               -0.09     -0.01     -5.34

     corecor stress (kbar)     -9.94      0.00      0.03
                                0.00     -9.98      0.00
                                0.03      0.00     -9.83

     ewald   stress (kbar)    177.56     -1.54    -46.59
                               -1.54    131.78     -2.76
                              -46.59     -2.76    -14.91

     hubbard stress (kbar)      0.00      0.00      0.00
                                0.00      0.00      0.00
                                0.00      0.00      0.00

     DFT-D   stress (kbar)      0.00      0.00      0.00
                                0.00      0.00     -0.00
                                0.00     -0.00     -0.00

     XDM     stress (kbar)      0.00      0.00      0.00
                                0.00      0.00      0.00
                                0.00      0.00      0.00

     dft-nl  stress (kbar)      0.00      0.00      0.00
                                0.00      0.00      0.00
                                0.00      0.00      0.00

     TS-vdW  stress (kbar)      0.00      0.00      0.00
                                0.00      0.00      0.00
                                0.00      0.00      0.00

     MDB     stress (kbar)      0.00      0.00      0.00
                                0.00      0.00      0.00
                                0.00      0.00      0.00

     3D-RISM stress (kbar)      0.00      0.00      0.00
                                0.00      0.00      0.00
                                0.00      0.00      0.00


     BFGS Geometry Optimization
     Energy error            =      0.0E+00 Ry
     Gradient error          =      3.9E-02 Ry/Bohr

     number of scf cycles    =   1
     number of bfgs steps    =   0

     energy             new  =    -140.0602191025 Ry

     new trust radius        =       0.0412668504 bohr
     new conv_thr            =       0.0000010000 Ry


ATOMIC_POSITIONS (angstrom)
N               -2.2374061102        0.2495636220        0.5870041218
C               -0.8240439535        0.2250909722        0.2283770244
C               -0.1518647207        1.4448177304        0.0525967185
C               -0.1782613867       -1.0131825509        0.1074155436
C                1.2101379316        1.4095600530       -0.2569171854
C                1.1838145889       -1.0228122273       -0.2013311882
C                1.8756556750        0.1837434574       -0.3811959168
H               -0.6788452893        2.3902513428        0.1508889867
H               -0.7252206165       -1.9428003539        0.2473097862
H                1.7470805419        2.3430919095       -0.4008944222
H                1.7010441535       -1.9722709627       -0.3032921735
H                2.9343456311        0.1663457562       -0.6199777393
H               -2.7455892072       -0.6067204988        0.2574384171
H               -2.7398380706        1.0712213117        0.1695685136
H               -2.3962971952        0.3049143823        1.6308101977



     Writing config-only to output data dir ./tmp/aniline_protonated.save/ :
     XML data file
     NEW-OLD atomic charge density approx. for the potential

     negative rho (up, down):  9.516E-03 0.000E+00

     total cpu time spent up to now is      133.9 secs

     Self-consistent Calculation

     iteration #  1     ecut=    40.00 Ry     beta= 0.40
     Davidson diagonalization with overlap

---- Real-time Memory Report at c_bands before calling an iterative solver
           580 MiB given to the printing process from OS
             0 MiB allocation reported by mallinfo(arena+hblkhd)
        110244 MiB available memory on the node where the printing process lives
------------------
     ethr =  1.00E-06,  avg # of iterations = 11.4

     negative rho (up, down):  9.541E-03 0.000E+00

     total cpu time spent up to now is      153.0 secs

     total energy              =    -140.06163779 Ry
     estimated scf accuracy    <       0.00183633 Ry

     iteration #  2     ecut=    40.00 Ry     beta= 0.40
     Davidson diagonalization with overlap

---- Real-time Memory Report at c_bands before calling an iterative solver
           580 MiB given to the printing process from OS
             0 MiB allocation reported by mallinfo(arena+hblkhd)
        108620 MiB available memory on the node where the printing process lives
------------------
     ethr =  4.96E-06,  avg # of iterations =  2.0

     negative rho (up, down):  9.548E-03 0.000E+00

     total cpu time spent up to now is      162.3 secs

     total energy              =    -140.06165592 Ry
     estimated scf accuracy    <       0.00145405 Ry

     iteration #  3     ecut=    40.00 Ry     beta= 0.40
     Davidson diagonalization with overlap

---- Real-time Memory Report at c_bands before calling an iterative solver
           580 MiB given to the printing process from OS
             0 MiB allocation reported by mallinfo(arena+hblkhd)
        108505 MiB available memory on the node where the printing process lives
------------------
     ethr =  3.93E-06,  avg # of iterations =  2.0

     negative rho (up, down):  9.571E-03 0.000E+00

     total cpu time spent up to now is      171.0 secs

     total energy              =    -140.06182030 Ry
     estimated scf accuracy    <       0.00118728 Ry

     iteration #  4     ecut=    40.00 Ry     beta= 0.40
     Davidson diagonalization with overlap

---- Real-time Memory Report at c_bands before calling an iterative solver
           580 MiB given to the printing process from OS
             0 MiB allocation reported by mallinfo(arena+hblkhd)
        108385 MiB available memory on the node where the printing process lives
------------------
     ethr =  3.21E-06,  avg # of iterations =  1.0

     negative rho (up, down):  9.584E-03 0.000E+00

     total cpu time spent up to now is      179.5 secs

     total energy              =    -140.06193364 Ry
     estimated scf accuracy    <       0.00004061 Ry

     iteration #  5     ecut=    40.00 Ry     beta= 0.40
     Davidson diagonalization with overlap

---- Real-time Memory Report at c_bands before calling an iterative solver
           580 MiB given to the printing process from OS
             0 MiB allocation reported by mallinfo(arena+hblkhd)
        108277 MiB available memory on the node where the printing process lives
------------------
     ethr =  1.10E-07,  avg # of iterations =  3.6

     negative rho (up, down):  9.596E-03 0.000E+00

     total cpu time spent up to now is      188.6 secs

     total energy              =    -140.06193796 Ry
     estimated scf accuracy    <       0.00000467 Ry

     iteration #  6     ecut=    40.00 Ry     beta= 0.40
     Davidson diagonalization with overlap

---- Real-time Memory Report at c_bands before calling an iterative solver
           580 MiB given to the printing process from OS
             0 MiB allocation reported by mallinfo(arena+hblkhd)
        108151 MiB available memory on the node where the printing process lives
------------------
     ethr =  1.26E-08,  avg # of iterations =  4.0

     negative rho (up, down):  9.604E-03 0.000E+00

     total cpu time spent up to now is      198.5 secs

     End of self-consistent calculation

          k = 0.0000 0.0000 0.0000 (450991 PWs)   bands (ev):

   -25.3442 -21.4041 -18.8543 -18.6632 -15.7217 -15.5646 -14.3454 -13.8927
   -13.6747 -12.2315 -11.0915 -10.8904 -10.6184  -9.3070  -8.9318  -8.6542
    -6.6585  -6.5995  -1.8856  -1.7467  -1.6488  -0.7099  -0.5572

     occupation numbers 
     1.0000   1.0000   1.0000   1.0000   1.0000   1.0000   1.0000   1.0000
     1.0000   1.0000   1.0000   1.0000   1.0000   1.0000   1.0000   1.0000
     1.0000   1.0000   0.3536   0.1101   0.0363   0.0000   0.0000

          k = 0.0000 0.3333 0.0000 (450515 PWs)   bands (ev):

   -25.3442 -21.4041 -18.8543 -18.6632 -15.7217 -15.5646 -14.3454 -13.8927
   -13.6746 -12.2315 -11.0915 -10.8904 -10.6184  -9.3070  -8.9318  -8.6542
    -6.6585  -6.5995  -1.8856  -1.7467  -1.6488  -0.7103  -0.5562

     occupation numbers 
     1.0000   1.0000   1.0000   1.0000   1.0000   1.0000   1.0000   1.0000
     1.0000   1.0000   1.0000   1.0000   1.0000   1.0000   1.0000   1.0000
     1.0000   1.0000   0.3536   0.1101   0.0363   0.0000   0.0000

          k = 0.3333 0.0000 0.0000 (450515 PWs)   bands (ev):

   -25.3442 -21.4041 -18.8543 -18.6632 -15.7217 -15.5645 -14.3454 -13.8927
   -13.6746 -12.2315 -11.0915 -10.8904 -10.6184  -9.3070  -8.9318  -8.6542
    -6.6585  -6.5995  -1.8856  -1.7467  -1.6488  -0.7099  -0.5575

     occupation numbers 
     1.0000   1.0000   1.0000   1.0000   1.0000   1.0000   1.0000   1.0000
     1.0000   1.0000   1.0000   1.0000   1.0000   1.0000   1.0000   1.0000
     1.0000   1.0000   0.3536   0.1101   0.0363   0.0000   0.0000

          k = 0.3333 0.3333 0.0000 (450333 PWs)   bands (ev):

   -25.3442 -21.4041 -18.8543 -18.6632 -15.7217 -15.5645 -14.3454 -13.8927
   -13.6746 -12.2315 -11.0915 -10.8903 -10.6184  -9.3070  -8.9317  -8.6541
    -6.6585  -6.5995  -1.8856  -1.7467  -1.6488  -0.7104  -0.5575

     occupation numbers 
     1.0000   1.0000   1.0000   1.0000   1.0000   1.0000   1.0000   1.0000
     1.0000   1.0000   1.0000   1.0000   1.0000   1.0000   1.0000   1.0000
     1.0000   1.0000   0.3536   0.1101   0.0363   0.0000   0.0000

          k = 0.3333-0.3333 0.0000 (450333 PWs)   bands (ev):

   -25.3442 -21.4041 -18.8543 -18.6632 -15.7217 -15.5645 -14.3454 -13.8927
   -13.6746 -12.2315 -11.0915 -10.8903 -10.6184  -9.3070  -8.9317  -8.6541
    -6.6585  -6.5995  -1.8856  -1.7467  -1.6488  -0.7104  -0.5565

     occupation numbers 
     1.0000   1.0000   1.0000   1.0000   1.0000   1.0000   1.0000   1.0000
     1.0000   1.0000   1.0000   1.0000   1.0000   1.0000   1.0000   1.0000
     1.0000   1.0000   0.3536   0.1101   0.0363   0.0000   0.0000

     the Fermi energy is    -1.9048 ev

!    total energy              =    -140.06193820 Ry
     estimated scf accuracy    <       0.00000070 Ry
     smearing contrib. (-TS)   =      -0.01242832 Ry
     internal energy E=F+TS    =    -140.04950988 Ry

     The total energy is F=E-TS. E is the sum of the following terms:
     one-electron contribution =    -556.98671101 Ry
     hartree contribution      =     281.84496921 Ry
     xc contribution           =     -38.62996094 Ry
     ewald contribution        =     210.73342508 Ry
     DFT-D3 Dispersion         =      -0.00961982 Ry
     one-center paw contrib.   =     -37.00161239 Ry
      -> PAW hartree energy AE =       0.00000000 Ry
      -> PAW hartree energy PS =       0.00000000 Ry
      -> PAW xc energy AE      =       0.00000000 Ry
      -> PAW xc energy PS      =       0.00000000 Ry
      -> total E_H with PAW    =     281.84496921 Ry
      -> total E_XC with PAW   =     -38.62996094 Ry

     convergence has been achieved in   6 iterations

     negative rho (up, down):  9.604E-03 0.000E+00

     Forces acting on atoms (cartesian axes, Ry/au):

     atom    1 type  1   force =    -0.01961621    0.00015283    0.00377936
     atom    2 type  2   force =     0.01416184   -0.00034206   -0.00993797
     atom    3 type  2   force =     0.00547241   -0.01044133    0.00035706
     atom    4 type  2   force =     0.00569560    0.00954235   -0.00031697
     atom    5 type  2   force =    -0.00510754   -0.00224318    0.00201662
     atom    6 type  2   force =    -0.00497531    0.00312706    0.00194725
     atom    7 type  2   force =    -0.00026629   -0.00030393   -0.00040676
     atom    8 type  3   force =    -0.00294800    0.00367555    0.00036736
     atom    9 type  3   force =    -0.00278083   -0.00283700    0.00048477
     atom   10 type  3   force =     0.00292990    0.00378621   -0.00083324
     atom   11 type  3   force =     0.00286927   -0.00444948   -0.00062023
     atom   12 type  3   force =     0.00620883    0.00006215   -0.00163553
     atom   13 type  3   force =     0.00041497    0.00248319    0.00051918
     atom   14 type  3   force =     0.00042732   -0.00252608    0.00067757
     atom   15 type  3   force =    -0.00248596    0.00031372    0.00360153
     The non-local contrib.  to forces
     atom    1 type  1   force =     0.10987355   -0.00374080   -0.05052228
     atom    2 type  2   force =    -0.54571181    0.00993148    0.14510876
     atom    3 type  2   force =    -0.06164212   -0.06196873    0.01966916
     atom    4 type  2   force =    -0.06136788    0.05998660    0.01740322
     atom    5 type  2   force =    -0.03784428    0.01461890    0.00772267
     atom    6 type  2   force =    -0.03827771   -0.01021068    0.00806905
     atom    7 type  2   force =    -0.00896682   -0.00141007    0.00010862
     atom    8 type  3   force =     0.03695891   -0.06921431   -0.00692304
     atom    9 type  3   force =     0.03829447    0.06794899   -0.00993427
     atom   10 type  3   force =    -0.03913566   -0.06785426    0.01047107
     atom   11 type  3   force =    -0.03777421    0.06910919    0.00743336
     atom   12 type  3   force =    -0.07705593    0.00127214    0.01735789
     atom   13 type  3   force =     0.04438671    0.07341927    0.02834097
     atom   14 type  3   force =     0.04365986   -0.07015217    0.03574404
     atom   15 type  3   force =     0.01295689   -0.00449412   -0.08528001
     The ionic contribution  to forces
     atom    1 type  1   force =    -8.17920381    0.14156334    2.06328832
     atom    2 type  2   force =    -2.08986816    0.03332316    0.29757103
     atom    3 type  2   force =    -1.56818864    7.00286955    0.19701392
     atom    4 type  2   force =    -1.71554128   -6.95711175    0.50413776
     atom    5 type  2   force =     4.38742611    6.20015688   -1.13831297
     atom    6 type  2   force =     4.26446084   -6.33174974   -0.84899606
     atom    7 type  2   force =     7.47263133   -0.12740853   -1.68801260
     atom    8 type  3   force =    -1.30359506    3.26871340    0.22274241
     atom    9 type  3   force =    -1.37059034   -3.22553769    0.36625617
     atom   10 type  3   force =     1.80861772    2.94908090   -0.48065607
     atom   11 type  3   force =     1.74695735   -3.00616382   -0.34696096
     atom   12 type  3   force =     3.39439431   -0.05498901   -0.76674662
     atom   13 type  3   force =    -2.71028505   -2.69612627   -0.86010681
     atom   14 type  3   force =    -2.68424986    2.61277582   -1.14543509
     atom   15 type  3   force =    -1.45296546    0.19060378    3.62421758
     The local contribution  to forces
     atom    1 type  1   force =     8.05138689   -0.13767060   -2.00952789
     atom    2 type  2   force =     2.63756046   -0.04335074   -0.44932839
     atom    3 type  2   force =     1.63363899   -6.95154480   -0.21594899
     atom    4 type  2   force =     1.78070703    6.90676858   -0.52123259
     atom    5 type  2   force =    -4.35447134   -6.21565994    1.13273957
     atom    6 type  2   force =    -4.23069584    6.34384317    0.84265267
     atom    7 type  2   force =    -7.46280968    0.12840248    1.68733893
     atom    8 type  3   force =     1.26374311   -3.19579502   -0.21551765
     atom    9 type  3   force =     1.32956006    3.15472793   -0.35590146
     atom   10 type  3   force =    -1.76646756   -2.87742118    0.46930198
     atom   11 type  3   force =    -1.70622464    2.93259718    0.33885690
     atom   12 type  3   force =    -3.31104526    0.05377684    0.74770621
     atom   13 type  3   force =     2.66640774    2.62512899    0.83229105
     atom   14 type  3   force =     2.64109403   -2.54508327    1.11037997
     atom   15 type  3   force =     1.43731049   -0.18578316   -3.53533629
     The core correction contribution to forces
     atom    1 type  1   force =    -0.00201150    0.00004080    0.00063281
     atom    2 type  2   force =     0.01269694   -0.00021741   -0.00333080
     atom    3 type  2   force =     0.00164425   -0.00027231   -0.00039980
     atom    4 type  2   force =     0.00188639    0.00036020   -0.00066638
     atom    5 type  2   force =    -0.00005933   -0.00146654   -0.00017890
     atom    6 type  2   force =    -0.00026515    0.00137921    0.00016085
     atom    7 type  2   force =    -0.00116608    0.00008728    0.00016428
     atom    8 type  3   force =     0.00000000    0.00000000    0.00000000
     atom    9 type  3   force =     0.00000000    0.00000000    0.00000000
     atom   10 type  3   force =     0.00000000    0.00000000    0.00000000
     atom   11 type  3   force =     0.00000000    0.00000000    0.00000000
     atom   12 type  3   force =     0.00000000    0.00000000    0.00000000
     atom   13 type  3   force =     0.00000000    0.00000000    0.00000000
     atom   14 type  3   force =     0.00000000    0.00000000    0.00000000
     atom   15 type  3   force =     0.00000000    0.00000000    0.00000000
     The Hubbard contrib.    to forces
     atom    1 type  1   force =     0.00000000    0.00000000    0.00000000
     atom    2 type  2   force =     0.00000000    0.00000000    0.00000000
     atom    3 type  2   force =     0.00000000    0.00000000    0.00000000
     atom    4 type  2   force =     0.00000000    0.00000000    0.00000000
     atom    5 type  2   force =     0.00000000    0.00000000    0.00000000
     atom    6 type  2   force =     0.00000000    0.00000000    0.00000000
     atom    7 type  2   force =     0.00000000    0.00000000    0.00000000
     atom    8 type  3   force =     0.00000000    0.00000000    0.00000000
     atom    9 type  3   force =     0.00000000    0.00000000    0.00000000
     atom   10 type  3   force =     0.00000000    0.00000000    0.00000000
     atom   11 type  3   force =     0.00000000    0.00000000    0.00000000
     atom   12 type  3   force =     0.00000000    0.00000000    0.00000000
     atom   13 type  3   force =     0.00000000    0.00000000    0.00000000
     atom   14 type  3   force =     0.00000000    0.00000000    0.00000000
     atom   15 type  3   force =     0.00000000    0.00000000    0.00000000
     The SCF correction term to forces
     atom    1 type  1   force =     0.00044495   -0.00003563   -0.00015035
     atom    2 type  2   force =    -0.00058999   -0.00002105    0.00003679
     atom    3 type  2   force =     0.00003209    0.00029959   -0.00005241
     atom    4 type  2   force =     0.00001947   -0.00028082   -0.00003841
     atom    5 type  2   force =    -0.00004934   -0.00002612   -0.00000980
     atom    6 type  2   force =    -0.00008486    0.00000596   -0.00000179
     atom    7 type  2   force =    -0.00002948    0.00003052   -0.00002365
     atom    8 type  3   force =     0.00000102    0.00001409    0.00000009
     atom    9 type  3   force =    -0.00000007   -0.00000885    0.00000065
     atom   10 type  3   force =    -0.00002958   -0.00000869    0.00000568
     atom   11 type  3   force =    -0.00003453    0.00000652    0.00000661
     atom   12 type  3   force =    -0.00003884    0.00000619    0.00000447
     atom   13 type  3   force =     0.00005417    0.00001263   -0.00000470
     atom   14 type  3   force =     0.00005060   -0.00001458   -0.00000444
     atom   15 type  3   force =     0.00002806   -0.00000220    0.00000248

     DFT-D3 dispersion contribution to forces:
     atom    1 type  1   force =    -0.00006977    0.00000017    0.00001851
     atom    2 type  2   force =     0.00011090   -0.00000305   -0.00003558
     atom    3 type  2   force =     0.00002436    0.00017980    0.00003494
     atom    4 type  2   force =     0.00002837   -0.00017601    0.00003919
     atom    5 type  2   force =    -0.00007285    0.00013808    0.00001582
     atom    6 type  2   force =    -0.00007608   -0.00013640    0.00002230
     atom    7 type  2   force =     0.00011094   -0.00000115   -0.00002257
     atom    8 type  3   force =    -0.00001946   -0.00003817    0.00002532
     atom    9 type  3   force =    -0.00000843    0.00003706    0.00002345
     atom   10 type  3   force =    -0.00001852   -0.00000612    0.00000388
     atom   11 type  3   force =    -0.00001819    0.00000589    0.00000363
     atom   12 type  3   force =    -0.00000894    0.00000043    0.00000228
     atom   13 type  3   force =    -0.00011209    0.00005302   -0.00004157
     atom   14 type  3   force =    -0.00009080   -0.00004743   -0.00004715
     atom   15 type  3   force =     0.00022057   -0.00000614   -0.00004246

     Total force =     0.034635     Total SCF correction =     0.000877

     DFT-D3 dispersion Force =     0.000484


     Computing stress (Cartesian axis) and pressure


     negative rho (up, down):  9.604E-03 0.000E+00
          total   stress  (Ry/bohr**3)                   (kbar)     P=       -0.00
   0.00000058  -0.00000003  -0.00000028            0.08       -0.00       -0.04
  -0.00000003  -0.00000042   0.00000002           -0.00       -0.06        0.00
  -0.00000028   0.00000002  -0.00000026           -0.04        0.00       -0.04

     kinetic stress (kbar)     57.74      0.03      1.40
                                0.03     57.23      0.13
                                1.40      0.13     63.64

     local   stress (kbar)   -421.38      2.72     76.31
                                2.72   -332.44      4.20
                               76.31      4.20   -105.56

     nonloc. stress (kbar)     13.07     -0.01     -0.19
                               -0.01     13.11     -0.02
                               -0.19     -0.02     12.30

     hartree stress (kbar)    187.25     -1.14    -30.72
                               -1.14    146.00     -1.57
                              -30.72     -1.57     59.96

     exc-cor stress (kbar)     -4.94     -0.00     -0.09
                               -0.00     -4.92     -0.01
                               -0.09     -0.01     -5.33

     corecor stress (kbar)     -9.94      0.00      0.03
                                0.00     -9.97      0.00
                                0.03      0.00     -9.83

     ewald   stress (kbar)    178.29     -1.61    -46.78
                               -1.61    130.93     -2.73
                              -46.78     -2.73    -15.22

     hubbard stress (kbar)      0.00      0.00      0.00
                                0.00      0.00      0.00
                                0.00      0.00      0.00

     DFT-D   stress (kbar)      0.00      0.00      0.00
                                0.00      0.00     -0.00
                                0.00     -0.00     -0.00

     XDM     stress (kbar)      0.00      0.00      0.00
                                0.00      0.00      0.00
                                0.00      0.00      0.00

     dft-nl  stress (kbar)      0.00      0.00      0.00
                                0.00      0.00      0.00
                                0.00      0.00      0.00

     TS-vdW  stress (kbar)      0.00      0.00      0.00
                                0.00      0.00      0.00
                                0.00      0.00      0.00

     MDB     stress (kbar)      0.00      0.00      0.00
                                0.00      0.00      0.00
                                0.00      0.00      0.00

     3D-RISM stress (kbar)      0.00      0.00      0.00
                                0.00      0.00      0.00
                                0.00      0.00      0.00

     Energy error            =      1.7E-03 Ry
     Gradient error          =      2.0E-02 Ry/Bohr

     number of scf cycles    =   2
     number of bfgs steps    =   1

     energy             old  =    -140.0602191025 Ry
     energy             new  =    -140.0619381964 Ry

     CASE: energy            _new < energy            _old

     new trust radius        =       0.0116663108 bohr
     new conv_thr            =       0.0000003923 Ry


ATOMIC_POSITIONS (angstrom)
N               -2.2435127391        0.2495594595        0.5879106171
C               -0.8196990918        0.2249108127        0.2244946540
C               -0.1494466290        1.4410726337        0.0527429707
C               -0.1757582823       -1.0097357987        0.1073033050
C                1.2082578461        1.4088781208       -0.2561268934
C                1.1819417049       -1.0218528799       -0.2005458614
C                1.8759781260        0.1836752021       -0.3814842401
H               -0.6800932748        2.3915698196        0.1510493657
H               -0.7264001653       -1.9437738773        0.2475118683
H                1.7483086549        2.3446454872       -0.4012449780
H                1.7022420877       -1.9740949617       -0.3035518671
H                2.9369144924        0.1663718190       -0.6206578682
H               -2.7460650128       -0.6065073710        0.2573275065
H               -2.7403151507        1.0709783345        0.1694272122
H               -2.3976405942        0.3051171434        1.6336448929



     Writing config-only to output data dir ./tmp/aniline_protonated.save/ :
     XML data file
     NEW-OLD atomic charge density approx. for the potential

     negative rho (up, down):  9.598E-03 0.000E+00

     total cpu time spent up to now is      212.4 secs

     Self-consistent Calculation

     iteration #  1     ecut=    40.00 Ry     beta= 0.40
     Davidson diagonalization with overlap

---- Real-time Memory Report at c_bands before calling an iterative solver
           580 MiB given to the printing process from OS
             0 MiB allocation reported by mallinfo(arena+hblkhd)
        110216 MiB available memory on the node where the printing process lives
------------------
     ethr =  1.00E-06,  avg # of iterations =  6.0

     negative rho (up, down):  9.588E-03 0.000E+00

     total cpu time spent up to now is      226.0 secs

     total energy              =    -140.06226151 Ry
     estimated scf accuracy    <       0.00029252 Ry

     iteration #  2     ecut=    40.00 Ry     beta= 0.40
     Davidson diagonalization with overlap

---- Real-time Memory Report at c_bands before calling an iterative solver
           580 MiB given to the printing process from OS
             0 MiB allocation reported by mallinfo(arena+hblkhd)
        108594 MiB available memory on the node where the printing process lives
------------------
     ethr =  7.91E-07,  avg # of iterations =  5.8

     negative rho (up, down):  9.598E-03 0.000E+00

     total cpu time spent up to now is      235.9 secs

     total energy              =    -140.06222206 Ry
     estimated scf accuracy    <       0.00125238 Ry

     iteration #  3     ecut=    40.00 Ry     beta= 0.40
     Davidson diagonalization with overlap

---- Real-time Memory Report at c_bands before calling an iterative solver
           580 MiB given to the printing process from OS
             0 MiB allocation reported by mallinfo(arena+hblkhd)
        108478 MiB available memory on the node where the printing process lives
------------------
     ethr =  7.91E-07,  avg # of iterations =  5.0

     negative rho (up, down):  9.592E-03 0.000E+00

     total cpu time spent up to now is      245.2 secs

     total energy              =    -140.06233607 Ry
     estimated scf accuracy    <       0.00002747 Ry

     iteration #  4     ecut=    40.00 Ry     beta= 0.40
     Davidson diagonalization with overlap

---- Real-time Memory Report at c_bands before calling an iterative solver
           580 MiB given to the printing process from OS
             0 MiB allocation reported by mallinfo(arena+hblkhd)
        108360 MiB available memory on the node where the printing process lives
------------------
     ethr =  7.42E-08,  avg # of iterations =  2.0

     negative rho (up, down):  9.590E-03 0.000E+00

     total cpu time spent up to now is      255.0 secs

     total energy              =    -140.06234032 Ry
     estimated scf accuracy    <       0.00000228 Ry

     iteration #  5     ecut=    40.00 Ry     beta= 0.40
     Davidson diagonalization with overlap

---- Real-time Memory Report at c_bands before calling an iterative solver
           580 MiB given to the printing process from OS
             0 MiB allocation reported by mallinfo(arena+hblkhd)
        108255 MiB available memory on the node where the printing process lives
------------------
     ethr =  6.16E-09,  avg # of iterations =  4.0

     negative rho (up, down):  9.588E-03 0.000E+00

     total cpu time spent up to now is      264.3 secs

     total energy              =    -140.06234048 Ry
     estimated scf accuracy    <       0.00000065 Ry

     iteration #  6     ecut=    40.00 Ry     beta= 0.40
     Davidson diagonalization with overlap

---- Real-time Memory Report at c_bands before calling an iterative solver
           580 MiB given to the printing process from OS
             0 MiB allocation reported by mallinfo(arena+hblkhd)
        108136 MiB available memory on the node where the printing process lives
------------------
     ethr =  1.76E-09,  avg # of iterations =  4.0

     negative rho (up, down):  9.587E-03 0.000E+00

     total cpu time spent up to now is      274.6 secs

     End of self-consistent calculation

          k = 0.0000 0.0000 0.0000 (450991 PWs)   bands (ev):

   -25.2938 -21.4538 -18.8804 -18.6714 -15.7135 -15.5378 -14.3263 -13.9051
   -13.6675 -12.2003 -11.1283 -10.8767 -10.6270  -9.3470  -8.9479  -8.6383
    -6.6857  -6.6142  -1.8803  -1.7373  -1.6356  -0.7056  -0.5722

     occupation numbers 
     1.0000   1.0000   1.0000   1.0000   1.0000   1.0000   1.0000   1.0000
     1.0000   1.0000   1.0000   1.0000   1.0000   1.0000   1.0000   1.0000
     1.0000   1.0000   0.3585   0.1079   0.0337   0.0000   0.0000

          k = 0.0000 0.3333 0.0000 (450515 PWs)   bands (ev):

   -25.2938 -21.4538 -18.8804 -18.6714 -15.7135 -15.5378 -14.3263 -13.9050
   -13.6674 -12.2003 -11.1283 -10.8766 -10.6269  -9.3470  -8.9479  -8.6383
    -6.6857  -6.6142  -1.8803  -1.7373  -1.6356  -0.7061  -0.5714

     occupation numbers 
     1.0000   1.0000   1.0000   1.0000   1.0000   1.0000   1.0000   1.0000
     1.0000   1.0000   1.0000   1.0000   1.0000   1.0000   1.0000   1.0000
     1.0000   1.0000   0.3585   0.1079   0.0337   0.0000   0.0000

          k = 0.3333 0.0000 0.0000 (450515 PWs)   bands (ev):

   -25.2938 -21.4538 -18.8804 -18.6714 -15.7135 -15.5378 -14.3263 -13.9050
   -13.6674 -12.2003 -11.1283 -10.8766 -10.6269  -9.3470  -8.9479  -8.6383
    -6.6857  -6.6142  -1.8803  -1.7373  -1.6356  -0.7056  -0.5724

     occupation numbers 
     1.0000   1.0000   1.0000   1.0000   1.0000   1.0000   1.0000   1.0000
     1.0000   1.0000   1.0000   1.0000   1.0000   1.0000   1.0000   1.0000
     1.0000   1.0000   0.3585   0.1079   0.0337   0.0000   0.0000

          k = 0.3333 0.3333 0.0000 (450333 PWs)   bands (ev):

   -25.2938 -21.4538 -18.8804 -18.6714 -15.7135 -15.5378 -14.3263 -13.9050
   -13.6674 -12.2003 -11.1283 -10.8766 -10.6269  -9.3470  -8.9479  -8.6383
    -6.6857  -6.6142  -1.8803  -1.7373  -1.6356  -0.7061  -0.5714

     occupation numbers 
     1.0000   1.0000   1.0000   1.0000   1.0000   1.0000   1.0000   1.0000
     1.0000   1.0000   1.0000   1.0000   1.0000   1.0000   1.0000   1.0000
     1.0000   1.0000   0.3585   0.1079   0.0337   0.0000   0.0000

          k = 0.3333-0.3333 0.0000 (450333 PWs)   bands (ev):

   -25.2938 -21.4538 -18.8804 -18.6714 -15.7135 -15.5378 -14.3263 -13.9050
   -13.6674 -12.2003 -11.1283 -10.8766 -10.6269  -9.3470  -8.9479  -8.6383
    -6.6857  -6.6142  -1.8803  -1.7373  -1.6356  -0.7061  -0.5716

     occupation numbers 
     1.0000   1.0000   1.0000   1.0000   1.0000   1.0000   1.0000   1.0000
     1.0000   1.0000   1.0000   1.0000   1.0000   1.0000   1.0000   1.0000
     1.0000   1.0000   0.3585   0.1079   0.0337   0.0000   0.0000

     the Fermi energy is    -1.8975 ev

!    total energy              =    -140.06234040 Ry
     estimated scf accuracy    <       0.00000020 Ry
     smearing contrib. (-TS)   =      -0.01228943 Ry
     internal energy E=F+TS    =    -140.05005097 Ry

     The total energy is F=E-TS. E is the sum of the following terms:
     one-electron contribution =    -556.96252820 Ry
     hartree contribution      =     281.82645273 Ry
     xc contribution           =     -38.62496579 Ry
     ewald contribution        =     210.72261573 Ry
     DFT-D3 Dispersion         =      -0.00961922 Ry
     one-center paw contrib.   =     -37.00200621 Ry
      -> PAW hartree energy AE =       0.00000000 Ry
      -> PAW hartree energy PS =       0.00000000 Ry
      -> PAW xc energy AE      =       0.00000000 Ry
      -> PAW xc energy PS      =       0.00000000 Ry
      -> total E_H with PAW    =     281.82645273 Ry
      -> total E_XC with PAW   =     -38.62496579 Ry

     convergence has been achieved in   6 iterations

     negative rho (up, down):  9.587E-03 0.000E+00

     Forces acting on atoms (cartesian axes, Ry/au):

     atom    1 type  1   force =    -0.00568448    0.00034175    0.00236599
     atom    2 type  2   force =    -0.00231163    0.00000390   -0.00629834
     atom    3 type  2   force =    -0.00213526    0.00362637    0.00154844
     atom    4 type  2   force =    -0.00205774   -0.00362022    0.00149194
     atom    5 type  2   force =     0.00497506    0.00102765   -0.00000601
     atom    6 type  2   force =     0.00536207   -0.00118860   -0.00002837
     atom    7 type  2   force =     0.00183167   -0.00016424   -0.00094817
     atom    8 type  3   force =     0.00083047   -0.00320831   -0.00037469
     atom    9 type  3   force =     0.00087327    0.00330620   -0.00048962
     atom   10 type  3   force =     0.00012655    0.00007087   -0.00001968
     atom   11 type  3   force =    -0.00003441   -0.00018562    0.00005943
     atom   12 type  3   force =     0.00300542    0.00007364   -0.00106129
     atom   13 type  3   force =    -0.00109906    0.00109295    0.00009733
     atom   14 type  3   force =    -0.00093084   -0.00144202    0.00024153
     atom   15 type  3   force =    -0.00275109    0.00026566    0.00342151
     The non-local contrib.  to forces
     atom    1 type  1   force =     0.11590450   -0.00385768   -0.05892438
     atom    2 type  2   force =    -0.55879014    0.01035452    0.15190601
     atom    3 type  2   force =    -0.06922413   -0.04733843    0.02104474
     atom    4 type  2   force =    -0.06898118    0.04656545    0.01934911
     atom    5 type  2   force =    -0.02808662    0.01799537    0.00538457
     atom    6 type  2   force =    -0.02827412   -0.01484209    0.00570409
     atom    7 type  2   force =    -0.00705951   -0.00122252   -0.00086517
     atom    8 type  3   force =     0.03636912   -0.06805166   -0.00678272
     atom    9 type  3   force =     0.03775228    0.06688684   -0.00976614
     atom   10 type  3   force =    -0.03889984   -0.06709726    0.01043023
     atom   11 type  3   force =    -0.03749827    0.06828331    0.00741529
     atom   12 type  3   force =    -0.07659717    0.00125291    0.01723327
     atom   13 type  3   force =     0.04437092    0.07434024    0.02877727
     atom   14 type  3   force =     0.04362092   -0.07100412    0.03626396
     atom   15 type  3   force =     0.01245761   -0.00448406   -0.08485391
     The ionic contribution  to forces
     atom    1 type  1   force =    -8.10706762    0.14122631    2.06663315
     atom    2 type  2   force =    -2.22064094    0.03429881    0.29118703
     atom    3 type  2   force =    -1.60074453    7.04351606    0.21924285
     atom    4 type  2   force =    -1.74857854   -6.99524795    0.52680807
     atom    5 type  2   force =     4.42294535    6.22371406   -1.14284440
     atom    6 type  2   force =     4.30009839   -6.35722240   -0.85196122
     atom    7 type  2   force =     7.49999234   -0.12688749   -1.69812913
     atom    8 type  3   force =    -1.29559214    3.24828302    0.22071541
     atom    9 type  3   force =    -1.36333122   -3.20703325    0.36380972
     atom   10 type  3   force =     1.80368731    2.93678728   -0.47987551
     atom   11 type  3   force =     1.74135627   -2.99264028   -0.34652798
     atom   12 type  3   force =     3.38495327   -0.05460894   -0.76459286
     atom   13 type  3   force =    -2.70338417   -2.70961639   -0.86745203
     atom   14 type  3   force =    -2.67687716    2.62493308   -1.15393245
     atom   15 type  3   force =    -1.43681662    0.19049807    3.61691936
     The local contribution  to forces
     atom    1 type  1   force =     7.98806469   -0.13705471   -2.00616342
     atom    2 type  2   force =     2.76413030   -0.04440598   -0.44595168
     atom    3 type  2   force =     1.66614422   -6.99229620   -0.23839781
     atom    4 type  2   force =     1.81359167    6.94474722   -0.54405740
     atom    5 type  2   force =    -4.38944672   -6.23958804    1.13750856
     atom    6 type  2   force =    -4.26577678    6.36983928    0.84594760
     atom    7 type  2   force =    -7.49017845    0.12785710    1.69788592
     atom    8 type  3   force =     1.26013975   -3.18343129   -0.21437868
     atom    9 type  3   force =     1.32652773    3.14345113   -0.35460394
     atom   10 type  3   force =    -1.76462480   -2.86965952    0.46938850
     atom   11 type  3   force =    -1.70385719    2.92422996    0.33913320
     atom   12 type  3   force =    -3.30539485    0.05343506    0.74627857
     atom   13 type  3   force =     2.65807461    2.63629246    0.83875441
     atom   14 type  3   force =     2.63246571   -2.55528882    1.11789511
     atom   15 type  3   force =     1.42145276   -0.18573333   -3.52860693
     The core correction contribution to forces
     atom    1 type  1   force =    -0.00211101    0.00004050    0.00069218
     atom    2 type  2   force =     0.01329139   -0.00022395   -0.00353960
     atom    3 type  2   force =     0.00187740   -0.00071874   -0.00046137
     atom    4 type  2   force =     0.00212548    0.00078299   -0.00074869
     atom    5 type  2   force =    -0.00037323   -0.00159175   -0.00009531
     atom    6 type  2   force =    -0.00058746    0.00153697    0.00021310
     atom    7 type  2   force =    -0.00126209    0.00008028    0.00020534
     atom    8 type  3   force =     0.00000000    0.00000000    0.00000000
     atom    9 type  3   force =     0.00000000    0.00000000    0.00000000
     atom   10 type  3   force =     0.00000000    0.00000000    0.00000000
     atom   11 type  3   force =     0.00000000    0.00000000    0.00000000
     atom   12 type  3   force =     0.00000000    0.00000000    0.00000000
     atom   13 type  3   force =     0.00000000    0.00000000    0.00000000
     atom   14 type  3   force =     0.00000000    0.00000000    0.00000000
     atom   15 type  3   force =     0.00000000    0.00000000    0.00000000
     The Hubbard contrib.    to forces
     atom    1 type  1   force =     0.00000000    0.00000000    0.00000000
     atom    2 type  2   force =     0.00000000    0.00000000    0.00000000
     atom    3 type  2   force =     0.00000000    0.00000000    0.00000000
     atom    4 type  2   force =     0.00000000    0.00000000    0.00000000
     atom    5 type  2   force =     0.00000000    0.00000000    0.00000000
     atom    6 type  2   force =     0.00000000    0.00000000    0.00000000
     atom    7 type  2   force =     0.00000000    0.00000000    0.00000000
     atom    8 type  3   force =     0.00000000    0.00000000    0.00000000
     atom    9 type  3   force =     0.00000000    0.00000000    0.00000000
     atom   10 type  3   force =     0.00000000    0.00000000    0.00000000
     atom   11 type  3   force =     0.00000000    0.00000000    0.00000000
     atom   12 type  3   force =     0.00000000    0.00000000    0.00000000
     atom   13 type  3   force =     0.00000000    0.00000000    0.00000000
     atom   14 type  3   force =     0.00000000    0.00000000    0.00000000
     atom   15 type  3   force =     0.00000000    0.00000000    0.00000000
     The SCF correction term to forces
     atom    1 type  1   force =    -0.00037073   -0.00000703    0.00007299
     atom    2 type  2   force =    -0.00038874   -0.00001001    0.00010237
     atom    3 type  2   force =    -0.00018224    0.00029336    0.00004843
     atom    4 type  2   force =    -0.00021340   -0.00028893    0.00006522
     atom    5 type  2   force =     0.00004330    0.00036697   -0.00001285
     atom    6 type  2   force =     0.00001236   -0.00035899    0.00000819
     atom    7 type  2   force =     0.00026120    0.00001555   -0.00005974
     atom    8 type  3   force =    -0.00003313    0.00003611    0.00000835
     atom    9 type  3   force =    -0.00003370   -0.00002979    0.00000973
     atom   10 type  3   force =     0.00001384    0.00005157   -0.00000348
     atom   11 type  3   force =     0.00001427   -0.00005748   -0.00000143
     atom   12 type  3   force =     0.00008293    0.00000048   -0.00001889
     atom   13 type  3   force =    -0.00001724    0.00003062    0.00002250
     atom   14 type  3   force =    -0.00001859   -0.00002958    0.00002534
     atom   15 type  3   force =    -0.00003217   -0.00000302   -0.00003364

     DFT-D3 dispersion contribution to forces:
     atom    1 type  1   force =    -0.00007261    0.00000045    0.00001861
     atom    2 type  2   force =     0.00011820   -0.00000340   -0.00003932
     atom    3 type  2   force =     0.00002572    0.00017641    0.00003473
     atom    4 type  2   force =     0.00002992   -0.00017292    0.00003875
     atom    5 type  2   force =    -0.00007533    0.00013712    0.00001655
     atom    6 type  2   force =    -0.00007863   -0.00013528    0.00002300
     atom    7 type  2   force =     0.00010988   -0.00000107   -0.00002226
     atom    8 type  3   force =    -0.00002143   -0.00003841    0.00002608
     atom    9 type  3   force =    -0.00001011    0.00003736    0.00002414
     atom   10 type  3   force =    -0.00001827   -0.00000511    0.00000372
     atom   11 type  3   force =    -0.00001780    0.00000495    0.00000348
     atom   12 type  3   force =    -0.00000706    0.00000022    0.00000176
     atom   13 type  3   force =    -0.00011148    0.00005210   -0.00004169
     atom   14 type  3   force =    -0.00009002   -0.00004650   -0.00004731
     atom   15 type  3   force =     0.00021903   -0.00000592   -0.00004024

     Total force =     0.015525     Total SCF correction =     0.000960

     DFT-D3 dispersion Force =     0.000483


     Computing stress (Cartesian axis) and pressure


     negative rho (up, down):  9.587E-03 0.000E+00
          total   stress  (Ry/bohr**3)                   (kbar)     P=       -0.01
   0.00000054  -0.00000002  -0.00000024            0.08       -0.00       -0.04
  -0.00000002  -0.00000043   0.00000001           -0.00       -0.06        0.00
  -0.00000024   0.00000001  -0.00000025           -0.04        0.00       -0.04

     kinetic stress (kbar)     57.73      0.03      1.40
                                0.03     57.21      0.13
                                1.40      0.13     63.63

     local   stress (kbar)   -421.41      2.71     76.27
                                2.71   -332.33      4.20
                               76.27      4.20   -105.58

     nonloc. stress (kbar)     13.08     -0.01     -0.19
                               -0.01     13.12     -0.02
                               -0.19     -0.02     12.30

     hartree stress (kbar)    187.28     -1.14    -30.72
                               -1.14    145.92     -1.56
                              -30.72     -1.56     59.98

     exc-cor stress (kbar)     -4.94     -0.00     -0.09
                               -0.00     -4.92     -0.01
                               -0.09     -0.01     -5.33

     corecor stress (kbar)     -9.94      0.00      0.03
                                0.00     -9.97      0.00
                                0.03      0.00     -9.83

     ewald   stress (kbar)    178.29     -1.60    -46.73
                               -1.60    130.91     -2.74
                              -46.73     -2.74    -15.21

     hubbard stress (kbar)      0.00      0.00      0.00
                                0.00      0.00      0.00
                                0.00      0.00      0.00

     DFT-D   stress (kbar)      0.00      0.00      0.00
                                0.00      0.00     -0.00
                                0.00     -0.00     -0.00

     XDM     stress (kbar)      0.00      0.00      0.00
                                0.00      0.00      0.00
                                0.00      0.00      0.00

     dft-nl  stress (kbar)      0.00      0.00      0.00
                                0.00      0.00      0.00
                                0.00      0.00      0.00

     TS-vdW  stress (kbar)      0.00      0.00      0.00
                                0.00      0.00      0.00
[...]
------------------
     ethr =  1.71E-08,  avg # of iterations =  1.0

     negative rho (up, down):  9.886E-03 0.000E+00

     total cpu time spent up to now is     1276.7 secs

     total energy              =    -140.06535515 Ry
     estimated scf accuracy    <       0.00000138 Ry

     iteration #  5     ecut=    40.00 Ry     beta= 0.40
     Davidson diagonalization with overlap

---- Real-time Memory Report at c_bands before calling an iterative solver
           583 MiB given to the printing process from OS
             0 MiB allocation reported by mallinfo(arena+hblkhd)
        108163 MiB available memory on the node where the printing process lives
------------------
     ethr =  3.72E-09,  avg # of iterations =  2.0

     negative rho (up, down):  9.886E-03 0.000E+00

     total cpu time spent up to now is     1285.4 secs

     total energy              =    -140.06535532 Ry
     estimated scf accuracy    <       0.00000009 Ry

     iteration #  6     ecut=    40.00 Ry     beta= 0.40
     Davidson diagonalization with overlap

---- Real-time Memory Report at c_bands before calling an iterative solver
           583 MiB given to the printing process from OS
             0 MiB allocation reported by mallinfo(arena+hblkhd)
        108052 MiB available memory on the node where the printing process lives
------------------
     ethr =  2.55E-10,  avg # of iterations =  4.0

     negative rho (up, down):  9.887E-03 0.000E+00

     total cpu time spent up to now is     1295.5 secs

     End of self-consistent calculation

          k = 0.0000 0.0000 0.0000 (450991 PWs)   bands (ev):

   -25.0176 -21.1720 -18.6320 -18.4129 -15.4666 -15.3259 -13.8569 -13.8257
   -13.4169 -12.0007 -10.8676 -10.6778 -10.3998  -9.0504  -8.7900  -8.3753
    -6.4679  -6.3417  -1.9943  -1.5535  -1.4263  -0.5953  -0.4988

     occupation numbers 
     1.0000   1.0000   1.0000   1.0000   1.0000   1.0000   1.0000   1.0000
     1.0000   1.0000   1.0000   1.0000   1.0000   1.0000   1.0000   1.0000
     1.0000   1.0000   0.4954   0.0042   0.0004   0.0000   0.0000

          k = 0.0000 0.3333 0.0000 (450515 PWs)   bands (ev):

   -25.0175 -21.1720 -18.6320 -18.4129 -15.4666 -15.3259 -13.8569 -13.8256
   -13.4169 -12.0007 -10.8676 -10.6778 -10.3998  -9.0503  -8.7899  -8.3752
    -6.4679  -6.3417  -1.9943  -1.5535  -1.4263  -0.5961  -0.4979

     occupation numbers 
     1.0000   1.0000   1.0000   1.0000   1.0000   1.0000   1.0000   1.0000
     1.0000   1.0000   1.0000   1.0000   1.0000   1.0000   1.0000   1.0000
     1.0000   1.0000   0.4954   0.0042   0.0004   0.0000   0.0000

          k = 0.3333 0.0000 0.0000 (450515 PWs)   bands (ev):

   -25.0175 -21.1720 -18.6320 -18.4129 -15.4666 -15.3259 -13.8569 -13.8257
   -13.4169 -12.0007 -10.8676 -10.6778 -10.3998  -9.0503  -8.7899  -8.3752
    -6.4679  -6.3417  -1.9943  -1.5535  -1.4263  -0.5952  -0.4988

     occupation numbers 
     1.0000   1.0000   1.0000   1.0000   1.0000   1.0000   1.0000   1.0000
     1.0000   1.0000   1.0000   1.0000   1.0000   1.0000   1.0000   1.0000
     1.0000   1.0000   0.4954   0.0042   0.0004   0.0000   0.0000

          k = 0.3333 0.3333 0.0000 (450333 PWs)   bands (ev):

   -25.0175 -21.1720 -18.6320 -18.4129 -15.4666 -15.3259 -13.8569 -13.8256
   -13.4169 -12.0007 -10.8676 -10.6778 -10.3998  -9.0503  -8.7899  -8.3752
    -6.4679  -6.3417  -1.9943  -1.5535  -1.4263  -0.5960  -0.4981

     occupation numbers 
     1.0000   1.0000   1.0000   1.0000   1.0000   1.0000   1.0000   1.0000
     1.0000   1.0000   1.0000   1.0000   1.0000   1.0000   1.0000   1.0000
     1.0000   1.0000   0.4954   0.0042   0.0004   0.0000   0.0000

          k = 0.3333-0.3333 0.0000 (450333 PWs)   bands (ev):

   -25.0175 -21.1720 -18.6320 -18.4129 -15.4666 -15.3259 -13.8569 -13.8256
   -13.4169 -12.0007 -10.8676 -10.6778 -10.3998  -9.0503  -8.7899  -8.3752
    -6.4679  -6.3417  -1.9943  -1.5535  -1.4263  -0.5960  -0.4979

     occupation numbers 
     1.0000   1.0000   1.0000   1.0000   1.0000   1.0000   1.0000   1.0000
     1.0000   1.0000   1.0000   1.0000   1.0000   1.0000   1.0000   1.0000
     1.0000   1.0000   0.4954   0.0042   0.0004   0.0000   0.0000

     the Fermi energy is    -1.9581 ev

!    total energy              =    -140.06535529 Ry
     estimated scf accuracy    <       0.00000002 Ry
     smearing contrib. (-TS)   =      -0.00690870 Ry
     internal energy E=F+TS    =    -140.05844660 Ry

     The total energy is F=E-TS. E is the sum of the following terms:
     one-electron contribution =    -555.37955256 Ry
     hartree contribution      =     281.33788636 Ry
     xc contribution           =     -38.60559768 Ry
     ewald contribution        =     209.59842320 Ry
     DFT-D3 Dispersion         =      -0.00964032 Ry
     one-center paw contrib.   =     -36.99996559 Ry
      -> PAW hartree energy AE =       0.00000000 Ry
      -> PAW hartree energy PS =       0.00000000 Ry
      -> PAW xc energy AE      =       0.00000000 Ry
      -> PAW xc energy PS      =       0.00000000 Ry
      -> total E_H with PAW    =     281.33788636 Ry
      -> total E_XC with PAW   =     -38.60559768 Ry

     convergence has been achieved in   6 iterations

     negative rho (up, down):  9.887E-03 0.000E+00

     Forces acting on atoms (cartesian axes, Ry/au):

     atom    1 type  1   force =     0.00146889   -0.00036249    0.00112585
     atom    2 type  2   force =     0.00473080    0.00006029   -0.00141093
     atom    3 type  2   force =     0.00031382   -0.00146615   -0.00072087
     atom    4 type  2   force =    -0.00079081    0.00113634   -0.00057979
     atom    5 type  2   force =    -0.00037104   -0.00055199   -0.00016526
     atom    6 type  2   force =     0.00069646   -0.00046281   -0.00049519
     atom    7 type  2   force =     0.00080297    0.00041431   -0.00027410
     atom    8 type  3   force =    -0.00201491   -0.00187552   -0.00084299
     atom    9 type  3   force =    -0.00169007    0.00236433   -0.00084087
     atom   10 type  3   force =    -0.00136657   -0.00205666    0.00001227
     atom   11 type  3   force =    -0.00169859    0.00251853    0.00002283
     atom   12 type  3   force =    -0.00024843    0.00011168    0.00266773
     atom   13 type  3   force =    -0.00027575    0.00299042    0.00151911
     atom   14 type  3   force =    -0.00014750   -0.00271489    0.00187784
     atom   15 type  3   force =     0.00059072   -0.00010539   -0.00189563
     The non-local contrib.  to forces
     atom    1 type  1   force =    -0.04454387   -0.00939410   -0.20706449
     atom    2 type  2   force =    -0.48438563    0.01246724    0.29118636
     atom    3 type  2   force =    -0.07573145   -0.03575050    0.00934710
     atom    4 type  2   force =    -0.07658623    0.03611248    0.00736294
     atom    5 type  2   force =    -0.02233377    0.02317900   -0.00228692
     atom    6 type  2   force =    -0.02184624   -0.02334313   -0.00165869
     atom    7 type  2   force =    -0.01170260    0.00002482   -0.00591086
     atom    8 type  3   force =     0.03470204   -0.06879876   -0.00668573
     atom    9 type  3   force =     0.03609642    0.06759416   -0.00959280
     atom   10 type  3   force =    -0.03889358   -0.06678715    0.00721072
     atom   11 type  3   force =    -0.03741268    0.06774990    0.00435586
     atom   12 type  3   force =    -0.07538948    0.00125651    0.01884733
     atom   13 type  3   force =     0.04826825    0.07909259    0.02692969
     atom   14 type  3   force =     0.04847431   -0.07610972    0.03515418
     atom   15 type  3   force =     0.00559597   -0.00354937   -0.06923119
     The ionic contribution  to forces
     atom    1 type  1   force =    -7.80514940    0.15898349    2.64189755
     atom    2 type  2   force =    -2.66773090   -0.00632678   -1.42331867
     atom    3 type  2   force =    -1.64127960    6.87357068    0.28244755
     atom    4 type  2   force =    -1.78790308   -6.81822482    0.60730919
     atom    5 type  2   force =     4.47576830    6.16451992   -0.79465333
     atom    6 type  2   force =     4.34500861   -6.28959427   -0.52678418
     atom    7 type  2   force =     7.50238763   -0.11863814   -1.68465093
     atom    8 type  3   force =    -1.26729045    3.25841103    0.20691166
     atom    9 type  3   force =    -1.33493340   -3.21679342    0.34973960
     atom   10 type  3   force =     1.81565856    2.93228233   -0.34152786
     atom   11 type  3   force =     1.75112900   -2.98120271   -0.21545304
     atom   12 type  3   force =     3.35262262   -0.05485679   -0.81408276
     atom   13 type  3   force =    -2.77881385   -2.75921706   -0.72375647
     atom   14 type  3   force =    -2.77550523    2.68107488   -1.01588225
     atom   15 type  3   force =    -1.18396880    0.17601166    3.45180393
     The local contribution  to forces
     atom    1 type  1   force =     7.85176586   -0.15001394   -2.43550337
     atom    2 type  2   force =     3.14520291   -0.00586442    1.13568585
     atom    3 type  2   force =     1.71503628   -6.83893582   -0.29165458
     atom    4 type  2   force =     1.86112483    6.78287470   -0.61492732
     atom    5 type  2   force =    -4.45313225   -6.18677848    0.79633185
     atom    6 type  2   force =    -4.32161057    6.31097089    0.52806051
     atom    7 type  2   force =    -7.48864898    0.11900956    1.68997108
     atom    8 type  3   force =     1.23062320   -3.19140158   -0.20111012
     atom    9 type  3   force =     1.29718491    3.15149523   -0.34102592
     atom   10 type  3   force =    -1.77814024   -2.86753005    0.33431773
     atom   11 type  3   force =    -1.71542395    2.91596784    0.21110896
     atom   12 type  3   force =    -3.27748757    0.05372031    0.79790761
     atom   13 type  3   force =     2.73031287    2.68309918    0.69836791
     atom   14 type  3   force =     2.72690149   -2.60765264    0.98263521
     atom   15 type  3   force =     1.17872853   -0.17255427   -3.38446606
     The core correction contribution to forces
     atom    1 type  1   force =    -0.00068547    0.00007823    0.00168363
     atom    2 type  2   force =     0.01146944   -0.00020082   -0.00487665
     atom    3 type  2   force =     0.00226924   -0.00047882   -0.00086456
     atom    4 type  2   force =     0.00253975    0.00051259   -0.00033204
     atom    5 type  2   force =    -0.00058778   -0.00158538    0.00038723
     atom    6 type  2   force =    -0.00076101    0.00162367   -0.00017643
     atom    7 type  2   force =    -0.00134206    0.00002620    0.00032239
     atom    8 type  3   force =     0.00000000    0.00000000    0.00000000
     atom    9 type  3   force =     0.00000000    0.00000000    0.00000000
     atom   10 type  3   force =     0.00000000    0.00000000    0.00000000
     atom   11 type  3   force =     0.00000000    0.00000000    0.00000000
     atom   12 type  3   force =     0.00000000    0.00000000    0.00000000
     atom   13 type  3   force =     0.00000000    0.00000000    0.00000000
     atom   14 type  3   force =     0.00000000    0.00000000    0.00000000
     atom   15 type  3   force =     0.00000000    0.00000000    0.00000000
     The Hubbard contrib.    to forces
     atom    1 type  1   force =     0.00000000    0.00000000    0.00000000
     atom    2 type  2   force =     0.00000000    0.00000000    0.00000000
     atom    3 type  2   force =     0.00000000    0.00000000    0.00000000
     atom    4 type  2   force =     0.00000000    0.00000000    0.00000000
     atom    5 type  2   force =     0.00000000    0.00000000    0.00000000
     atom    6 type  2   force =     0.00000000    0.00000000    0.00000000
     atom    7 type  2   force =     0.00000000    0.00000000    0.00000000
     atom    8 type  3   force =     0.00000000    0.00000000    0.00000000
     atom    9 type  3   force =     0.00000000    0.00000000    0.00000000
     atom   10 type  3   force =     0.00000000    0.00000000    0.00000000
     atom   11 type  3   force =     0.00000000    0.00000000    0.00000000
     atom   12 type  3   force =     0.00000000    0.00000000    0.00000000
     atom   13 type  3   force =     0.00000000    0.00000000    0.00000000
     atom   14 type  3   force =     0.00000000    0.00000000    0.00000000
     atom   15 type  3   force =     0.00000000    0.00000000    0.00000000
     The SCF correction term to forces
     atom    1 type  1   force =     0.00012711   -0.00000693    0.00009570
     atom    2 type  2   force =     0.00006482   -0.00000156    0.00002651
     atom    3 type  2   force =     0.00000785   -0.00003414   -0.00002278
     atom    4 type  2   force =     0.00001226    0.00003973   -0.00002301
     atom    5 type  2   force =    -0.00001930   -0.00001564    0.00001366
     atom    6 type  2   force =    -0.00002482    0.00002265    0.00001540
     atom    7 type  2   force =    -0.00003005    0.00000243    0.00000907
     atom    8 type  3   force =     0.00000474   -0.00000663   -0.00000332
     atom    9 type  3   force =     0.00000472    0.00000660   -0.00000338
     atom   10 type  3   force =    -0.00000056   -0.00000313    0.00000316
     atom   11 type  3   force =    -0.00000025    0.00000277    0.00000324
     atom   12 type  3   force =     0.00000177    0.00000025    0.00000020
     atom   13 type  3   force =     0.00000996   -0.00000839    0.00000658
     atom   14 type  3   force =     0.00000949    0.00000837    0.00000511
     atom   15 type  3   force =     0.00000553   -0.00000073    0.00000413

     DFT-D3 dispersion contribution to forces:
     atom    1 type  1   force =    -0.00005706   -0.00000045    0.00001261
     atom    2 type  2   force =     0.00009844   -0.00000459   -0.00011855
     atom    3 type  2   force =    -0.00000022    0.00017124    0.00002217
     atom    4 type  2   force =     0.00000993   -0.00016955    0.00002623
     atom    5 type  2   force =    -0.00007795    0.00013737    0.00003803
     atom    6 type  2   force =    -0.00008124   -0.00013383    0.00004396
     atom    7 type  2   force =     0.00012731   -0.00000178   -0.00001907
     atom    8 type  3   force =    -0.00006617   -0.00007079    0.00004031
     atom    9 type  3   force =    -0.00005444    0.00007055    0.00003740
     atom   10 type  3   force =    -0.00000246   -0.00000988    0.00000430
     atom   11 type  3   force =    -0.00000243    0.00000951    0.00000359
     atom   12 type  3   force =    -0.00000750    0.00000019   -0.00000887
     atom   13 type  3   force =    -0.00006470    0.00003290   -0.00003283
     atom   14 type  3   force =    -0.00003929   -0.00002700   -0.00003863
     atom   15 type  3   force =     0.00021777   -0.00000390   -0.00001065

     Total force =     0.010070     Total SCF correction =     0.000195

     DFT-D3 dispersion Force =     0.000484


     Computing stress (Cartesian axis) and pressure


     negative rho (up, down):  9.887E-03 0.000E+00
          total   stress  (Ry/bohr**3)                   (kbar)     P=       -0.09
  -0.00000055   0.00000001   0.00000004           -0.08        0.00        0.01
   0.00000001  -0.00000084   0.00000001            0.00       -0.12        0.00
   0.00000004   0.00000001  -0.00000045            0.01        0.00       -0.07

     kinetic stress (kbar)     57.44      0.03      1.33
                                0.03     57.03      0.15
                                1.33      0.15     63.76

     local   stress (kbar)   -421.88      2.61     72.13
                                2.61   -329.82      4.11
                               72.13      4.11   -105.30

     nonloc. stress (kbar)     13.10     -0.00     -0.15
                               -0.00     13.10     -0.02
                               -0.15     -0.02     12.27

     hartree stress (kbar)    187.33     -1.11    -29.40
                               -1.11    144.95     -1.51
                              -29.40     -1.51     60.22

     exc-cor stress (kbar)     -4.93     -0.00     -0.09
                               -0.00     -4.92     -0.01
                               -0.09     -0.01     -5.32

     corecor stress (kbar)     -9.94      0.00      0.02
                                0.00     -9.96      0.00
                                0.02      0.00     -9.82

     ewald   stress (kbar)    178.79     -1.52    -43.84
                               -1.52    129.49     -2.73
                              -43.84     -2.73    -15.87

     hubbard stress (kbar)      0.00      0.00      0.00
                                0.00      0.00      0.00
                                0.00      0.00      0.00

     DFT-D   stress (kbar)     -0.00      0.00      0.00
                                0.00      0.00     -0.00
                                0.00     -0.00     -0.00

     XDM     stress (kbar)      0.00      0.00      0.00
                                0.00      0.00      0.00
                                0.00      0.00      0.00

     dft-nl  stress (kbar)      0.00      0.00      0.00
                                0.00      0.00      0.00
                                0.00      0.00      0.00

     TS-vdW  stress (kbar)      0.00      0.00      0.00
                                0.00      0.00      0.00
                                0.00      0.00      0.00

     MDB     stress (kbar)      0.00      0.00      0.00
                                0.00      0.00      0.00
                                0.00      0.00      0.00

     3D-RISM stress (kbar)      0.00      0.00      0.00
                                0.00      0.00      0.00
                                0.00      0.00      0.00

     Energy error            =      1.6E-04 Ry
     Gradient error          =      4.7E-03 Ry/Bohr

     number of scf cycles    =  16
     number of bfgs steps    =  15

     energy             old  =    -140.0651993263 Ry
     energy             new  =    -140.0653552944 Ry

     CASE: energy            _new < energy            _old

     new trust radius        =       0.0237598228 bohr
     new conv_thr            =       0.0000000946 Ry


ATOMIC_POSITIONS (angstrom)
N               -2.2540257903        0.2499608892        0.5902312976
C               -0.8721548713        0.2227867340        0.0713364586
C               -0.1541845272        1.4371804680        0.0128478795
C               -0.1803724075       -1.0078469837        0.0688001335
C                1.2146390727        1.4066295534       -0.2340547482
C                1.1887688399       -1.0184068025       -0.1805913641
C                1.8904802194        0.1833334634       -0.3822715923
H               -0.6697195432        2.3956664748        0.1044317164
H               -0.7155865311       -1.9501461206        0.2018472451
H                1.7604588715        2.3488363535       -0.3288286034
H                1.7135977683       -1.9749025856       -0.2361067924
H                2.9507025180        0.1656349901       -0.6362980289
H               -2.7790778987       -0.5931802436        0.3054059668
H               -2.7795292320        1.0585953899        0.2204982286
H               -2.3392845164        0.3066723634        1.6905528875



     Writing config-only to output data dir ./tmp/aniline_protonated.save/ :
     XML data file
     NEW-OLD atomic charge density approx. for the potential

     negative rho (up, down):  9.889E-03 0.000E+00

     total cpu time spent up to now is     1309.5 secs

     Self-consistent Calculation

     iteration #  1     ecut=    40.00 Ry     beta= 0.40
     Davidson diagonalization with overlap

---- Real-time Memory Report at c_bands before calling an iterative solver
           583 MiB given to the printing process from OS
             0 MiB allocation reported by mallinfo(arena+hblkhd)
        109835 MiB available memory on the node where the printing process lives
------------------
     ethr =  1.00E-06,  avg # of iterations =  4.0
