--------------------------------------------------------------------------
By default, for Open MPI 4.0 and later, infiniband ports on a device
are not used by default.  The intent is to use UCX for these devices.
You can override this policy by setting the btl_openib_allow_ib MCA parameter
to true.

  Local host:              psid04
  Local adapter:           mlx5_0
  Local port:              1

--------------------------------------------------------------------------
--------------------------------------------------------------------------
WARNING: There was an error initializing an OpenFabrics device.

  Local host:   psid04
  Local device: mlx5_0
--------------------------------------------------------------------------

     Program PWSCF v.7.3.1 starts on 15Mar2025 at  0:26:49 

     This program is part of the open-source Quantum ESPRESSO suite
     for quantum simulation of materials; please cite
         "P. Giannozzi et al., J. Phys.:Condens. Matter 21 395502 (2009);
         "P. Giannozzi et al., J. Phys.:Condens. Matter 29 465901 (2017);
         "P. Giannozzi et al., J. Chem. Phys. 152 154105 (2020);
          URL http://www.quantum-espresso.org", 
     in publications or presentations arising from this work. More details at
     http://www.quantum-espresso.org/quote

     Parallel version (MPI), running on    30 processors

     MPI processes distributed on     1 nodes
     117921 MiB available memory on the printing compute node when the environment starts

     Waiting for input...
     Reading input from standard input
Warning: card &CELL ignored
Warning: card   CELL_DOFREE = 'ALL' ignored
Warning: card / ignored

     Current dimensions of program PWSCF are:
     Max number of different atomic species (ntypx) = 10
     Max number of k-points (npk) =  40000
     Max angular momentum in pseudopotentials (lmaxx) =  4
     Found identity + (  0.0000 -0.5000  0.0000) symmetry
     This is a supercell, fractional translations are disabled

     R & G space division:  proc/nbgrp/npool/nimage =      30
     Subspace diagonalization in iterative solution of the eigenvalue problem:
     one sub-group per band group will be used
     custom distributed-memory algorithm (size of sub-group:  4*  4 procs)


     Parallelization info
     --------------------
     sticks:   dense  smooth     PW     G-vecs:    dense   smooth      PW
     Min          58      58     15                 5864     5864     837
     Max          59      59     16                 5871     5871     852
     Sum        1747    1747    475               176049   176049   25347

     Using Slab Decomposition



     bravais-lattice index     =            0
     lattice parameter (alat)  =      18.4179  a.u.
     unit-cell volume          =    7929.1084 (a.u.)^3
     number of atoms/cell      =           32
     number of atomic types    =            1
     number of electrons       =       640.00
     number of Kohn-Sham states=          384
     kinetic-energy cutoff     =      30.0000  Ry
     charge density cutoff     =     120.0000  Ry
     scf convergence threshold =      7.3E-07
     mixing beta               =       0.7000
     number of iterations used =            8  plain     mixing
     energy convergence thresh.=      1.0E-05
     force convergence thresh. =      5.0E-04
     Exchange-correlation= SLA  PW   PBE  PBE
                           (   1   4   3   4   0   0   0)
     nstep                     =          100


     celldm(1)=  18.417879  celldm(2)=   0.000000  celldm(3)=   0.000000
     celldm(4)=   0.000000  celldm(5)=   0.000000  celldm(6)=   0.000000

     crystal axes: (cart. coord. in units of alat)
               a(1) = (   1.000000   0.000000   0.000000 )  
               a(2) = (   0.000000   0.536481   0.000000 )  
               a(3) = (   0.000000  -1.365810   2.365652 )  

     reciprocal axes: (cart. coord. in units 2 pi/alat)
               b(1) = (  1.000000  0.000000 -0.000000 )  
               b(2) = ( -0.000000  1.863998  1.076180 )  
               b(3) = (  0.000000  0.000000  0.422716 )  


     PseudoPot. # 1 for Zn read from file:
     /home/ys/qepseudo/SSSP_1.3.0_PBE_efficiency/Zn_pbe_v1.uspp.F.UPF
     MD5 check sum: df62231357ef9e81f77b2b3087fa5675
     Pseudo is Ultrasoft, Zval = 20.0
     Generated by new atomic code, or converted to UPF format
     Using radial grid of  943 points,  6 beta functions with: 
                l(1) =   0
                l(2) =   0
                l(3) =   1
                l(4) =   1
                l(5) =   2
                l(6) =   2
     Q(r) pseudized with  8 coefficients,  rinner =    1.100   1.100   1.100
                                                       1.100   1.100

     atomic species   valence    mass     pseudopotential
     Zn               20.00    65.38000     Zn( 1.00)

     No symmetry found


                                    s                        frac. trans.

      isym =  1     identity                                     

 cryst.   s( 1) = (     1          0          0      )
                  (     0          1          0      )
                  (     0          0          1      )

 cart.    s( 1) = (  1.0000000  0.0000000  0.0000000 )
                  (  0.0000000  1.0000000 -0.0000000 )
                  (  0.0000000  0.0000000  1.0000000 )


   Cartesian axes

     site n.     atom                  positions (alat units)
         1        Zn     tau(   1) = (   0.1250000   0.1341203   0.0774344  )
         2        Zn     tau(   2) = (   0.1250000   0.0000000   0.3097376  )
         3        Zn     tau(   3) = (   0.1250000  -0.1341203   0.5420409  )
         4        Zn     tau(   4) = (   0.1250000  -0.2682407   0.7743441  )
         5        Zn     tau(   5) = (   0.1250000   0.4023610   0.0774344  )
         6        Zn     tau(   6) = (   0.1250000   0.2682407   0.3097376  )
         7        Zn     tau(   7) = (   0.1250000   0.1341203   0.5420409  )
         8        Zn     tau(   8) = (   0.1250000   0.0000000   0.7743441  )
         9        Zn     tau(   9) = (   0.6250000   0.1341203   0.0774344  )
        10        Zn     tau(  10) = (   0.6250000   0.0000000   0.3097376  )
        11        Zn     tau(  11) = (   0.6250000  -0.1341203   0.5420409  )
        12        Zn     tau(  12) = (   0.6250000  -0.2682407   0.7743441  )
        13        Zn     tau(  13) = (   0.6250000   0.4023610   0.0774344  )
        14        Zn     tau(  14) = (   0.6250000   0.2682407   0.3097376  )
        15        Zn     tau(  15) = (   0.6250000   0.1341203   0.5420409  )
        16        Zn     tau(  16) = (   0.6250000   0.0000000   0.7743441  )
        17        Zn     tau(  17) = (   0.3750000  -0.0000000   0.1548688  )
        18        Zn     tau(  18) = (   0.3750000  -0.1341203   0.3871721  )
        19        Zn     tau(  19) = (   0.3750000  -0.2682407   0.6194753  )
        20        Zn     tau(  20) = (   0.3750000  -0.4023610   0.8517785  )
        21        Zn     tau(  21) = (   0.3750000   0.2682407   0.1548688  )
        22        Zn     tau(  22) = (   0.3750000   0.1341203   0.3871721  )
        23        Zn     tau(  23) = (   0.3750000  -0.0000000   0.6194753  )
        24        Zn     tau(  24) = (   0.3750000  -0.1341203   0.8517785  )
        25        Zn     tau(  25) = (   0.8750000  -0.0000000   0.1548688  )
        26        Zn     tau(  26) = (   0.8750000  -0.1341203   0.3871721  )
        27        Zn     tau(  27) = (   0.8750000  -0.2682407   0.6194753  )
        28        Zn     tau(  28) = (   0.8750000  -0.4023610   0.8517785  )
        29        Zn     tau(  29) = (   0.8750000   0.2682407   0.1548688  )
        30        Zn     tau(  30) = (   0.8750000   0.1341203   0.3871721  )
        31        Zn     tau(  31) = (   0.8750000  -0.0000000   0.6194753  )
        32        Zn     tau(  32) = (   0.8750000  -0.1341203   0.8517785  )

   Crystallographic axes

     site n.     atom                  positions (cryst. coord.)
         1        Zn     tau(   1) = (  0.1250000  0.3333333  0.0327328  )
         2        Zn     tau(   2) = (  0.1250000  0.3333333  0.1309312  )
         3        Zn     tau(   3) = (  0.1250000  0.3333333  0.2291296  )
         4        Zn     tau(   4) = (  0.1250000  0.3333333  0.3273279  )
         5        Zn     tau(   5) = (  0.1250000  0.8333333  0.0327328  )
         6        Zn     tau(   6) = (  0.1250000  0.8333333  0.1309312  )
         7        Zn     tau(   7) = (  0.1250000  0.8333333  0.2291296  )
         8        Zn     tau(   8) = (  0.1250000  0.8333333  0.3273279  )
         9        Zn     tau(   9) = (  0.6250000  0.3333333  0.0327328  )
        10        Zn     tau(  10) = (  0.6250000  0.3333333  0.1309312  )
        11        Zn     tau(  11) = (  0.6250000  0.3333333  0.2291296  )
        12        Zn     tau(  12) = (  0.6250000  0.3333333  0.3273279  )
        13        Zn     tau(  13) = (  0.6250000  0.8333333  0.0327328  )
        14        Zn     tau(  14) = (  0.6250000  0.8333333  0.1309312  )
        15        Zn     tau(  15) = (  0.6250000  0.8333333  0.2291296  )
        16        Zn     tau(  16) = (  0.6250000  0.8333333  0.3273279  )
        17        Zn     tau(  17) = (  0.3750000  0.1666667  0.0654656  )
        18        Zn     tau(  18) = (  0.3750000  0.1666667  0.1636640  )
        19        Zn     tau(  19) = (  0.3750000  0.1666667  0.2618624  )
        20        Zn     tau(  20) = (  0.3750000  0.1666667  0.3600607  )
        21        Zn     tau(  21) = (  0.3750000  0.6666667  0.0654656  )
        22        Zn     tau(  22) = (  0.3750000  0.6666667  0.1636640  )
        23        Zn     tau(  23) = (  0.3750000  0.6666667  0.2618624  )
        24        Zn     tau(  24) = (  0.3750000  0.6666667  0.3600607  )
        25        Zn     tau(  25) = (  0.8750000  0.1666667  0.0654656  )
        26        Zn     tau(  26) = (  0.8750000  0.1666667  0.1636640  )
        27        Zn     tau(  27) = (  0.8750000  0.1666667  0.2618624  )
        28        Zn     tau(  28) = (  0.8750000  0.1666667  0.3600607  )
        29        Zn     tau(  29) = (  0.8750000  0.6666667  0.0654656  )
        30        Zn     tau(  30) = (  0.8750000  0.6666667  0.1636640  )
        31        Zn     tau(  31) = (  0.8750000  0.6666667  0.2618624  )
        32        Zn     tau(  32) = (  0.8750000  0.6666667  0.3600607  )

     number of k points=     5  Marzari-Vanderbilt smearing, width (Ry)=  0.0200
                       cart. coord. in units 2pi/alat
        k(    1) = (   0.0000000   0.0000000   0.0000000), wk =   0.2222222
        k(    2) = (   0.0000000   0.6213326   0.3587265), wk =   0.4444444
        k(    3) = (   0.3333333   0.0000000   0.0000000), wk =   0.4444444
        k(    4) = (   0.3333333   0.6213326   0.3587265), wk =   0.4444444
        k(    5) = (   0.3333333  -0.6213326  -0.3587265), wk =   0.4444444

                       cryst. coord.
        k(    1) = (   0.0000000   0.0000000   0.0000000), wk =   0.2222222
        k(    2) = (   0.0000000   0.3333333   0.0000000), wk =   0.4444444
        k(    3) = (   0.3333333   0.0000000   0.0000000), wk =   0.4444444
        k(    4) = (   0.3333333   0.3333333   0.0000000), wk =   0.4444444
        k(    5) = (   0.3333333  -0.3333333   0.0000000), wk =   0.4444444

     Dense  grid:   176049 G-vectors     FFT dimensions: (  72,  36, 180)

     Dynamical RAM for                 wfc:       4.29 MB

     Dynamical RAM for     wfc (w. buffer):      25.77 MB

     Dynamical RAM for           str. fact:       0.09 MB

     Dynamical RAM for           local pot:       0.00 MB

     Dynamical RAM for          nlocal pot:       6.44 MB

     Dynamical RAM for                qrad:       0.88 MB

     Dynamical RAM for          rho,v,vnew:       0.62 MB

     Dynamical RAM for               rhoin:       0.21 MB

     Dynamical RAM for            rho*nmix:       1.43 MB

     Dynamical RAM for           G-vectors:       0.38 MB

     Dynamical RAM for          h,s,v(r/c):       1.69 MB

     Dynamical RAM for          <psi|beta>:       3.38 MB

     Dynamical RAM for                 psi:       8.59 MB

     Dynamical RAM for                hpsi:       8.59 MB

     Dynamical RAM for                spsi:       8.59 MB

     Dynamical RAM for      wfcinit/wfcrot:      13.27 MB

     Dynamical RAM for           addusdens:      19.53 MB

     Dynamical RAM for          addusforce:      25.25 MB

     Dynamical RAM for         addusstress:      18.01 MB

     Estimated static dynamical RAM per process >      35.17 MB

     Estimated max dynamical RAM per process >      67.43 MB

     Estimated total dynamical RAM >       1.98 GB

     Initial potential from superposition of free atoms

     starting charge     639.9955, renormalised to     640.0000

     negative rho (up, down):  7.820E-04 0.000E+00
     Starting wfcs are  416 randomized atomic wfcs
[psid04:191814] 29 more processes have sent help message help-mpi-btl-openib.txt / ib port not selected
[psid04:191814] Set MCA parameter "orte_base_help_aggregate" to 0 to see all help / error messages
[psid04:191814] 29 more processes have sent help message help-mpi-btl-openib.txt / error in device init

     total cpu time spent up to now is        8.8 secs

     Self-consistent Calculation

     iteration #  1     ecut=    30.00 Ry     beta= 0.70
     Davidson diagonalization with overlap

---- Real-time Memory Report at c_bands before calling an iterative solver
            76 MiB given to the printing process from OS
             0 MiB allocation reported by mallinfo(arena+hblkhd)
        116207 MiB available memory on the node where the printing process lives
------------------
     ethr =  1.00E-02,  avg # of iterations =  7.2

     Threshold (ethr) on eigenvalues was too large:
     Diagonalizing with lowered threshold

     Davidson diagonalization with overlap

---- Real-time Memory Report at c_bands before calling an iterative solver
            99 MiB given to the printing process from OS
             0 MiB allocation reported by mallinfo(arena+hblkhd)
        115942 MiB available memory on the node where the printing process lives
------------------
     ethr =  1.96E-04,  avg # of iterations =  5.2

     negative rho (up, down):  2.832E-03 0.000E+00

     total cpu time spent up to now is       72.9 secs

     total energy              =  -14766.81871709 Ry
     estimated scf accuracy    <       1.35100682 Ry

     iteration #  2     ecut=    30.00 Ry     beta= 0.70
     Davidson diagonalization with overlap

---- Real-time Memory Report at c_bands before calling an iterative solver
            99 MiB given to the printing process from OS
             0 MiB allocation reported by mallinfo(arena+hblkhd)
        115916 MiB available memory on the node where the printing process lives
------------------
     ethr =  2.11E-04,  avg # of iterations =  3.8

     negative rho (up, down):  3.483E-03 0.000E+00

     total cpu time spent up to now is      115.2 secs

     total energy              =  -14767.14990698 Ry
     estimated scf accuracy    <       2.21467587 Ry

     iteration #  3     ecut=    30.00 Ry     beta= 0.70
     Davidson diagonalization with overlap

---- Real-time Memory Report at c_bands before calling an iterative solver
           100 MiB given to the printing process from OS
             0 MiB allocation reported by mallinfo(arena+hblkhd)
        115898 MiB available memory on the node where the printing process lives
------------------
     ethr =  2.11E-04,  avg # of iterations =  2.0

     negative rho (up, down):  4.340E-03 0.000E+00

     total cpu time spent up to now is      148.6 secs

     total energy              =  -14767.53775235 Ry
     estimated scf accuracy    <       0.01732958 Ry

     iteration #  4     ecut=    30.00 Ry     beta= 0.70
     Davidson diagonalization with overlap

---- Real-time Memory Report at c_bands before calling an iterative solver
           100 MiB given to the printing process from OS
             0 MiB allocation reported by mallinfo(arena+hblkhd)
        115891 MiB available memory on the node where the printing process lives
------------------
     ethr =  2.71E-06,  avg # of iterations = 10.6

     negative rho (up, down):  4.617E-03 0.000E+00

     total cpu time spent up to now is      201.7 secs

     total energy              =  -14767.52225823 Ry
     estimated scf accuracy    <       0.26729290 Ry

     iteration #  5     ecut=    30.00 Ry     beta= 0.70
     Davidson diagonalization with overlap

---- Real-time Memory Report at c_bands before calling an iterative solver
           100 MiB given to the printing process from OS
             0 MiB allocation reported by mallinfo(arena+hblkhd)
        115881 MiB available memory on the node where the printing process lives
------------------
     ethr =  2.71E-06,  avg # of iterations = 12.0

     negative rho (up, down):  4.745E-03 0.000E+00

     total cpu time spent up to now is      246.1 secs

     total energy              =  -14767.54696708 Ry
     estimated scf accuracy    <       0.00602053 Ry

     iteration #  6     ecut=    30.00 Ry     beta= 0.70
     Davidson diagonalization with overlap

---- Real-time Memory Report at c_bands before calling an iterative solver
           100 MiB given to the printing process from OS
             0 MiB allocation reported by mallinfo(arena+hblkhd)
        115881 MiB available memory on the node where the printing process lives
------------------
     ethr =  9.41E-07,  avg # of iterations =  2.2

     negative rho (up, down):  4.760E-03 0.000E+00

     total cpu time spent up to now is      273.2 secs

     total energy              =  -14767.54732541 Ry
     estimated scf accuracy    <       0.00141999 Ry

     iteration #  7     ecut=    30.00 Ry     beta= 0.70
     Davidson diagonalization with overlap

---- Real-time Memory Report at c_bands before calling an iterative solver
           100 MiB given to the printing process from OS
             0 MiB allocation reported by mallinfo(arena+hblkhd)
        115878 MiB available memory on the node where the printing process lives
------------------
     ethr =  2.22E-07,  avg # of iterations =  2.2

     negative rho (up, down):  4.789E-03 0.000E+00

     total cpu time spent up to now is      299.8 secs

     total energy              =  -14767.54709506 Ry
     estimated scf accuracy    <       0.00652051 Ry

     iteration #  8     ecut=    30.00 Ry     beta= 0.70
     Davidson diagonalization with overlap

---- Real-time Memory Report at c_bands before calling an iterative solver
           101 MiB given to the printing process from OS
             0 MiB allocation reported by mallinfo(arena+hblkhd)
        115870 MiB available memory on the node where the printing process lives
------------------
     ethr =  2.22E-07,  avg # of iterations =  1.6

     negative rho (up, down):  4.800E-03 0.000E+00

     total cpu time spent up to now is      324.4 secs

     total energy              =  -14767.54740817 Ry
     estimated scf accuracy    <       0.00003038 Ry

     iteration #  9     ecut=    30.00 Ry     beta= 0.70
     Davidson diagonalization with overlap

---- Real-time Memory Report at c_bands before calling an iterative solver
           101 MiB given to the printing process from OS
             0 MiB allocation reported by mallinfo(arena+hblkhd)
        115863 MiB available memory on the node where the printing process lives
------------------
     ethr =  4.75E-09,  avg # of iterations =  2.0

     negative rho (up, down):  4.801E-03 0.000E+00

     total cpu time spent up to now is      356.9 secs

     total energy              =  -14767.54741824 Ry
     estimated scf accuracy    <       0.00000753 Ry

     iteration # 10     ecut=    30.00 Ry     beta= 0.70
     Davidson diagonalization with overlap

---- Real-time Memory Report at c_bands before calling an iterative solver
           101 MiB given to the printing process from OS
             0 MiB allocation reported by mallinfo(arena+hblkhd)
        115861 MiB available memory on the node where the printing process lives
------------------
     ethr =  1.18E-09,  avg # of iterations =  2.0

     negative rho (up, down):  4.800E-03 0.000E+00

     total cpu time spent up to now is      383.1 secs

     total energy              =  -14767.54741728 Ry
     estimated scf accuracy    <       0.00000649 Ry

     iteration # 11     ecut=    30.00 Ry     beta= 0.70
     Davidson diagonalization with overlap

---- Real-time Memory Report at c_bands before calling an iterative solver
           101 MiB given to the printing process from OS
             0 MiB allocation reported by mallinfo(arena+hblkhd)
        115859 MiB available memory on the node where the printing process lives
------------------
     ethr =  1.01E-09,  avg # of iterations =  2.0

     negative rho (up, down):  4.802E-03 0.000E+00

     total cpu time spent up to now is      410.5 secs

     End of self-consistent calculation

          k = 0.0000 0.0000 0.0000 ( 22019 PWs)   bands (ev):

  -123.7893-123.7890-123.7887-123.7867-123.7864-123.7861-123.7859-123.7853
  -123.7812-123.7812-123.7798-123.7795-123.7792-123.7791-123.7788-123.7778
  -123.4705-123.4703-123.4688-123.4687-123.4685-123.4682-123.4680-123.4678
  -123.4603-123.4602-123.4583-123.4581-123.4580-123.4577-123.4576-123.4572
   -77.9003 -77.8992 -77.8976 -77.8962 -77.8962 -77.8949 -77.8941 -77.8940
   -77.8919 -77.8897 -77.8896 -77.8859 -77.8769 -77.8769 -77.8768 -77.8764
   -77.8761 -77.8737 -77.8694 -77.8666 -77.8666 -77.8659 -77.8659 -77.8655
   -77.8655 -77.8650 -77.8646 -77.8646 -77.8638 -77.8615 -77.8609 -77.8608
   -77.8604 -77.8603 -77.8600 -77.8594 -77.8589 -77.8588 -77.8582 -77.8578
   -77.8541 -77.8541 -77.8527 -77.8526 -77.8514 -77.8492 -77.8463 -77.8402
   -77.5748 -77.5745 -77.5721 -77.5720 -77.5709 -77.5709 -77.5687 -77.5682
   -77.5678 -77.5678 -77.5677 -77.5676 -77.5673 -77.5651 -77.5603 -77.5601
   -77.5591 -77.5590 -77.5568 -77.5567 -77.5566 -77.5565 -77.5557 -77.5555
   -77.5540 -77.5533 -77.5533 -77.5514 -77.5511 -77.5510 -77.5483 -77.5483
   -77.5438 -77.5437 -77.5416 -77.5411 -77.5410 -77.5396 -77.5306 -77.5306
   -77.5297 -77.5296 -77.5291 -77.5287 -77.5286 -77.5272 -77.5176 -77.5148
    -7.3127  -6.1635  -6.0459  -6.0459  -5.5643  -5.4984  -5.4984  -5.4842
    -5.4146  -5.4105  -5.3955  -5.3954  -5.3829  -5.3829  -5.3549  -5.3375
    -5.3074  -5.2620  -5.2490  -5.2447  -5.2447  -5.1902  -5.1902  -5.1866
    -5.1850  -5.1325  -5.1285  -5.1285  -5.1213  -5.1213  -5.0947  -5.0947
    -5.0823  -5.0424  -4.9672  -4.9519  -4.9410  -4.9200  -4.9141  -4.9141
    -4.9097  -4.9097  -4.8937  -4.8937  -4.8323  -4.8322  -4.8313  -4.7657
    -4.7588  -4.7424  -4.7423  -4.7225  -4.7225  -4.7096  -4.6902  -4.6860
    -4.6859  -4.6852  -4.6851  -4.6736  -4.6626  -4.6419  -4.6419  -4.6362
    -4.6313  -4.5995  -4.5815  -4.5810  -4.5487  -4.5465  -4.5465  -4.5433
    -4.5426  -4.5302  -4.5254  -4.5063  -4.5011  -4.4921  -4.4807  -4.4613
    -4.4583  -4.4351  -4.4350  -4.4295  -4.4231  -4.4231  -4.4114  -4.3695
    -4.3695  -4.3439  -4.3233  -4.3233  -4.2986  -4.2904  -4.2903  -4.2836
    -4.2836  -4.2744  -4.2464  -4.2319  -4.2319  -4.2050  -4.2050  -4.2013
    -4.1974  -4.1967  -4.1897  -4.1728  -4.1723  -4.1723  -4.1565  -4.1531
    -4.1531  -4.1483  -4.1482  -4.1470  -4.1469  -4.1342  -4.1273  -4.1000
    -4.0872  -4.0872  -4.0815  -4.0798  -4.0759  -4.0653  -4.0518  -4.0518
    -4.0475  -4.0285  -4.0284  -4.0155  -4.0040  -4.0040  -3.9944  -3.9776
    -3.9776  -3.9684  -3.9684  -3.9649  -3.9466  -3.9449  -3.9448  -3.9327
    -3.9259  -3.9258  -3.9228  -3.9183  -3.8905  -3.8904  -3.8446  -3.8431
    -3.8375  -3.8279  -3.8278  -3.8226  -3.7970  -3.7965  -3.7866  -3.7835
    -3.7565  -3.7564  -3.7457  -3.7457  -3.5783  -3.5783  -3.4252  -2.0776
    -2.0776  -1.1437  -0.8771  -0.8296  -0.2453   0.0448   0.3238   0.4423
     0.4813   0.4813   0.5571   0.5572   0.5590   0.5591   0.8184   1.2116
     1.4173   1.4173   1.4849   1.6633   1.7450   1.7450   2.3538   2.6118
     2.6118   2.8322   3.1429   3.8014   3.8606   4.0758   4.0758   4.1487
     4.1487   4.2616   4.9849   5.2220   5.2928   5.3582   5.7022   6.0882
     6.0935   6.1115   6.1115   6.1747   6.1747   6.2109   6.2109   6.4567
     6.6234   6.8244   6.9744   7.0665   7.2602   7.4099   7.7226   7.9369
     7.9371   7.9425   8.1191   8.1701   8.1701   8.4988   8.6524   8.6524
     8.7223   8.7224   8.7426   8.8210   8.8218   8.8394   8.8394   9.0299
     9.1568   9.3453   9.3691   9.3692   9.4735   9.8638  10.0047  10.3557
    10.6352  10.6362  10.7683  10.8457  10.8459  10.9053  11.0313  11.1423

     occupation numbers 
     1.0000   1.0000   1.0000   1.0000   1.0000   1.0000   1.0000   1.0000
     1.0000   1.0000   1.0000   1.0000   1.0000   1.0000   1.0000   1.0000
     1.0000   1.0000   1.0000   1.0000   1.0000   1.0000   1.0000   1.0000
     1.0000   1.0000   1.0000   1.0000   1.0000   1.0000   1.0000   1.0000
     1.0000   1.0000   1.0000   1.0000   1.0000   1.0000   1.0000   1.0000
     1.0000   1.0000   1.0000   1.0000   1.0000   1.0000   1.0000   1.0000
     1.0000   1.0000   1.0000   1.0000   1.0000   1.0000   1.0000   1.0000
     1.0000   1.0000   1.0000   1.0000   1.0000   1.0000   1.0000   1.0000
     1.0000   1.0000   1.0000   1.0000   1.0000   1.0000   1.0000   1.0000
     1.0000   1.0000   1.0000   1.0000   1.0000   1.0000   1.0000   1.0000
     1.0000   1.0000   1.0000   1.0000   1.0000   1.0000   1.0000   1.0000
     1.0000   1.0000   1.0000   1.0000   1.0000   1.0000   1.0000   1.0000
     1.0000   1.0000   1.0000   1.0000   1.0000   1.0000   1.0000   1.0000
     1.0000   1.0000   1.0000   1.0000   1.0000   1.0000   1.0000   1.0000
     1.0000   1.0000   1.0000   1.0000   1.0000   1.0000   1.0000   1.0000
     1.0000   1.0000   1.0000   1.0000   1.0000   1.0000   1.0000   1.0000
     1.0000   1.0000   1.0000   1.0000   1.0000   1.0000   1.0000   1.0000
     1.0000   1.0000   1.0000   1.0000   1.0000   1.0000   1.0000   1.0000
     1.0000   1.0000   1.0000   1.0000   1.0000   1.0000   1.0000   1.0000
     1.0000   1.0000   1.0000   1.0000   1.0000   1.0000   1.0000   1.0000
     1.0000   1.0000   1.0000   1.0000   1.0000   1.0000   1.0000   1.0000
     1.0000   1.0000   1.0000   1.0000   1.0000   1.0000   1.0000   1.0000
     1.0000   1.0000   1.0000   1.0000   1.0000   1.0000   1.0000   1.0000
     1.0000   1.0000   1.0000   1.0000   1.0000   1.0000   1.0000   1.0000
     1.0000   1.0000   1.0000   1.0000   1.0000   1.0000   1.0000   1.0000
     1.0000   1.0000   1.0000   1.0000   1.0000   1.0000   1.0000   1.0000
     1.0000   1.0000   1.0000   1.0000   1.0000   1.0000   1.0000   1.0000
     1.0000   1.0000   1.0000   1.0000   1.0000   1.0000   1.0000   1.0000
     1.0000   1.0000   1.0000   1.0000   1.0000   1.0000   1.0000   1.0000
     1.0000   1.0000   1.0000   1.0000   1.0000   1.0000   1.0000   1.0000
     1.0000   1.0000   1.0000   1.0000   1.0000   1.0000   1.0000   1.0000
     1.0000   1.0000   1.0000   1.0000   1.0000   1.0000   1.0000   1.0000
     1.0000   1.0000   1.0000   1.0000   1.0000   1.0000   1.0000   1.0000
     1.0000   1.0000   1.0000   1.0000   1.0000   1.0000   1.0000   1.0000
     1.0000   1.0000   1.0000   1.0000   1.0000   1.0000   1.0000   1.0000
     1.0000   1.0000   1.0000   1.0000   1.0000   1.0000   1.0000   1.0000
     1.0000   1.0000   1.0000   1.0000   1.0000   1.0000   1.0000   1.0000
     1.0000   1.0000   1.0000   1.0000   1.0000   1.0000   1.0000   1.0000
     1.0000   1.0000   1.0000   1.0000   1.0000   1.0000   1.0000   1.0000
     1.0000   1.0000   1.0000   1.0000   1.0000   1.0000   1.0022   1.0444
     1.0444   1.0632   0.4097   0.0000   0.0000   0.0000   0.0000   0.0000
     0.0000   0.0000   0.0000   0.0000   0.0000   0.0000   0.0000   0.0000
     0.0000   0.0000   0.0000   0.0000   0.0000   0.0000   0.0000   0.0000
     0.0000   0.0000   0.0000   0.0000   0.0000   0.0000   0.0000   0.0000
     0.0000   0.0000   0.0000   0.0000   0.0000   0.0000   0.0000   0.0000
     0.0000   0.0000   0.0000   0.0000   0.0000   0.0000   0.0000   0.0000
     0.0000   0.0000   0.0000   0.0000   0.0000   0.0000   0.0000   0.0000
     0.0000   0.0000   0.0000   0.0000   0.0000   0.0000   0.0000   0.0000

          k = 0.0000 0.6213 0.3587 ( 21964 PWs)   bands (ev):

  -123.7875-123.7873-123.7868-123.7866-123.7865-123.7862-123.7861-123.7857
  -123.7809-123.7802-123.7800-123.7800-123.7796-123.7793-123.7783-123.7778
  -123.4692-123.4690-123.4685-123.4685-123.4683-123.4681-123.4680-123.4676
  -123.4590-123.4590-123.4584-123.4583-123.4583-123.4578-123.4575-123.4574
   -77.8909 -77.8886 -77.8883 -77.8881 -77.8877 -77.8875 -77.8869 -77.8863
   -77.8862 -77.8862 -77.8861 -77.8853 -77.8753 -77.8738 -77.8734 -77.8722
   -77.8721 -77.8721 -77.8719 -77.8712 -77.8712 -77.8702 -77.8654 -77.8653
   -77.8651 -77.8647 -77.8632 -77.8631 -77.8629 -77.8628 -77.8620 -77.8618
   -77.8598 -77.8597 -77.8594 -77.8593 -77.8590 -77.8590 -77.8588 -77.8572
   -77.8570 -77.8570 -77.8568 -77.8568 -77.8552 -77.8528 -77.8508 -77.8439
   -77.5724 -77.5698 -77.5687 -77.5686 -77.5676 -77.5675 -77.5670 -77.5658
   -77.5640 -77.5640 -77.5620 -77.5610 -77.5609 -77.5604 -77.5598 -77.5598
   -77.5581 -77.5555 -77.5555 -77.5544 -77.5531 -77.5519 -77.5518 -77.5511
   -77.5507 -77.5507 -77.5506 -77.5490 -77.5479 -77.5477 -77.5476 -77.5471
   -77.5462 -77.5460 -77.5458 -77.5451 -77.5365 -77.5365 -77.5337 -77.5335
   -77.5335 -77.5320 -77.5319 -77.5298 -77.5294 -77.5277 -77.5275 -77.5261
    -6.6960  -5.6302  -5.5864  -5.5864  -5.4454  -5.3394  -5.3330  -5.3072
    -5.3072  -5.2815  -5.2815  -5.2788  -5.2592  -5.2434  -5.2434  -5.2250
    -5.1600  -5.1439  -5.1388  -5.0971  -5.0971  -5.0912  -5.0912  -5.0805
    -5.0781  -5.0560  -5.0560  -5.0498  -5.0498  -5.0248  -4.9921  -4.9673
    -4.9673  -4.9612  -4.9559  -4.9218  -4.9218  -4.9169  -4.9169  -4.8771
    -4.8748  -4.8608  -4.8131  -4.8131  -4.8091  -4.8090  -4.8090  -4.7771
    -4.7771  -4.7486  -4.7472  -4.7372  -4.7048  -4.7035  -4.6875  -4.6856
    -4.6758  -4.6735  -4.6672  -4.6554  -4.6554  -4.6385  -4.6385  -4.6366
    -4.5950  -4.5851  -4.5716  -4.5579  -4.5550  -4.5550  -4.5494  -4.5242
    -4.5242  -4.5238  -4.5215  -4.5018  -4.4991  -4.4990  -4.4874  -4.4717
    -4.4584  -4.4584  -4.4569  -4.4518  -4.4513  -4.4512  -4.4268  -4.4263
    -4.4263  -4.4186  -4.4119  -4.4011  -4.4011  -4.3947  -4.3569  -4.3569
    -4.3480  -4.3447  -4.3431  -4.3378  -4.3252  -4.3252  -4.2776  -4.2618
    -4.2576  -4.2536  -4.2508  -4.2357  -4.2357  -4.2281  -4.2184  -4.2183
    -4.2159  -4.1892  -4.1891  -4.1852  -4.1747  -4.1428  -4.1428  -4.1383
    -4.1383  -4.1278  -4.1278  -4.1267  -4.1076  -4.0882  -4.0882  -4.0855
    -4.0784  -4.0784  -4.0715  -4.0667  -4.0644  -4.0620  -4.0588  -4.0544
    -4.0243  -4.0149  -4.0004  -4.0004  -3.9834  -3.9834  -3.9793  -3.9699
    -3.9699  -3.9688  -3.9688  -3.9614  -3.9524  -3.9420  -3.9399  -3.9371
    -3.9316  -3.9316  -3.9275  -3.9272  -3.9272  -3.9255  -3.9037  -3.9037
    -3.8981  -3.8900  -3.7218  -3.7218  -3.6781  -3.0428  -3.0428  -2.8937
    -2.8221  -2.4555  -2.4555  -1.3968  -1.3968  -1.3903  -1.3903  -1.1244
    -0.5514   0.4166   0.4166   0.6642   0.7006   1.1138   1.1138   1.1855
     1.4144   2.0150   2.0599   2.0942   2.8075   2.8075   2.9255   2.9800
     3.3755   3.3761   3.3761   3.5758   3.8781   4.0558   4.1290   4.4478
     4.5378   5.2673   5.2673   5.4280   5.6007   5.6007   5.6066   5.8706
     6.0062   6.5004   6.5004   6.5189   6.6910   6.7776   6.7776   7.0421
     7.5167   7.5739   7.9648   7.9823   8.1296   8.1296   8.3516   8.5496
     8.5498   8.6098   8.6098   8.7588   8.7589   8.7906   8.8063   9.1478
     9.1946   9.1950   9.2167   9.3489   9.3708   9.5833   9.5838   9.8513
     9.9289   9.9291  10.0249  10.0300  10.1475  10.2221  10.2221  10.3877
    10.4488  10.4637  10.4639  10.6440  10.6440  10.6996  10.6996  10.7081

     occupation numbers 
     1.0000   1.0000   1.0000   1.0000   1.0000   1.0000   1.0000   1.0000
     1.0000   1.0000   1.0000   1.0000   1.0000   1.0000   1.0000   1.0000
     1.0000   1.0000   1.0000   1.0000   1.0000   1.0000   1.0000   1.0000
     1.0000   1.0000   1.0000   1.0000   1.0000   1.0000   1.0000   1.0000
     1.0000   1.0000   1.0000   1.0000   1.0000   1.0000   1.0000   1.0000
     1.0000   1.0000   1.0000   1.0000   1.0000   1.0000   1.0000   1.0000
     1.0000   1.0000   1.0000   1.0000   1.0000   1.0000   1.0000   1.0000
     1.0000   1.0000   1.0000   1.0000   1.0000   1.0000   1.0000   1.0000
     1.0000   1.0000   1.0000   1.0000   1.0000   1.0000   1.0000   1.0000
     1.0000   1.0000   1.0000   1.0000   1.0000   1.0000   1.0000   1.0000
     1.0000   1.0000   1.0000   1.0000   1.0000   1.0000   1.0000   1.0000
     1.0000   1.0000   1.0000   1.0000   1.0000   1.0000   1.0000   1.0000
     1.0000   1.0000   1.0000   1.0000   1.0000   1.0000   1.0000   1.0000
     1.0000   1.0000   1.0000   1.0000   1.0000   1.0000   1.0000   1.0000
     1.0000   1.0000   1.0000   1.0000   1.0000   1.0000   1.0000   1.0000
     1.0000   1.0000   1.0000   1.0000   1.0000   1.0000   1.0000   1.0000
     1.0000   1.0000   1.0000   1.0000   1.0000   1.0000   1.0000   1.0000
     1.0000   1.0000   1.0000   1.0000   1.0000   1.0000   1.0000   1.0000
     1.0000   1.0000   1.0000   1.0000   1.0000   1.0000   1.0000   1.0000
     1.0000   1.0000   1.0000   1.0000   1.0000   1.0000   1.0000   1.0000
     1.0000   1.0000   1.0000   1.0000   1.0000   1.0000   1.0000   1.0000
     1.0000   1.0000   1.0000   1.0000   1.0000   1.0000   1.0000   1.0000
     1.0000   1.0000   1.0000   1.0000   1.0000   1.0000   1.0000   1.0000
     1.0000   1.0000   1.0000   1.0000   1.0000   1.0000   1.0000   1.0000
     1.0000   1.0000   1.0000   1.0000   1.0000   1.0000   1.0000   1.0000
     1.0000   1.0000   1.0000   1.0000   1.0000   1.0000   1.0000   1.0000
     1.0000   1.0000   1.0000   1.0000   1.0000   1.0000   1.0000   1.0000
     1.0000   1.0000   1.0000   1.0000   1.0000   1.0000   1.0000   1.0000
     1.0000   1.0000   1.0000   1.0000   1.0000   1.0000   1.0000   1.0000
     1.0000   1.0000   1.0000   1.0000   1.0000   1.0000   1.0000   1.0000
     1.0000   1.0000   1.0000   1.0000   1.0000   1.0000   1.0000   1.0000
     1.0000   1.0000   1.0000   1.0000   1.0000   1.0000   1.0000   1.0000
     1.0000   1.0000   1.0000   1.0000   1.0000   1.0000   1.0000   1.0000
     1.0000   1.0000   1.0000   1.0000   1.0000   1.0000   1.0000   1.0000
     1.0000   1.0000   1.0000   1.0000   1.0000   1.0000   1.0000   1.0000
     1.0000   1.0000   1.0000   1.0000   1.0000   1.0000   1.0000   1.0000
     1.0000   1.0000   1.0000   1.0000   1.0000   1.0000   1.0000   1.0000
     1.0000   1.0000   1.0000   1.0000   1.0000   1.0000   1.0000   1.0000
     1.0000   1.0000   1.0000   1.0000   1.0000   1.0000   1.0000   1.0000
     1.0000   1.0000   1.0000   1.0000   1.0754   1.0754   0.9536   0.8417
     0.0505   0.0501   0.0501   0.0028   0.0000   0.0000   0.0000   0.0000
     0.0000   0.0000   0.0000   0.0000   0.0000   0.0000   0.0000   0.0000
     0.0000   0.0000   0.0000   0.0000   0.0000   0.0000   0.0000   0.0000
     0.0000   0.0000   0.0000   0.0000   0.0000   0.0000   0.0000   0.0000
     0.0000   0.0000   0.0000   0.0000   0.0000   0.0000   0.0000   0.0000
     0.0000   0.0000   0.0000   0.0000   0.0000   0.0000   0.0000   0.0000
     0.0000   0.0000   0.0000   0.0000   0.0000   0.0000   0.0000   0.0000
     0.0000   0.0000   0.0000   0.0000   0.0000   0.0000   0.0000   0.0000

          k = 0.3333 0.0000 0.0000 ( 22036 PWs)   bands (ev):

  -123.7890-123.7883-123.7875-123.7873-123.7870-123.7866-123.7865-123.7862
  -123.7813-123.7805-123.7802-123.7800-123.7797-123.7793-123.7792-123.7782
  -123.4701-123.4697-123.4692-123.4690-123.4688-123.4687-123.4685-123.4683
  -123.4599-123.4593-123.4588-123.4586-123.4585-123.4582-123.4581-123.4574
   -77.8992 -77.8987 -77.8976 -77.8973 -77.8965 -77.8954 -77.8950 -77.8944
   -77.8904 -77.8894 -77.8877 -77.8858 -77.8785 -77.8767 -77.8761 -77.8748
   -77.8723 -77.8698 -77.8687 -77.8680 -77.8678 -77.8676 -77.8665 -77.8662
   -77.8659 -77.8650 -77.8645 -77.8642 -77.8641 -77.8639 -77.8638 -77.8635
   -77.8629 -77.8628 -77.8620 -77.8605 -77.8596 -77.8592 -77.8588 -77.8573
   -77.8567 -77.8566 -77.8554 -77.8551 -77.8517 -77.8505 -77.8490 -77.8409
   -77.5744 -77.5737 -77.5732 -77.5719 -77.5692 -77.5690 -77.5689 -77.5688
   -77.5682 -77.5679 -77.5677 -77.5668 -77.5646 -77.5644 -77.5618 -77.5612
   -77.5609 -77.5607 -77.5591 -77.5588 -77.5583 -77.5576 -77.5576 -77.5567
   -77.5544 -77.5535 -77.5518 -77.5515 -77.5512 -77.5500 -77.5500 -77.5492
   -77.5444 -77.5434 -77.5430 -77.5420 -77.5392 -77.5363 -77.5348 -77.5340
   -77.5336 -77.5317 -77.5291 -77.5281 -77.5279 -77.5227 -77.5225 -77.5214
    -7.1430  -6.6646  -6.0285  -5.7434  -5.6315  -5.5707  -5.4753  -5.4642
    -5.4232  -5.4145  -5.4015  -5.3967  -5.3880  -5.3857  -5.3846  -5.3772
    -5.3755  -5.3726  -5.2478  -5.2198  -5.1627  -5.1609  -5.1575  -5.1556
    -5.1526  -5.1421  -5.1229  -5.1203  -5.1087  -5.0960  -5.0817  -5.0798
    -5.0543  -5.0221  -4.9854  -4.9541  -4.9524  -4.9509  -4.9209  -4.9066
    -4.9064  -4.9062  -4.8953  -4.8517  -4.8471  -4.8220  -4.8136  -4.8037
    -4.7985  -4.7857  -4.7820  -4.7559  -4.7360  -4.7199  -4.7083  -4.6981
    -4.6941  -4.6898  -4.6866  -4.6740  -4.6694  -4.6535  -4.6449  -4.6387
    -4.6278  -4.6238  -4.6063  -4.5756  -4.5727  -4.5719  -4.5707  -4.5459
    -4.5229  -4.5161  -4.5145  -4.5024  -4.4594  -4.4549  -4.4520  -4.4482
    -4.4275  -4.4119  -4.4075  -4.4070  -4.4016  -4.3847  -4.3607  -4.3447
    -4.3359  -4.3166  -4.3100  -4.3016  -4.3010  -4.2949  -4.2905  -4.2829
    -4.2796  -4.2774  -4.2745  -4.2492  -4.2469  -4.2382  -4.2333  -4.2195
    -4.2171  -4.2153  -4.1735  -4.1734  -4.1665  -4.1664  -4.1627  -4.1503
    -4.1469  -4.1442  -4.1416  -4.1321  -4.1256  -4.1209  -4.1087  -4.1061
    -4.1032  -4.0974  -4.0942  -4.0867  -4.0865  -4.0790  -4.0764  -4.0662
    -4.0647  -4.0573  -4.0513  -4.0459  -4.0274  -4.0214  -4.0168  -4.0107
    -3.9750  -3.9686  -3.9665  -3.9515  -3.9455  -3.9346  -3.9325  -3.9306
    -3.9252  -3.9127  -3.9052  -3.9036  -3.9004  -3.8585  -3.8544  -3.8404
    -3.8290  -3.8275  -3.8221  -3.8019  -3.7994  -3.7980  -3.7852  -3.7838
    -3.7747  -3.7676  -3.7622  -3.7579  -3.4153  -3.3425  -3.0004  -2.3658
    -1.9715  -1.0577  -1.0090  -0.8230  -0.7273  -0.6760  -0.2577  -0.2036
    -0.0976   0.2089   0.5485   0.6649   0.8657   1.0242   1.3038   1.6487
     1.7368   1.7701   1.7841   1.8194   2.0071   2.4435   2.4469   2.4553
     3.0911   3.1261   3.4118   3.4504   3.7410   3.7638   3.8294   4.0386
     4.7665   4.8264   4.8351   4.8931   4.8933   5.0613   5.1225   5.1748
     5.5416   5.6019   5.8023   6.2417   6.4076   6.4741   6.5580   6.6891
     6.8363   6.8839   7.0273   7.1324   7.2897   7.3595   7.4113   7.4687
     7.7530   7.8764   8.0573   8.0712   8.1528   8.1683   8.1725   8.3090
     8.6766   8.8159   8.8980   9.1292   9.1955   9.2941   9.3309   9.4090
     9.6419   9.6525   9.6560   9.8557  10.0349  10.0415  10.1326  10.1986
    10.3755  10.4439  10.5397  10.6845  10.7414  10.9258  11.1929  11.2410

     occupation numbers 
     1.0000   1.0000   1.0000   1.0000   1.0000   1.0000   1.0000   1.0000
     1.0000   1.0000   1.0000   1.0000   1.0000   1.0000   1.0000   1.0000
     1.0000   1.0000   1.0000   1.0000   1.0000   1.0000   1.0000   1.0000
     1.0000   1.0000   1.0000   1.0000   1.0000   1.0000   1.0000   1.0000
     1.0000   1.0000   1.0000   1.0000   1.0000   1.0000   1.0000   1.0000
     1.0000   1.0000   1.0000   1.0000   1.0000   1.0000   1.0000   1.0000
     1.0000   1.0000   1.0000   1.0000   1.0000   1.0000   1.0000   1.0000
     1.0000   1.0000   1.0000   1.0000   1.0000   1.0000   1.0000   1.0000
     1.0000   1.0000   1.0000   1.0000   1.0000   1.0000   1.0000   1.0000
     1.0000   1.0000   1.0000   1.0000   1.0000   1.0000   1.0000   1.0000
     1.0000   1.0000   1.0000   1.0000   1.0000   1.0000   1.0000   1.0000
     1.0000   1.0000   1.0000   1.0000   1.0000   1.0000   1.0000   1.0000
     1.0000   1.0000   1.0000   1.0000   1.0000   1.0000   1.0000   1.0000
     1.0000   1.0000   1.0000   1.0000   1.0000   1.0000   1.0000   1.0000
     1.0000   1.0000   1.0000   1.0000   1.0000   1.0000   1.0000   1.0000
     1.0000   1.0000   1.0000   1.0000   1.0000   1.0000   1.0000   1.0000
     1.0000   1.0000   1.0000   1.0000   1.0000   1.0000   1.0000   1.0000
     1.0000   1.0000   1.0000   1.0000   1.0000   1.0000   1.0000   1.0000
     1.0000   1.0000   1.0000   1.0000   1.0000   1.0000   1.0000   1.0000
     1.0000   1.0000   1.0000   1.0000   1.0000   1.0000   1.0000   1.0000
     1.0000   1.0000   1.0000   1.0000   1.0000   1.0000   1.0000   1.0000
     1.0000   1.0000   1.0000   1.0000   1.0000   1.0000   1.0000   1.0000
     1.0000   1.0000   1.0000   1.0000   1.0000   1.0000   1.0000   1.0000
     1.0000   1.0000   1.0000   1.0000   1.0000   1.0000   1.0000   1.0000
     1.0000   1.0000   1.0000   1.0000   1.0000   1.0000   1.0000   1.0000
     1.0000   1.0000   1.0000   1.0000   1.0000   1.0000   1.0000   1.0000
     1.0000   1.0000   1.0000   1.0000   1.0000   1.0000   1.0000   1.0000
     1.0000   1.0000   1.0000   1.0000   1.0000   1.0000   1.0000   1.0000
     1.0000   1.0000   1.0000   1.0000   1.0000   1.0000   1.0000   1.0000
     1.0000   1.0000   1.0000   1.0000   1.0000   1.0000   1.0000   1.0000
     1.0000   1.0000   1.0000   1.0000   1.0000   1.0000   1.0000   1.0000
     1.0000   1.0000   1.0000   1.0000   1.0000   1.0000   1.0000   1.0000
     1.0000   1.0000   1.0000   1.0000   1.0000   1.0000   1.0000   1.0000
     1.0000   1.0000   1.0000   1.0000   1.0000   1.0000   1.0000   1.0000
     1.0000   1.0000   1.0000   1.0000   1.0000   1.0000   1.0000   1.0000
     1.0000   1.0000   1.0000   1.0000   1.0000   1.0000   1.0000   1.0000
     1.0000   1.0000   1.0000   1.0000   1.0000   1.0000   1.0000   1.0000
     1.0000   1.0000   1.0000   1.0000   1.0000   1.0000   1.0000   1.0000
     1.0000   1.0000   1.0000   1.0000   1.0000   1.0000   1.0000   1.0000
     1.0000   1.0000   1.0000   1.0000   1.0000   1.0078   1.0082   1.0091
     0.5476   0.4532   0.0322   0.0193   0.0001   0.0001   0.0000   0.0000
     0.0000   0.0000   0.0000   0.0000   0.0000   0.0000   0.0000   0.0000
     0.0000   0.0000   0.0000   0.0000   0.0000   0.0000   0.0000   0.0000
     0.0000   0.0000   0.0000   0.0000   0.0000   0.0000   0.0000   0.0000
     0.0000   0.0000   0.0000   0.0000   0.0000   0.0000   0.0000   0.0000
     0.0000   0.0000   0.0000   0.0000   0.0000   0.0000   0.0000   0.0000
     0.0000   0.0000   0.0000   0.0000   0.0000   0.0000   0.0000   0.0000
     0.0000   0.0000   0.0000   0.0000   0.0000   0.0000   0.0000   0.0000

          k = 0.3333 0.6213 0.3587 ( 21989 PWs)   bands (ev):

  -123.7878-123.7872-123.7869-123.7868-123.7866-123.7864-123.7863-123.7858
  -123.7808-123.7805-123.7803-123.7798-123.7795-123.7791-123.7790-123.7785
  -123.4692-123.4690-123.4688-123.4687-123.4685-123.4684-123.4680-123.4677
  -123.4590-123.4588-123.4586-123.4585-123.4583-123.4582-123.4579-123.4577
   -77.8899 -77.8897 -77.8891 -77.8884 -77.8876 -77.8872 -77.8867 -77.8859
   -77.8858 -77.8854 -77.8849 -77.8841 -77.8744 -77.8743 -77.8740 -77.8739
   -77.8732 -77.8713 -77.8713 -77.8702 -77.8696 -77.8687 -77.8664 -77.8662
   -77.8653 -77.8650 -77.8646 -77.8644 -77.8643 -77.8637 -77.8632 -77.8628
   -77.8625 -77.8622 -77.8613 -77.8605 -77.8597 -77.8593 -77.8592 -77.8588
   -77.8579 -77.8575 -77.8574 -77.8563 -77.8537 -77.8529 -77.8523 -77.8516
   -77.5712 -77.5706 -77.5696 -77.5694 -77.5675 -77.5673 -77.5672 -77.5666
   -77.5635 -77.5632 -77.5629 -77.5624 -77.5615 -77.5603 -77.5601 -77.5600
   -77.5587 -77.5584 -77.5578 -77.5561 -77.5543 -77.5534 -77.5522 -77.5521
   -77.5510 -77.5506 -77.5506 -77.5496 -77.5475 -77.5471 -77.5469 -77.5465
   -77.5465 -77.5456 -77.5454 -77.5450 -77.5355 -77.5349 -77.5343 -77.5325
   -77.5323 -77.5322 -77.5320 -77.5319 -77.5317 -77.5313 -77.5311 -77.5300
    -6.5364  -6.0986  -5.5309  -5.4290  -5.3799  -5.3760  -5.3350  -5.3327
    -5.3307  -5.3102  -5.2712  -5.2605  -5.2582  -5.2533  -5.2429  -5.2257
    -5.2256  -5.2128  -5.0905  -5.0755  -5.0728  -5.0688  -5.0668  -5.0571
    -5.0392  -5.0350  -5.0336  -5.0276  -5.0181  -5.0015  -4.9805  -4.9755
    -4.9750  -4.9688  -4.9478  -4.9441  -4.9366  -4.9297  -4.9229  -4.8739
    -4.8611  -4.8550  -4.8520  -4.8419  -4.8282  -4.8221  -4.8159  -4.7934
    -4.7908  -4.7800  -4.7716  -4.7415  -4.7304  -4.7242  -4.7210  -4.7149
    -4.7032  -4.6860  -4.6745  -4.6624  -4.6563  -4.6333  -4.6267  -4.6227
    -4.5935  -4.5712  -4.5638  -4.5625  -4.5432  -4.5338  -4.5321  -4.5290
    -4.5186  -4.4962  -4.4944  -4.4914  -4.4902  -4.4854  -4.4765  -4.4637
    -4.4629  -4.4449  -4.4430  -4.4414  -4.4374  -4.4299  -4.4285  -4.4210
    -4.4140  -4.4133  -4.4056  -4.3918  -4.3834  -4.3728  -4.3568  -4.3409
    -4.3384  -4.3334  -4.3298  -4.3122  -4.2986  -4.2945  -4.2917  -4.2826
    -4.2538  -4.2472  -4.2373  -4.2348  -4.2243  -4.2207  -4.2183  -4.2169
    -4.2102  -4.1975  -4.1913  -4.1907  -4.1767  -4.1666  -4.1653  -4.1555
    -4.1429  -4.1282  -4.1255  -4.1255  -4.1239  -4.1222  -4.1043  -4.0992
    -4.0992  -4.0925  -4.0895  -4.0774  -4.0655  -4.0550  -4.0522  -4.0300
    -4.0181  -4.0108  -4.0100  -4.0090  -3.9995  -3.9986  -3.9887  -3.9873
    -3.9805  -3.9775  -3.9725  -3.9704  -3.9686  -3.9684  -3.9580  -3.9316
    -3.9314  -3.9309  -3.9274  -3.9263  -3.9218  -3.9166  -3.9080  -3.9049
    -3.8997  -3.8970  -3.8675  -3.6949  -3.6163  -3.2740  -2.8238  -2.7572
    -2.7037  -2.3414  -2.2820  -1.7329  -1.3159  -1.1835  -0.9744  -0.5822
    -0.4060  -0.4045  -0.1976   0.0444   0.4286   0.5274   1.3409   1.3717
     1.5557   1.6661   2.0469   2.2592   2.2788   2.6159   3.0497   3.3604
     3.6402   3.6792   3.7719   4.0967   4.2107   4.3457   4.5365   4.5373
     4.8625   5.0380   5.2041   5.6530   5.7236   5.8153   5.8220   6.1249
     6.2312   6.3565   6.4934   6.5878   6.8523   6.8691   7.0241   7.2562
     7.2732   7.4036   7.4249   7.4322   7.5892   7.7378   8.0176   8.0681
     8.0708   8.3749   8.3849   8.4160   8.7011   8.8371   8.8533   8.8687
     8.9015   9.0734   9.2211   9.2285   9.2299   9.2807   9.4276   9.4966
     9.7914   9.8358   9.8561   9.8617   9.8777  10.0367  10.0676  10.0684
    10.4162  10.4309  10.4481  10.5634  10.6615  10.7342  10.8830  10.9350

     occupation numbers 
     1.0000   1.0000   1.0000   1.0000   1.0000   1.0000   1.0000   1.0000
     1.0000   1.0000   1.0000   1.0000   1.0000   1.0000   1.0000   1.0000
     1.0000   1.0000   1.0000   1.0000   1.0000   1.0000   1.0000   1.0000
     1.0000   1.0000   1.0000   1.0000   1.0000   1.0000   1.0000   1.0000
     1.0000   1.0000   1.0000   1.0000   1.0000   1.0000   1.0000   1.0000
     1.0000   1.0000   1.0000   1.0000   1.0000   1.0000   1.0000   1.0000
     1.0000   1.0000   1.0000   1.0000   1.0000   1.0000   1.0000   1.0000
     1.0000   1.0000   1.0000   1.0000   1.0000   1.0000   1.0000   1.0000
     1.0000   1.0000   1.0000   1.0000   1.0000   1.0000   1.0000   1.0000
     1.0000   1.0000   1.0000   1.0000   1.0000   1.0000   1.0000   1.0000
     1.0000   1.0000   1.0000   1.0000   1.0000   1.0000   1.0000   1.0000
     1.0000   1.0000   1.0000   1.0000   1.0000   1.0000   1.0000   1.0000
     1.0000   1.0000   1.0000   1.0000   1.0000   1.0000   1.0000   1.0000
     1.0000   1.0000   1.0000   1.0000   1.0000   1.0000   1.0000   1.0000
     1.0000   1.0000   1.0000   1.0000   1.0000   1.0000   1.0000   1.0000
     1.0000   1.0000   1.0000   1.0000   1.0000   1.0000   1.0000   1.0000
     1.0000   1.0000   1.0000   1.0000   1.0000   1.0000   1.0000   1.0000
     1.0000   1.0000   1.0000   1.0000   1.0000   1.0000   1.0000   1.0000
     1.0000   1.0000   1.0000   1.0000   1.0000   1.0000   1.0000   1.0000
     1.0000   1.0000   1.0000   1.0000   1.0000   1.0000   1.0000   1.0000
     1.0000   1.0000   1.0000   1.0000   1.0000   1.0000   1.0000   1.0000
     1.0000   1.0000   1.0000   1.0000   1.0000   1.0000   1.0000   1.0000
     1.0000   1.0000   1.0000   1.0000   1.0000   1.0000   1.0000   1.0000
     1.0000   1.0000   1.0000   1.0000   1.0000   1.0000   1.0000   1.0000
     1.0000   1.0000   1.0000   1.0000   1.0000   1.0000   1.0000   1.0000
     1.0000   1.0000   1.0000   1.0000   1.0000   1.0000   1.0000   1.0000
     1.0000   1.0000   1.0000   1.0000   1.0000   1.0000   1.0000   1.0000
     1.0000   1.0000   1.0000   1.0000   1.0000   1.0000   1.0000   1.0000
     1.0000   1.0000   1.0000   1.0000   1.0000   1.0000   1.0000   1.0000
     1.0000   1.0000   1.0000   1.0000   1.0000   1.0000   1.0000   1.0000
     1.0000   1.0000   1.0000   1.0000   1.0000   1.0000   1.0000   1.0000
     1.0000   1.0000   1.0000   1.0000   1.0000   1.0000   1.0000   1.0000
     1.0000   1.0000   1.0000   1.0000   1.0000   1.0000   1.0000   1.0000
     1.0000   1.0000   1.0000   1.0000   1.0000   1.0000   1.0000   1.0000
     1.0000   1.0000   1.0000   1.0000   1.0000   1.0000   1.0000   1.0000
     1.0000   1.0000   1.0000   1.0000   1.0000   1.0000   1.0000   1.0000
     1.0000   1.0000   1.0000   1.0000   1.0000   1.0000   1.0000   1.0000
     1.0000   1.0000   1.0000   1.0000   1.0000   1.0000   1.0000   1.0000
     1.0000   1.0000   1.0000   1.0000   1.0000   1.0000   1.0000   1.0000
     1.0000   1.0000   1.0000   1.0004   1.0006   1.0457   0.6621   0.0603
     0.0009   0.0004   0.0001   0.0000   0.0000   0.0000   0.0000   0.0000
     0.0000   0.0000   0.0000   0.0000   0.0000   0.0000   0.0000   0.0000
     0.0000   0.0000   0.0000   0.0000   0.0000   0.0000   0.0000   0.0000
     0.0000   0.0000   0.0000   0.0000   0.0000   0.0000   0.0000   0.0000
     0.0000   0.0000   0.0000   0.0000   0.0000   0.0000   0.0000   0.0000
     0.0000   0.0000   0.0000   0.0000   0.0000   0.0000   0.0000   0.0000
     0.0000   0.0000   0.0000   0.0000   0.0000   0.0000   0.0000   0.0000
     0.0000   0.0000   0.0000   0.0000   0.0000   0.0000   0.0000   0.0000

          k = 0.3333-0.6213-0.3587 ( 21989 PWs)   bands (ev):

  -123.7878-123.7872-123.7869-123.7868-123.7866-123.7864-123.7862-123.7858
  -123.7807-123.7805-123.7804-123.7797-123.7794-123.7792-123.7790-123.7784
  -123.4692-123.4690-123.4688-123.4687-123.4685-123.4684-123.4680-123.4677
  -123.4590-123.4588-123.4586-123.4585-123.4583-123.4581-123.4580-123.4576
   -77.8899 -77.8896 -77.8892 -77.8883 -77.8877 -77.8872 -77.8867 -77.8859
   -77.8858 -77.8853 -77.8849 -77.8841 -77.8744 -77.8743 -77.8739 -77.8738
   -77.8734 -77.8713 -77.8713 -77.8703 -77.8696 -77.8687 -77.8664 -77.8662
   -77.8653 -77.8650 -77.8646 -77.8643 -77.8642 -77.8638 -77.8633 -77.8627
   -77.8624 -77.8621 -77.8614 -77.8605 -77.8597 -77.8593 -77.8592 -77.8587
   -77.8579 -77.8576 -77.8574 -77.8563 -77.8537 -77.8529 -77.8523 -77.8515
   -77.5713 -77.5706 -77.5696 -77.5694 -77.5675 -77.5674 -77.5671 -77.5666
   -77.5635 -77.5632 -77.5629 -77.5624 -77.5615 -77.5603 -77.5601 -77.5600
   -77.5587 -77.5584 -77.5578 -77.5561 -77.5543 -77.5534 -77.5522 -77.5521
   -77.5509 -77.5507 -77.5506 -77.5496 -77.5475 -77.5472 -77.5469 -77.5466
   -77.5464 -77.5456 -77.5454 -77.5451 -77.5355 -77.5349 -77.5343 -77.5325
   -77.5323 -77.5322 -77.5320 -77.5319 -77.5318 -77.5313 -77.5311 -77.5300
    -6.5364  -6.0986  -5.5309  -5.4290  -5.3799  -5.3760  -5.3350  -5.3327
    -5.3307  -5.3102  -5.2712  -5.2605  -5.2582  -5.2533  -5.2429  -5.2257
    -5.2256  -5.2128  -5.0905  -5.0755  -5.0728  -5.0688  -5.0668  -5.0571
    -5.0392  -5.0350  -5.0336  -5.0276  -5.0181  -5.0015  -4.9805  -4.9755
    -4.9750  -4.9688  -4.9478  -4.9441  -4.9366  -4.9297  -4.9229  -4.8739
    -4.8611  -4.8550  -4.8520  -4.8419  -4.8282  -4.8221  -4.8159  -4.7934
    -4.7908  -4.7800  -4.7716  -4.7415  -4.7304  -4.7242  -4.7210  -4.7149
    -4.7032  -4.6860  -4.6745  -4.6624  -4.6563  -4.6333  -4.6267  -4.6227
    -4.5935  -4.5712  -4.5638  -4.5625  -4.5432  -4.5338  -4.5321  -4.5290
    -4.5186  -4.4962  -4.4944  -4.4914  -4.4902  -4.4854  -4.4765  -4.4637
    -4.4629  -4.4449  -4.4430  -4.4414  -4.4374  -4.4299  -4.4285  -4.4210
    -4.4140  -4.4133  -4.4056  -4.3918  -4.3834  -4.3728  -4.3568  -4.3409
    -4.3384  -4.3334  -4.3298  -4.3122  -4.2986  -4.2945  -4.2917  -4.2826
    -4.2538  -4.2472  -4.2373  -4.2348  -4.2243  -4.2207  -4.2183  -4.2169
    -4.2102  -4.1975  -4.1913  -4.1907  -4.1767  -4.1666  -4.1653  -4.1555
    -4.1429  -4.1282  -4.1255  -4.1255  -4.1239  -4.1222  -4.1043  -4.0992
    -4.0992  -4.0925  -4.0895  -4.0774  -4.0655  -4.0550  -4.0522  -4.0300
    -4.0181  -4.0108  -4.0100  -4.0090  -3.9995  -3.9986  -3.9887  -3.9873
    -3.9805  -3.9775  -3.9725  -3.9704  -3.9686  -3.9684  -3.9580  -3.9316
    -3.9314  -3.9309  -3.9274  -3.9263  -3.9218  -3.9166  -3.9080  -3.9049
    -3.8997  -3.8970  -3.8675  -3.6949  -3.6163  -3.2740  -2.8238  -2.7572
    -2.7037  -2.3414  -2.2820  -1.7329  -1.3159  -1.1835  -0.9744  -0.5822
    -0.4060  -0.4045  -0.1976   0.0444   0.4286   0.5274   1.3409   1.3717
     1.5557   1.6661   2.0469   2.2592   2.2788   2.6159   3.0497   3.3604
     3.6402   3.6792   3.7719   4.0967   4.2107   4.3457   4.5365   4.5373
     4.8625   5.0380   5.2041   5.6530   5.7236   5.8153   5.8220   6.1249
     6.2312   6.3565   6.4934   6.5878   6.8523   6.8691   7.0241   7.2562
     7.2732   7.4036   7.4249   7.4322   7.5892   7.7378   8.0176   8.0681
     8.0708   8.3749   8.3849   8.4160   8.7011   8.8371   8.8533   8.8687
     8.9015   9.0734   9.2211   9.2285   9.2299   9.2807   9.4276   9.4966
     9.7914   9.8358   9.8561   9.8617   9.8777  10.0367  10.0676  10.0684
    10.4162  10.4309  10.4481  10.5634  10.6615  10.7342  10.8830  10.9349

     occupation numbers 
     1.0000   1.0000   1.0000   1.0000   1.0000   1.0000   1.0000   1.0000
     1.0000   1.0000   1.0000   1.0000   1.0000   1.0000   1.0000   1.0000
     1.0000   1.0000   1.0000   1.0000   1.0000   1.0000   1.0000   1.0000
     1.0000   1.0000   1.0000   1.0000   1.0000   1.0000   1.0000   1.0000
     1.0000   1.0000   1.0000   1.0000   1.0000   1.0000   1.0000   1.0000
     1.0000   1.0000   1.0000   1.0000   1.0000   1.0000   1.0000   1.0000
     1.0000   1.0000   1.0000   1.0000   1.0000   1.0000   1.0000   1.0000
     1.0000   1.0000   1.0000   1.0000   1.0000   1.0000   1.0000   1.0000
     1.0000   1.0000   1.0000   1.0000   1.0000   1.0000   1.0000   1.0000
     1.0000   1.0000   1.0000   1.0000   1.0000   1.0000   1.0000   1.0000
     1.0000   1.0000   1.0000   1.0000   1.0000   1.0000   1.0000   1.0000
     1.0000   1.0000   1.0000   1.0000   1.0000   1.0000   1.0000   1.0000
     1.0000   1.0000   1.0000   1.0000   1.0000   1.0000   1.0000   1.0000
     1.0000   1.0000   1.0000   1.0000   1.0000   1.0000   1.0000   1.0000
     1.0000   1.0000   1.0000   1.0000   1.0000   1.0000   1.0000   1.0000
     1.0000   1.0000   1.0000   1.0000   1.0000   1.0000   1.0000   1.0000
     1.0000   1.0000   1.0000   1.0000   1.0000   1.0000   1.0000   1.0000
     1.0000   1.0000   1.0000   1.0000   1.0000   1.0000   1.0000   1.0000
     1.0000   1.0000   1.0000   1.0000   1.0000   1.0000   1.0000   1.0000
     1.0000   1.0000   1.0000   1.0000   1.0000   1.0000   1.0000   1.0000
     1.0000   1.0000   1.0000   1.0000   1.0000   1.0000   1.0000   1.0000
     1.0000   1.0000   1.0000   1.0000   1.0000   1.0000   1.0000   1.0000
     1.0000   1.0000   1.0000   1.0000   1.0000   1.0000   1.0000   1.0000
     1.0000   1.0000   1.0000   1.0000   1.0000   1.0000   1.0000   1.0000
     1.0000   1.0000   1.0000   1.0000   1.0000   1.0000   1.0000   1.0000
     1.0000   1.0000   1.0000   1.0000   1.0000   1.0000   1.0000   1.0000
     1.0000   1.0000   1.0000   1.0000   1.0000   1.0000   1.0000   1.0000
     1.0000   1.0000   1.0000   1.0000   1.0000   1.0000   1.0000   1.0000
     1.0000   1.0000   1.0000   1.0000   1.0000   1.0000   1.0000   1.0000
     1.0000   1.0000   1.0000   1.0000   1.0000   1.0000   1.0000   1.0000
     1.0000   1.0000   1.0000   1.0000   1.0000   1.0000   1.0000   1.0000
     1.0000   1.0000   1.0000   1.0000   1.0000   1.0000   1.0000   1.0000
     1.0000   1.0000   1.0000   1.0000   1.0000   1.0000   1.0000   1.0000
     1.0000   1.0000   1.0000   1.0000   1.0000   1.0000   1.0000   1.0000
     1.0000   1.0000   1.0000   1.0000   1.0000   1.0000   1.0000   1.0000
     1.0000   1.0000   1.0000   1.0000   1.0000   1.0000   1.0000   1.0000
     1.0000   1.0000   1.0000   1.0000   1.0000   1.0000   1.0000   1.0000
     1.0000   1.0000   1.0000   1.0000   1.0000   1.0000   1.0000   1.0000
     1.0000   1.0000   1.0000   1.0000   1.0000   1.0000   1.0000   1.0000
     1.0000   1.0000   1.0000   1.0004   1.0006   1.0457   0.6621   0.0603
     0.0009   0.0004   0.0001   0.0000   0.0000   0.0000   0.0000   0.0000
     0.0000   0.0000   0.0000   0.0000   0.0000   0.0000   0.0000   0.0000
     0.0000   0.0000   0.0000   0.0000   0.0000   0.0000   0.0000   0.0000
     0.0000   0.0000   0.0000   0.0000   0.0000   0.0000   0.0000   0.0000
     0.0000   0.0000   0.0000   0.0000   0.0000   0.0000   0.0000   0.0000
     0.0000   0.0000   0.0000   0.0000   0.0000   0.0000   0.0000   0.0000
     0.0000   0.0000   0.0000   0.0000   0.0000   0.0000   0.0000   0.0000
     0.0000   0.0000   0.0000   0.0000   0.0000   0.0000   0.0000   0.0000

     the Fermi energy is     3.1465 ev

!    total energy              =  -14767.54741814 Ry
     estimated scf accuracy    <       0.00000026 Ry
     smearing contrib. (-TS)   =      -0.00210372 Ry
     internal energy E=F+TS    =  -14767.54531442 Ry

     The total energy is F=E-TS. E is the sum of the following terms:
     one-electron contribution =  -88697.68963946 Ry
     hartree contribution      =   44336.55292842 Ry
     xc contribution           =   -1348.58616110 Ry
     ewald contribution        =   30942.17755772 Ry

     convergence has been achieved in  11 iterations

     Forces acting on atoms (cartesian axes, Ry/au):

     atom    1 type  1   force =    -0.00017402    0.00000153   -0.01034129
     atom    2 type  1   force =    -0.00028522    0.00000384    0.01251639
     atom    3 type  1   force =    -0.00028963    0.00000651    0.00543744
     atom    4 type  1   force =    -0.00020718    0.00002162    0.02937066
     atom    5 type  1   force =    -0.00017440    0.00000129   -0.01034167
     atom    6 type  1   force =    -0.00028482    0.00000614    0.01251691
     atom    7 type  1   force =    -0.00028834    0.00000494    0.00543873
     atom    8 type  1   force =    -0.00020708    0.00002441    0.02937025
     atom    9 type  1   force =     0.00017517    0.00000186   -0.01000494
     atom   10 type  1   force =     0.00030111    0.00000398    0.01267624
     atom   11 type  1   force =     0.00030361    0.00000637    0.00533223
     atom   12 type  1   force =     0.00021305    0.00002487    0.02903758
     atom   13 type  1   force =     0.00017548    0.00000122   -0.01000506
     atom   14 type  1   force =     0.00030103    0.00000602    0.01267575
     atom   15 type  1   force =     0.00030279    0.00000461    0.00533109
     atom   16 type  1   force =     0.00021237    0.00002137    0.02903758
     atom   17 type  1   force =     0.00047336   -0.00001893   -0.02923613
     atom   18 type  1   force =     0.00063867   -0.00001134   -0.00544295
     atom   19 type  1   force =     0.00059989   -0.00000858   -0.01260695
     atom   20 type  1   force =     0.00036138    0.00000020    0.01029999
     atom   21 type  1   force =     0.00047316   -0.00001715   -0.02923581
     atom   22 type  1   force =     0.00063785   -0.00001050   -0.00544117
     atom   23 type  1   force =     0.00060017   -0.00000581   -0.01260616
     atom   24 type  1   force =     0.00036311    0.00000123    0.01030093
     atom   25 type  1   force =    -0.00047639   -0.00001840   -0.02907665
     atom   26 type  1   force =    -0.00065264   -0.00001109   -0.00540566
     atom   27 type  1   force =    -0.00062025   -0.00000732   -0.01269760
     atom   28 type  1   force =    -0.00036052    0.00000060    0.01013916
     atom   29 type  1   force =    -0.00047681   -0.00001679   -0.02907628
     atom   30 type  1   force =    -0.00065329   -0.00001083   -0.00540450
     atom   31 type  1   force =    -0.00062004   -0.00000646   -0.01269659
     atom   32 type  1   force =    -0.00036156    0.00000057    0.01013847
     The non-local contrib.  to forces
     atom    1 type  1   force =    -0.00013808   -0.00000841   -0.13824832
     atom    2 type  1   force =    -0.00022637    0.00000149    0.01609733
     atom    3 type  1   force =    -0.00022883   -0.00000302   -0.01268710
     atom    4 type  1   force =    -0.00016661   -0.00000423    0.02971991
     atom    5 type  1   force =    -0.00013811   -0.00000839   -0.13824847
     atom    6 type  1   force =    -0.00022610    0.00000247    0.01609720
     atom    7 type  1   force =    -0.00022866   -0.00000335   -0.01268665
     atom    8 type  1   force =    -0.00016656   -0.00000260    0.02971989
     atom    9 type  1   force =     0.00013855   -0.00000823   -0.13799266
     atom   10 type  1   force =     0.00023019    0.00000152    0.01621397
     atom   11 type  1   force =     0.00023186   -0.00000282   -0.01277663
     atom   12 type  1   force =     0.00016648   -0.00000293    0.02947966
     atom   13 type  1   force =     0.00013847   -0.00000859   -0.13799253
     atom   14 type  1   force =     0.00023011    0.00000252    0.01621378
     atom   15 type  1   force =     0.00023180   -0.00000350   -0.01277687
     atom   16 type  1   force =     0.00016637   -0.00000394    0.02947943
     atom   17 type  1   force =     0.00037569    0.00000506   -0.02961681
     atom   18 type  1   force =     0.00049385    0.00000136    0.01265833
     atom   19 type  1   force =     0.00047127   -0.00000332   -0.01615299
     atom   20 type  1   force =     0.00028518    0.00001215    0.13825060
     atom   21 type  1   force =     0.00037577    0.00000645   -0.02961687
     atom   22 type  1   force =     0.00049381    0.00000178    0.01265899
     atom   23 type  1   force =     0.00047141   -0.00000200   -0.01615278
     atom   24 type  1   force =     0.00028572    0.00001286    0.13825079
     atom   25 type  1   force =    -0.00037648    0.00000506   -0.02950057
     atom   26 type  1   force =    -0.00049763    0.00000168    0.01269149
     atom   27 type  1   force =    -0.00047469   -0.00000297   -0.01622208
     atom   28 type  1   force =    -0.00028476    0.00001242    0.13812909
     atom   29 type  1   force =    -0.00037665    0.00000659   -0.02950055
     atom   30 type  1   force =    -0.00049751    0.00000165    0.01269182
     atom   31 type  1   force =    -0.00047475   -0.00000244   -0.01622208
     atom   32 type  1   force =    -0.00028530    0.00001266    0.13812911
     The ionic contribution  to forces
     atom    1 type  1   force =    -0.00000004   -0.00000009 -429.53429391
     atom    2 type  1   force =    -0.00000006   -0.00000003 -177.76316129
     atom    3 type  1   force =    -0.00000006   -0.00000004   89.93960479
     atom    4 type  1   force =    -0.00000006   -0.00000004  364.43371585
     atom    5 type  1   force =    -0.00000004   -0.00000013 -429.53429392
     atom    6 type  1   force =    -0.00000006   -0.00000008 -177.76316131
     atom    7 type  1   force =    -0.00000006   -0.00000008   89.93960477
     atom    8 type  1   force =    -0.00000006   -0.00000009  364.43371584
     atom    9 type  1   force =    -0.00000003   -0.00000009 -429.53429392
     atom   10 type  1   force =    -0.00000004   -0.00000003 -177.76316129
     atom   11 type  1   force =    -0.00000004   -0.00000004   89.93960479
     atom   12 type  1   force =    -0.00000004   -0.00000004  364.43371585
     atom   13 type  1   force =    -0.00000003   -0.00000013 -429.53429393
     atom   14 type  1   force =    -0.00000004   -0.00000008 -177.76316131
     atom   15 type  1   force =    -0.00000004   -0.00000008   89.93960477
     atom   16 type  1   force =    -0.00000004   -0.00000009  364.43371584
     atom   17 type  1   force =     0.00000004    0.00000009 -364.43371584
     atom   18 type  1   force =     0.00000004    0.00000008  -89.93960477
     atom   19 type  1   force =     0.00000004    0.00000008  177.76316131
     atom   20 type  1   force =     0.00000003    0.00000013  429.53429393
     atom   21 type  1   force =     0.00000004    0.00000004 -364.43371585
     atom   22 type  1   force =     0.00000004    0.00000004  -89.93960479
     atom   23 type  1   force =     0.00000004    0.00000003  177.76316129
     atom   24 type  1   force =     0.00000003    0.00000009  429.53429392
     atom   25 type  1   force =     0.00000006    0.00000009 -364.43371584
     atom   26 type  1   force =     0.00000006    0.00000008  -89.93960477
     atom   27 type  1   force =     0.00000006    0.00000008  177.76316131
     atom   28 type  1   force =     0.00000004    0.00000013  429.53429392
     atom   29 type  1   force =     0.00000006    0.00000004 -364.43371585
     atom   30 type  1   force =     0.00000006    0.00000004  -89.93960479
     atom   31 type  1   force =     0.00000006    0.00000003  177.76316129
     atom   32 type  1   force =     0.00000004    0.00000009  429.53429391
     The local contribution  to forces
     atom    1 type  1   force =     0.00030392    0.00001064  429.66236787
     atom    2 type  1   force =     0.00048889    0.00000460  177.75964751
     atom    3 type  1   force =     0.00049553    0.00000836  -89.92134942
     atom    4 type  1   force =     0.00035569    0.00002875 -364.43422707
     atom    5 type  1   force =     0.00030406    0.00001076  429.66236826
     atom    6 type  1   force =     0.00048845    0.00000206  177.75964737
     atom    7 type  1   force =     0.00049464    0.00000967  -89.92135068
     atom    8 type  1   force =     0.00035547    0.00002472 -364.43422684
     atom    9 type  1   force =    -0.00030421    0.00001060  429.66177862
     atom   10 type  1   force =    -0.00048505    0.00000442  177.75935739
     atom   11 type  1   force =    -0.00049817    0.00000820  -89.92116411
     atom   12 type  1   force =    -0.00035063    0.00002528 -364.43368287
     atom   13 type  1   force =    -0.00030433    0.00001140  429.66177838
     atom   14 type  1   force =    -0.00048472    0.00000178  177.75935818
     atom   15 type  1   force =    -0.00049760    0.00001026  -89.92116331
     atom   16 type  1   force =    -0.00035036    0.00002818 -364.43368240
     atom   17 type  1   force =    -0.00080944   -0.00002146  364.43393091
     atom   18 type  1   force =    -0.00106091   -0.00001116   89.92135189
     atom   19 type  1   force =    -0.00101070   -0.00000294 -177.75956975
     atom   20 type  1   force =    -0.00062254   -0.00001126 -429.66241565
     atom   21 type  1   force =    -0.00080933   -0.00002490  364.43393067
     atom   22 type  1   force =    -0.00106025   -0.00001233   89.92134986
     atom   23 type  1   force =    -0.00101082   -0.00000616 -177.75957040
     atom   24 type  1   force =    -0.00062420   -0.00001281 -429.66241631
     atom   25 type  1   force =     0.00081029   -0.00002171  364.43366295
     atom   26 type  1   force =     0.00106444   -0.00001174   89.92128394
     atom   27 type  1   force =     0.00100020   -0.00000401 -177.75939731
     atom   28 type  1   force =     0.00062134   -0.00001206 -429.66213659
     atom   29 type  1   force =     0.00081063   -0.00002509  364.43366264
     atom   30 type  1   force =     0.00106462   -0.00001169   89.92128253
     atom   31 type  1   force =     0.00100026   -0.00000527 -177.75939769
     atom   32 type  1   force =     0.00062265   -0.00001237 -429.66213650
     The core correction contribution to forces
     atom    1 type  1   force =     0.00000000    0.00000000    0.00000000
     atom    2 type  1   force =     0.00000000    0.00000000    0.00000000
     atom    3 type  1   force =     0.00000000    0.00000000    0.00000000
     atom    4 type  1   force =     0.00000000    0.00000000    0.00000000
     atom    5 type  1   force =     0.00000000    0.00000000    0.00000000
     atom    6 type  1   force =     0.00000000    0.00000000    0.00000000
     atom    7 type  1   force =     0.00000000    0.00000000    0.00000000
     atom    8 type  1   force =     0.00000000    0.00000000    0.00000000
     atom    9 type  1   force =     0.00000000    0.00000000    0.00000000
     atom   10 type  1   force =     0.00000000    0.00000000    0.00000000
     atom   11 type  1   force =     0.00000000    0.00000000    0.00000000
     atom   12 type  1   force =     0.00000000    0.00000000    0.00000000
     atom   13 type  1   force =     0.00000000    0.00000000    0.00000000
     atom   14 type  1   force =     0.00000000    0.00000000    0.00000000
     atom   15 type  1   force =     0.00000000    0.00000000    0.00000000
     atom   16 type  1   force =     0.00000000    0.00000000    0.00000000
     atom   17 type  1   force =     0.00000000    0.00000000    0.00000000
     atom   18 type  1   force =     0.00000000    0.00000000    0.00000000
     atom   19 type  1   force =     0.00000000    0.00000000    0.00000000
     atom   20 type  1   force =     0.00000000    0.00000000    0.00000000
     atom   21 type  1   force =     0.00000000    0.00000000    0.00000000
     atom   22 type  1   force =     0.00000000    0.00000000    0.00000000
     atom   23 type  1   force =     0.00000000    0.00000000    0.00000000
     atom   24 type  1   force =     0.00000000    0.00000000    0.00000000
     atom   25 type  1   force =     0.00000000    0.00000000    0.00000000
     atom   26 type  1   force =     0.00000000    0.00000000    0.00000000
     atom   27 type  1   force =     0.00000000    0.00000000    0.00000000
     atom   28 type  1   force =     0.00000000    0.00000000    0.00000000
     atom   29 type  1   force =     0.00000000    0.00000000    0.00000000
     atom   30 type  1   force =     0.00000000    0.00000000    0.00000000
     atom   31 type  1   force =     0.00000000    0.00000000    0.00000000
     atom   32 type  1   force =     0.00000000    0.00000000    0.00000000
     The Hubbard contrib.    to forces
     atom    1 type  1   force =     0.00000000    0.00000000    0.00000000
     atom    2 type  1   force =     0.00000000    0.00000000    0.00000000
     atom    3 type  1   force =     0.00000000    0.00000000    0.00000000
     atom    4 type  1   force =     0.00000000    0.00000000    0.00000000
     atom    5 type  1   force =     0.00000000    0.00000000    0.00000000
     atom    6 type  1   force =     0.00000000    0.00000000    0.00000000
     atom    7 type  1   force =     0.00000000    0.00000000    0.00000000
     atom    8 type  1   force =     0.00000000    0.00000000    0.00000000
     atom    9 type  1   force =     0.00000000    0.00000000    0.00000000
     atom   10 type  1   force =     0.00000000    0.00000000    0.00000000
     atom   11 type  1   force =     0.00000000    0.00000000    0.00000000
     atom   12 type  1   force =     0.00000000    0.00000000    0.00000000
     atom   13 type  1   force =     0.00000000    0.00000000    0.00000000
     atom   14 type  1   force =     0.00000000    0.00000000    0.00000000
     atom   15 type  1   force =     0.00000000    0.00000000    0.00000000
     atom   16 type  1   force =     0.00000000    0.00000000    0.00000000
     atom   17 type  1   force =     0.00000000    0.00000000    0.00000000
     atom   18 type  1   force =     0.00000000    0.00000000    0.00000000
     atom   19 type  1   force =     0.00000000    0.00000000    0.00000000
     atom   20 type  1   force =     0.00000000    0.00000000    0.00000000
     atom   21 type  1   force =     0.00000000    0.00000000    0.00000000
     atom   22 type  1   force =     0.00000000    0.00000000    0.00000000
     atom   23 type  1   force =     0.00000000    0.00000000    0.00000000
     atom   24 type  1   force =     0.00000000    0.00000000    0.00000000
     atom   25 type  1   force =     0.00000000    0.00000000    0.00000000
     atom   26 type  1   force =     0.00000000    0.00000000    0.00000000
     atom   27 type  1   force =     0.00000000    0.00000000    0.00000000
     atom   28 type  1   force =     0.00000000    0.00000000    0.00000000
     atom   29 type  1   force =     0.00000000    0.00000000    0.00000000
     atom   30 type  1   force =     0.00000000    0.00000000    0.00000000
     atom   31 type  1   force =     0.00000000    0.00000000    0.00000000
     atom   32 type  1   force =     0.00000000    0.00000000    0.00000000
     The SCF correction term to forces
     atom    1 type  1   force =    -0.00000000   -0.00000000   -0.00000000
     atom    2 type  1   force =    -0.00000000   -0.00000000   -0.00000000
     atom    3 type  1   force =    -0.00055648    0.00000145   -0.00008729
     atom    4 type  1   force =    -0.00039642   -0.00000262    0.00020551
     atom    5 type  1   force =    -0.00000000   -0.00000000   -0.00000000
     atom    6 type  1   force =    -0.00000000    0.00000000   -0.00000000
     atom    7 type  1   force =    -0.00055447   -0.00000106   -0.00008517
     atom    8 type  1   force =    -0.00039615    0.00000262    0.00020491
     atom    9 type  1   force =     0.00000000   -0.00000000    0.00000000
     atom   10 type  1   force =     0.00000000   -0.00000000    0.00000000
     atom   11 type  1   force =     0.00056975    0.00000127   -0.00028827
     atom   12 type  1   force =     0.00039703    0.00000280   -0.00043151
     atom   13 type  1   force =     0.00000000   -0.00000000    0.00000000
     atom   14 type  1   force =     0.00000000    0.00000000    0.00000000
     atom   15 type  1   force =     0.00056843   -0.00000183   -0.00028996
     atom   16 type  1   force =     0.00039619   -0.00000254   -0.00043175
     atom   17 type  1   force =     0.00000000   -0.00000000    0.00000000
     atom   18 type  1   force =     0.00000000   -0.00000000    0.00000000
     atom   19 type  1   force =     0.00113907   -0.00000216   -0.00000198
     atom   20 type  1   force =     0.00069850   -0.00000057    0.00021465
     atom   21 type  1   force =     0.00000000    0.00000000    0.00000000
     atom   22 type  1   force =     0.00000000    0.00000000    0.00000000
     atom   23 type  1   force =     0.00113932    0.00000256   -0.00000074
     atom   24 type  1   force =     0.00070136    0.00000134    0.00021607
     atom   25 type  1   force =    -0.00000000   -0.00000000    0.00000000
     atom   26 type  1   force =    -0.00000000   -0.00000000    0.00000000
     atom   27 type  1   force =    -0.00114602   -0.00000017   -0.00019598
     atom   28 type  1   force =    -0.00069736    0.00000035   -0.00010372
     atom   29 type  1   force =    -0.00000000    0.00000000    0.00000000
     atom   30 type  1   force =    -0.00000000   -0.00000000    0.00000000
     atom   31 type  1   force =    -0.00114583    0.00000146   -0.00019457
     atom   32 type  1   force =    -0.00069916    0.00000043   -0.00010451

     Total force =     0.067736     Total SCF correction =     0.003146


     Computing stress (Cartesian axis) and pressure

          total   stress  (Ry/bohr**3)                   (kbar)     P=     -288.79
  -0.00200991   0.00000000  -0.00000000         -295.67        0.00       -0.00
   0.00000000  -0.00207923   0.00000235            0.00     -305.86        0.35
  -0.00000000   0.00000235  -0.00180033           -0.00        0.35     -264.84

     kinetic stress (kbar)  16057.22     -0.00     -0.00
                               -0.00  15981.98     -0.02
                               -0.00     -0.02  16053.41

     local   stress (kbar)**********      0.00     -0.00
                                0.00**********      0.18
                               -0.00      0.181431436.11

     nonloc. stress (kbar)  -1964.40      0.00     -0.00
                                0.00  -1939.33      0.28
                               -0.00      0.28  -1968.86

     hartree stress (kbar) 742924.19     -0.00      0.00
                               -0.00 751332.44     -0.09
                                0.00     -0.09-671701.08

     exc-cor stress (kbar)  -8016.15     -0.00      0.00
                               -0.00  -8011.55     -0.00
                                0.00     -0.00  -8017.03

     corecor stress (kbar)      0.00      0.00      0.00
                                0.00      0.00      0.00
                                0.00      0.00      0.00

     ewald   stress (kbar) 664450.16     -0.00      0.00
                               -0.00 675673.11      0.00
                                0.00      0.00-766067.37

     hubbard stress (kbar)      0.00      0.00      0.00
                                0.00      0.00      0.00
                                0.00      0.00      0.00

     DFT-D   stress (kbar)      0.00      0.00      0.00
                                0.00      0.00      0.00
                                0.00      0.00      0.00

     XDM     stress (kbar)      0.00      0.00      0.00
                                0.00      0.00      0.00
                                0.00      0.00      0.00

     dft-nl  stress (kbar)      0.00      0.00      0.00
                                0.00      0.00      0.00
                                0.00      0.00      0.00

     TS-vdW  stress (kbar)      0.00      0.00      0.00
                                0.00      0.00      0.00
                                0.00      0.00      0.00

     MDB     stress (kbar)      0.00      0.00      0.00
                                0.00      0.00      0.00
                                0.00      0.00      0.00

     3D-RISM stress (kbar)      0.00      0.00      0.00
                                0.00      0.00      0.00
                                0.00      0.00      0.00


     BFGS Geometry Optimization
     Energy error            =      0.0E+00 Ry
     Gradient error          =      2.9E-02 Ry/Bohr

     number of scf cycles    =   1
     number of bfgs steps    =   0

     energy             new  =  -14767.5474181360 Ry

     new trust radius        =       0.0293714013 bohr
     new conv_thr            =       0.0000007350 Ry


ATOMIC_POSITIONS (angstrom)
Zn               1.2182902100        1.3071799410        0.7547006760    0   0   0
Zn               1.2182902100        0.0000000130        3.0188027260    0   0   0
Zn               1.2181369446       -1.3071764709        5.2857821440
Zn               1.2181805751       -2.6143484020        7.5625491103
Zn               1.2182902100        3.9215397970        0.7547006760    0   0   0
Zn               1.2182902100        2.6143598690        3.0188027260    0   0   0
Zn               1.2181376269        1.3071825555        5.2857828277
Zn               1.2181806292        0.0000129291        7.5625488942
Zn               6.0914510490        1.3071799410        0.7547006760    0   0   0
Zn               6.0914510490        0.0000000130        3.0188027260    0   0   0
Zn               6.0916117099       -1.3071765442        5.2857264718
Zn               6.0915637926       -2.6143466799        7.5623728522
Zn               6.0914510490        3.9215397970        0.7547006760    0   0   0
Zn               6.0914510490        2.6143598690        3.0188027260    0   0   0
Zn               6.0916112809        1.3071823782        5.2857258662
Zn               6.0915634279        0.0000113219        7.5623728480
Zn               3.6548706290       -0.0000000130        1.5094013740    0   0   0
[...]
     atom    2 type  1   force =     0.06563782    0.00004230  160.78513221
     atom    3 type  1   force =     0.31146353   -0.00051154 -106.43601086
     atom    4 type  1   force =     0.32432651    0.00009003 -369.50777027
     atom    5 type  1   force =     0.01353608    0.00001234  416.42445963
     atom    6 type  1   force =     0.06564153    0.00007266  160.78513125
     atom    7 type  1   force =     0.31140882   -0.00051140 -106.43616581
     atom    8 type  1   force =     0.32431562    0.00006482 -369.50767924
     atom    9 type  1   force =    -0.01353245    0.00001194  416.42604834
     atom   10 type  1   force =    -0.06583468    0.00007381  160.79561677
     atom   11 type  1   force =    -0.30576303   -0.00052962 -106.44165220
     atom   12 type  1   force =    -0.32227499    0.00007142 -369.42976459
     atom   13 type  1   force =    -0.01353262    0.00001240  416.42604712
     atom   14 type  1   force =    -0.06583430    0.00004874  160.79561522
     atom   15 type  1   force =    -0.30573226   -0.00051990 -106.44152014
     atom   16 type  1   force =    -0.32224625    0.00008712 -369.42977835
     atom   17 type  1   force =     0.00113748   -0.00001978  352.08665152
     atom   18 type  1   force =    -0.00648781   -0.00016582   87.22478037
     atom   19 type  1   force =    -0.12215668    0.00039552 -152.38430127
     atom   20 type  1   force =    -0.14748164    0.00017614 -388.05872860
     atom   21 type  1   force =     0.00113731   -0.00001883  352.08665065
     atom   22 type  1   force =    -0.00646292   -0.00018240   87.22477019
     atom   23 type  1   force =    -0.12213805    0.00034937 -152.38425398
     atom   24 type  1   force =    -0.14750562    0.00016131 -388.05865585
     atom   25 type  1   force =    -0.00112869   -0.00001911  352.04247062
     atom   26 type  1   force =     0.00583041   -0.00015600   87.07442616
     atom   27 type  1   force =     0.11771873    0.00035455 -152.43850073
     atom   28 type  1   force =     0.14501561    0.00018426 -387.91393983
     atom   29 type  1   force =    -0.00112883   -0.00001934  352.04246860
     atom   30 type  1   force =     0.00581216   -0.00019617   87.07442929
     atom   31 type  1   force =     0.11774388    0.00037688 -152.43838714
     atom   32 type  1   force =     0.14503725    0.00020307 -387.91402354
     The core correction contribution to forces
     atom    1 type  1   force =     0.00000000    0.00000000    0.00000000
     atom    2 type  1   force =     0.00000000    0.00000000    0.00000000
     atom    3 type  1   force =     0.00000000    0.00000000    0.00000000
     atom    4 type  1   force =     0.00000000    0.00000000    0.00000000
     atom    5 type  1   force =     0.00000000    0.00000000    0.00000000
     atom    6 type  1   force =     0.00000000    0.00000000    0.00000000
     atom    7 type  1   force =     0.00000000    0.00000000    0.00000000
     atom    8 type  1   force =     0.00000000    0.00000000    0.00000000
     atom    9 type  1   force =     0.00000000    0.00000000    0.00000000
     atom   10 type  1   force =     0.00000000    0.00000000    0.00000000
     atom   11 type  1   force =     0.00000000    0.00000000    0.00000000
     atom   12 type  1   force =     0.00000000    0.00000000    0.00000000
     atom   13 type  1   force =     0.00000000    0.00000000    0.00000000
     atom   14 type  1   force =     0.00000000    0.00000000    0.00000000
     atom   15 type  1   force =     0.00000000    0.00000000    0.00000000
     atom   16 type  1   force =     0.00000000    0.00000000    0.00000000
     atom   17 type  1   force =     0.00000000    0.00000000    0.00000000
     atom   18 type  1   force =     0.00000000    0.00000000    0.00000000
     atom   19 type  1   force =     0.00000000    0.00000000    0.00000000
     atom   20 type  1   force =     0.00000000    0.00000000    0.00000000
     atom   21 type  1   force =     0.00000000    0.00000000    0.00000000
     atom   22 type  1   force =     0.00000000    0.00000000    0.00000000
     atom   23 type  1   force =     0.00000000    0.00000000    0.00000000
     atom   24 type  1   force =     0.00000000    0.00000000    0.00000000
     atom   25 type  1   force =     0.00000000    0.00000000    0.00000000
     atom   26 type  1   force =     0.00000000    0.00000000    0.00000000
     atom   27 type  1   force =     0.00000000    0.00000000    0.00000000
     atom   28 type  1   force =     0.00000000    0.00000000    0.00000000
     atom   29 type  1   force =     0.00000000    0.00000000    0.00000000
     atom   30 type  1   force =     0.00000000    0.00000000    0.00000000
     atom   31 type  1   force =     0.00000000    0.00000000    0.00000000
     atom   32 type  1   force =     0.00000000    0.00000000    0.00000000
     The Hubbard contrib.    to forces
     atom    1 type  1   force =     0.00000000    0.00000000    0.00000000
     atom    2 type  1   force =     0.00000000    0.00000000    0.00000000
     atom    3 type  1   force =     0.00000000    0.00000000    0.00000000
     atom    4 type  1   force =     0.00000000    0.00000000    0.00000000
     atom    5 type  1   force =     0.00000000    0.00000000    0.00000000
     atom    6 type  1   force =     0.00000000    0.00000000    0.00000000
     atom    7 type  1   force =     0.00000000    0.00000000    0.00000000
     atom    8 type  1   force =     0.00000000    0.00000000    0.00000000
     atom    9 type  1   force =     0.00000000    0.00000000    0.00000000
     atom   10 type  1   force =     0.00000000    0.00000000    0.00000000
     atom   11 type  1   force =     0.00000000    0.00000000    0.00000000
     atom   12 type  1   force =     0.00000000    0.00000000    0.00000000
     atom   13 type  1   force =     0.00000000    0.00000000    0.00000000
     atom   14 type  1   force =     0.00000000    0.00000000    0.00000000
     atom   15 type  1   force =     0.00000000    0.00000000    0.00000000
     atom   16 type  1   force =     0.00000000    0.00000000    0.00000000
     atom   17 type  1   force =     0.00000000    0.00000000    0.00000000
     atom   18 type  1   force =     0.00000000    0.00000000    0.00000000
     atom   19 type  1   force =     0.00000000    0.00000000    0.00000000
     atom   20 type  1   force =     0.00000000    0.00000000    0.00000000
     atom   21 type  1   force =     0.00000000    0.00000000    0.00000000
     atom   22 type  1   force =     0.00000000    0.00000000    0.00000000
     atom   23 type  1   force =     0.00000000    0.00000000    0.00000000
     atom   24 type  1   force =     0.00000000    0.00000000    0.00000000
     atom   25 type  1   force =     0.00000000    0.00000000    0.00000000
     atom   26 type  1   force =     0.00000000    0.00000000    0.00000000
     atom   27 type  1   force =     0.00000000    0.00000000    0.00000000
     atom   28 type  1   force =     0.00000000    0.00000000    0.00000000
     atom   29 type  1   force =     0.00000000    0.00000000    0.00000000
     atom   30 type  1   force =     0.00000000    0.00000000    0.00000000
     atom   31 type  1   force =     0.00000000    0.00000000    0.00000000
     atom   32 type  1   force =     0.00000000    0.00000000    0.00000000
     The SCF correction term to forces
     atom    1 type  1   force =    -0.00000000   -0.00000000   -0.00000000
     atom    2 type  1   force =    -0.00000000    0.00000000   -0.00000000
     atom    3 type  1   force =    -0.00014723   -0.00000007    0.00009426
     atom    4 type  1   force =    -0.00014756   -0.00000011    0.00010851
     atom    5 type  1   force =    -0.00000000   -0.00000000   -0.00000000
     atom    6 type  1   force =    -0.00000000    0.00000000   -0.00000000
     atom    7 type  1   force =    -0.00014724   -0.00000007    0.00009426
     atom    8 type  1   force =    -0.00014756   -0.00000010    0.00010851
     atom    9 type  1   force =     0.00000000   -0.00000000   -0.00000000
     atom   10 type  1   force =     0.00000000    0.00000000   -0.00000000
     atom   11 type  1   force =     0.00013630   -0.00000008    0.00002979
     atom   12 type  1   force =     0.00014609   -0.00000003    0.00015883
     atom   13 type  1   force =     0.00000000   -0.00000000   -0.00000000
     atom   14 type  1   force =     0.00000000    0.00000000   -0.00000000
     atom   15 type  1   force =     0.00013630   -0.00000008    0.00002979
     atom   16 type  1   force =     0.00014609   -0.00000004    0.00015883
     atom   17 type  1   force =     0.00000000   -0.00000000   -0.00000000
     atom   18 type  1   force =    -0.00000000   -0.00000000   -0.00000000
     atom   19 type  1   force =    -0.00007065   -0.00000002    0.00005114
     atom   20 type  1   force =    -0.00007442    0.00000005    0.00021848
     atom   21 type  1   force =     0.00000000   -0.00000000   -0.00000000
     atom   22 type  1   force =    -0.00000000   -0.00000000   -0.00000000
     atom   23 type  1   force =    -0.00007065   -0.00000002    0.00005114
     atom   24 type  1   force =    -0.00007442    0.00000005    0.00021848
     atom   25 type  1   force =    -0.00000000    0.00000000   -0.00000000
     atom   26 type  1   force =     0.00000000   -0.00000000   -0.00000000
     atom   27 type  1   force =     0.00007237   -0.00000002    0.00009199
     atom   28 type  1   force =     0.00007493   -0.00000000    0.00013978
     atom   29 type  1   force =    -0.00000000    0.00000000   -0.00000000
     atom   30 type  1   force =     0.00000000   -0.00000000   -0.00000000
     atom   31 type  1   force =     0.00007237   -0.00000001    0.00009199
     atom   32 type  1   force =     0.00007492   -0.00000000    0.00013978

     Total force =     0.001244     Total SCF correction =     0.000678
     SCF correction compared to forces is large: reduce conv_thr to get better values


     Computing stress (Cartesian axis) and pressure

          total   stress  (Ry/bohr**3)                   (kbar)     P=     -301.66
  -0.00207344   0.00000000   0.00000000         -305.01        0.00        0.00
   0.00000000  -0.00212933   0.00000233            0.00     -313.24        0.34
   0.00000000   0.00000233  -0.00194919            0.00        0.34     -286.74

     kinetic stress (kbar)  16035.15      0.00     -0.00
                                0.00  15973.19     -0.02
                               -0.00     -0.02  16052.84

     local   stress (kbar)**********      0.00     -0.10
                                0.00**********      0.42
                               -0.10      0.421322208.73

     nonloc. stress (kbar)  -1973.19      0.00     -0.00
                                0.00  -1945.96      0.28
                               -0.00      0.28  -1990.03

     hartree stress (kbar) 688491.09     -0.00      0.04
                               -0.00 695720.68     -0.19
                                0.04     -0.19-617071.20

     exc-cor stress (kbar)  -8012.51      0.00      0.00
                                0.00  -8008.37     -0.00
                                0.00     -0.00  -8016.14

     corecor stress (kbar)      0.00      0.00      0.00
                                0.00      0.00      0.00
                                0.00      0.00      0.00

     ewald   stress (kbar) 610157.56     -0.00      0.06
                               -0.00 619800.69     -0.14
                                0.06     -0.14-711470.94

     hubbard stress (kbar)      0.00      0.00      0.00
                                0.00      0.00      0.00
                                0.00      0.00      0.00

     DFT-D   stress (kbar)      0.00      0.00      0.00
                                0.00      0.00      0.00
                                0.00      0.00      0.00

     XDM     stress (kbar)      0.00      0.00      0.00
                                0.00      0.00      0.00
                                0.00      0.00      0.00

     dft-nl  stress (kbar)      0.00      0.00      0.00
                                0.00      0.00      0.00
                                0.00      0.00      0.00

     TS-vdW  stress (kbar)      0.00      0.00      0.00
                                0.00      0.00      0.00
                                0.00      0.00      0.00

     MDB     stress (kbar)      0.00      0.00      0.00
                                0.00      0.00      0.00
                                0.00      0.00      0.00

     3D-RISM stress (kbar)      0.00      0.00      0.00
                                0.00      0.00      0.00
                                0.00      0.00      0.00

     Energy error            =      3.7E-06 Ry
     Gradient error          =      4.7E-04 Ry/Bohr

     bfgs converged in  24 scf cycles and  23 bfgs steps
     (criteria: energy <  1.0E-05 Ry, force <  5.0E-04 Ry/Bohr)

     End of BFGS Geometry Optimization

     Final energy             =  -14767.6261810267 Ry

     File ./tmp/Zn100_2x2x4_relax_ecutrho250_ecutwfc25.bfgs deleted, as requested
Begin final coordinates

ATOMIC_POSITIONS (angstrom)
Zn               1.2182902100        1.3071799410        0.7547006760    0   0   0
Zn               1.2182902100        0.0000000130        3.0188027260    0   0   0
Zn               1.2205067634       -1.3072062682        5.6628165572
Zn               1.2205737190       -2.6142902253        8.3201892650
Zn               1.2182902100        3.9215397970        0.7547006760    0   0   0
Zn               1.2182902100        2.6143598690        3.0188027260    0   0   0
Zn               1.2205053271        1.3071537923        5.6628184526
Zn               1.2205736367        0.0000694977        8.3201882035
Zn               6.0914510490        1.3071799410        0.7547006760    0   0   0
Zn               6.0914510490        0.0000000130        3.0188027260    0   0   0
Zn               6.0890573305       -1.3072082610        5.6609911407
Zn               6.0892249133       -2.6142905141        8.3202252824
Zn               6.0914510490        3.9215397970        0.7547006760    0   0   0
Zn               6.0914510490        2.6143598690        3.0188027260    0   0   0
Zn               6.0890581661        1.3071517478        5.6609895022
Zn               6.0892258520        0.0000693755        8.3202255694
Zn               3.6548706290       -0.0000000130        1.5094013740    0   0   0
Zn               3.6548706290       -1.3071799410        3.7735034240    0   0   0
Zn               3.6539394855       -2.6143241119        6.0733771510
Zn               3.6538333976       -3.9214620518        8.4703977493
Zn               3.6548706290        2.6143598430        1.5094013740    0   0   0
Zn               3.6548706290        1.3071799150        3.7735034240    0   0   0
Zn               3.6539407699        0.0000359492        6.0733764379
Zn               3.6538324805       -1.3071019788        8.4703966414
Zn               8.5280314680       -0.0000000130        1.5094013740    0   0   0
Zn               8.5280314680       -1.3071799410        3.7735034240    0   0   0
Zn               8.5286634890       -2.6143233511        6.0721050360
Zn               8.5291403712       -3.9214590887        8.4713083916
Zn               8.5280314680        2.6143598430        1.5094013740    0   0   0
Zn               8.5280314680        1.3071799150        3.7735034240    0   0   0
Zn               8.5286646528        0.0000360775        6.0721034287
Zn               8.5291412618       -1.3070989256        8.4713096017
End final coordinates



     Writing all to output data dir ./tmp/Zn100_2x2x4_relax_ecutrho250_ecutwfc25.save/ :
     XML data file, charge density, pseudopotentials, collected wavefunctions

     init_run     :      8.51s CPU      8.59s WALL (       1 calls)
     electrons    :   7268.91s CPU   7337.22s WALL (      24 calls)
     update_pot   :      0.30s CPU      0.32s WALL (      23 calls)
     forces       :    186.48s CPU    188.06s WALL (      24 calls)
     stress       :    525.85s CPU    527.39s WALL (      24 calls)

     Called by init_run:
     wfcinit      :      8.36s CPU      8.43s WALL (       1 calls)
     wfcinit:atom :      0.01s CPU      0.02s WALL (       5 calls)
     wfcinit:wfcr :      8.20s CPU      8.26s WALL (       5 calls)
     potinit      :      0.01s CPU      0.01s WALL (       1 calls)
     hinit0       :      0.01s CPU      0.02s WALL (       1 calls)

     Called by electrons:
     c_bands      :   6705.68s CPU   6768.26s WALL (     236 calls)
     sum_band     :    538.75s CPU    543.80s WALL (     236 calls)
     v_of_rho     :      2.29s CPU      2.48s WALL (     242 calls)
     v_h          :      0.10s CPU      0.12s WALL (     242 calls)
     v_xc         :      2.19s CPU      2.36s WALL (     242 calls)
     newd         :     24.34s CPU     24.47s WALL (     242 calls)
     mix_rho      :      0.23s CPU      0.24s WALL (     236 calls)

     Called by c_bands:
     init_us_2    :     14.19s CPU     14.25s WALL (    2605 calls)
     cegterg      :   6680.15s CPU   6742.49s WALL (    1180 calls)

     Called by sum_band:
     sum_band:wei :      0.49s CPU      0.49s WALL (     236 calls)
     sum_band:loo :    525.07s CPU    529.98s WALL (     236 calls)
     sum_band:buf :      2.57s CPU      2.60s WALL (    1180 calls)
     sum_band:ini :      6.21s CPU      6.23s WALL (    1180 calls)
     sum_band:cal :    420.75s CPU    424.59s WALL (    1180 calls)
     sum_band:bec :     10.37s CPU     10.40s WALL (    1180 calls)
     addusdens    :     12.32s CPU     12.40s WALL (     236 calls)
                                        0.00s GPU  (     236 calls)
     addusd:skk   :      0.15s CPU      0.15s WALL (     236 calls)
                                        0.00s GPU  (     236 calls)

     Called by *egterg:
     cdiaghg      :   1014.88s CPU   1038.82s WALL (    4381 calls)
     cegterg:over :    854.24s CPU    860.34s WALL (    3406 calls)
     cegterg:upda :    364.82s CPU    367.07s WALL (    3406 calls)
     cegterg:last :   1224.01s CPU   1234.40s WALL (    2524 calls)
     cdiaghg:chol :     70.99s CPU     71.19s WALL (    4381 calls)
     cdiaghg:inve :     14.73s CPU     14.77s WALL (    4381 calls)
     cdiaghg:para :    272.63s CPU    279.85s WALL (    8762 calls)
     h_psi        :   2201.91s CPU   2217.51s WALL (    4591 calls)
     s_psi        :    765.38s CPU    767.25s WALL (    4591 calls)
     g_psi        :      2.10s CPU      2.11s WALL (    3406 calls)

     Called by h_psi:
     h_psi:calbec :    983.13s CPU    992.06s WALL (    4591 calls)
     vloc_psi     :    394.24s CPU    398.72s WALL (    4591 calls)
     add_vuspsi   :    819.47s CPU    821.51s WALL (    4591 calls)

     General routines
     calbec       :   1618.29s CPU   1632.94s WALL (    6371 calls)
     fft          :      1.50s CPU      1.71s WALL (    2895 calls)
     ffts         :      0.11s CPU      0.12s WALL (     236 calls)
     fftw         :    446.42s CPU    451.57s WALL ( 2563158 calls)

     Parallel routines

     PWSCF        :      2h13m CPU      2h14m WALL


   This run was terminated on:   2:41:15  15Mar2025            

=------------------------------------------------------------------------------=
   JOB DONE.
=------------------------------------------------------------------------------=
Note: The following floating-point exceptions are signalling: IEEE_DENORMAL
Note: The following floating-point exceptions are signalling: IEEE_DENORMAL
Note: The following floating-point exceptions are signalling: IEEE_DENORMAL
Note: The following floating-point exceptions are signalling: IEEE_DENORMAL
Note: The following floating-point exceptions are signalling: IEEE_DENORMAL
Note: The following floating-point exceptions are signalling: IEEE_DENORMAL
Note: The following floating-point exceptions are signalling: IEEE_DENORMAL
