--------------------------------------------------------------------------
By default, for Open MPI 4.0 and later, infiniband ports on a device
are not used by default.  The intent is to use UCX for these devices.
You can override this policy by setting the btl_openib_allow_ib MCA parameter
to true.

  Local host:              psid01
  Local adapter:           mlx5_0
  Local port:              1

--------------------------------------------------------------------------
--------------------------------------------------------------------------
WARNING: There was an error initializing an OpenFabrics device.

  Local host:   psid01
  Local device: mlx5_0
--------------------------------------------------------------------------

     Program PWSCF v.7.3.1 starts on 22Mar2025 at 15:45: 1 

     This program is part of the open-source Quantum ESPRESSO suite
     for quantum simulation of materials; please cite
         "P. Giannozzi et al., J. Phys.:Condens. Matter 21 395502 (2009);
         "P. Giannozzi et al., J. Phys.:Condens. Matter 29 465901 (2017);
         "P. Giannozzi et al., J. Chem. Phys. 152 154105 (2020);
          URL http://www.quantum-espresso.org", 
     in publications or presentations arising from this work. More details at
     http://www.quantum-espresso.org/quote

     Parallel version (MPI), running on    16 processors

     MPI processes distributed on     1 nodes
     49276 MiB available memory on the printing compute node when the environment starts

     Waiting for input...
     Reading input from standard input

     Current dimensions of program PWSCF are:
     Max number of different atomic species (ntypx) = 10
     Max number of k-points (npk) =  40000
     Max angular momentum in pseudopotentials (lmaxx) =  4

     R & G space division:  proc/nbgrp/npool/nimage =      16
     Subspace diagonalization in iterative solution of the eigenvalue problem:
     one sub-group per band group will be used
     custom distributed-memory algorithm (size of sub-group:  4*  4 procs)


     Parallelization info
     --------------------
     sticks:   dense  smooth     PW     G-vecs:    dense   smooth      PW
     Min         202     202     53                21070    21070    2943
     Max         203     203     54                21080    21080    2952
     Sum        3241    3241    859               337189   337189   47187

     Using Slab Decomposition



     bravais-lattice index     =            0
     lattice parameter (alat)  =      19.7617  a.u.
     unit-cell volume          =   15176.5939 (a.u.)^3
     number of atoms/cell      =           64
     number of atomic types    =            1
     number of electrons       =      1280.00
     number of Kohn-Sham states=          768
     kinetic-energy cutoff     =      30.0000  Ry
     charge density cutoff     =     120.0000  Ry
     scf convergence threshold =      7.3E-07
     mixing beta               =       0.7000
     number of iterations used =            8  plain     mixing
     Exchange-correlation= SLA  PW   PBE  PBE
                           (   1   4   3   4   0   0   0)

     celldm(1)=  19.761696  celldm(2)=   0.000000  celldm(3)=   0.000000
     celldm(4)=   0.000000  celldm(5)=   0.000000  celldm(6)=   0.000000

     crystal axes: (cart. coord. in units of alat)
               a(1) = (   1.000000   0.000000   0.000000 )  
               a(2) = (  -0.500000   0.866025   0.000000 )  
               a(3) = (   0.000000   0.000000   2.270759 )  

     reciprocal axes: (cart. coord. in units 2 pi/alat)
               b(1) = (  1.000000  0.577350 -0.000000 )  
               b(2) = (  0.000000  1.154701  0.000000 )  
               b(3) = (  0.000000 -0.000000  0.440381 )  


     PseudoPot. # 1 for Zn read from file:
     /home/ys/qepseudo/SSSP_1.3.0_PBE_efficiency/Zn_pbe_v1.uspp.F.UPF
     MD5 check sum: df62231357ef9e81f77b2b3087fa5675
     Pseudo is Ultrasoft, Zval = 20.0
     Generated by new atomic code, or converted to UPF format
     Using radial grid of  943 points,  6 beta functions with: 
                l(1) =   0
                l(2) =   0
                l(3) =   1
                l(4) =   1
                l(5) =   2
                l(6) =   2
     Q(r) pseudized with  8 coefficients,  rinner =    1.100   1.100   1.100
                                                       1.100   1.100

     atomic species   valence    mass     pseudopotential
     Zn               20.00    65.38000     Zn( 1.00)

     No symmetry found


                                    s                        frac. trans.

      isym =  1     identity                                     

 cryst.   s( 1) = (     1          0          0      )
                  (     0          1          0      )
                  (     0          0          1      )

 cart.    s( 1) = (  1.0000000  0.0000000  0.0000000 )
                  (  0.0000000  1.0000000  0.0000000 )
                  (  0.0000000  0.0000000  1.0000000 )


   Cartesian axes

     site n.     atom                  positions (alat units)
         1        Zn     tau(   1) = (  -0.0000000   0.1443376   0.1164999  )
         2        Zn     tau(   2) = (   0.5000000   0.1443376   0.1164999  )
         3        Zn     tau(   3) = (   0.0001063   0.1443772   0.5902127  )
         4        Zn     tau(   4) = (   0.4998958   0.1443643   0.5917156  )
         5        Zn     tau(   5) = (  -0.1250000   0.3608439   0.1164999  )
         6        Zn     tau(   6) = (   0.3750000   0.3608439   0.1164999  )
         7        Zn     tau(   7) = (  -0.1249761   0.3609302   0.5908726  )
         8        Zn     tau(   8) = (   0.3749642   0.3608477   0.5913644  )
         9        Zn     tau(   9) = (  -0.2500000   0.5773503   0.1164999  )
        10        Zn     tau(  10) = (   0.2500000   0.5773503   0.1164999  )
        11        Zn     tau(  11) = (  -0.2499911   0.5773738   0.5915504  )
        12        Zn     tau(  12) = (   0.2499824   0.5772583   0.5907382  )
        13        Zn     tau(  13) = (  -0.3750000   0.7938566   0.1164999  )
        14        Zn     tau(  14) = (   0.1250000   0.7938566   0.1164999  )
        15        Zn     tau(  15) = (  -0.3749161   0.7938269   0.5909604  )
        16        Zn     tau(  16) = (   0.1249053   0.7937898   0.5911170  )
        17        Zn     tau(  17) = (   0.2500000   0.1443376   0.1164999  )
        18        Zn     tau(  18) = (   0.7500000   0.1443376   0.1164999  )
        19        Zn     tau(  19) = (   0.2499566   0.1443139   0.5910485  )
        20        Zn     tau(  20) = (   0.7500401   0.1444360   0.5909256  )
        21        Zn     tau(  21) = (   0.1250000   0.3608439   0.1164999  )
        22        Zn     tau(  22) = (   0.6250000   0.3608439   0.1164999  )
        23        Zn     tau(  23) = (   0.1249684   0.3608327   0.5904686  )
        24        Zn     tau(  24) = (   0.6250220   0.3609386   0.5917101  )
        25        Zn     tau(  25) = (  -0.0000000   0.5773503   0.1164999  )
        26        Zn     tau(  26) = (   0.5000000   0.5773503   0.1164999  )
        27        Zn     tau(  27) = (  -0.0000983   0.5773031   0.5910657  )
        28        Zn     tau(  28) = (   0.5000885   0.5773473   0.5912976  )
        29        Zn     tau(  29) = (  -0.1250000   0.7938566   0.1164999  )
        30        Zn     tau(  30) = (   0.3750000   0.7938566   0.1164999  )
        31        Zn     tau(  31) = (  -0.1251014   0.7937984   0.5915674  )
        32        Zn     tau(  32) = (   0.3751324   0.7938157   0.5904624  )
        33        Zn     tau(  33) = (   0.1250000   0.0721688   0.3494996  )
        34        Zn     tau(  34) = (   0.6250000   0.0721688   0.3494996  )
        35        Zn     tau(  35) = (   0.1249168   0.0722609   0.8321064  )
        36        Zn     tau(  36) = (   0.6250907   0.0721249   0.8320849  )
        37        Zn     tau(  37) = (   0.0000000   0.2886751   0.3494996  )
        38        Zn     tau(  38) = (   0.5000000   0.2886751   0.3494996  )
        39        Zn     tau(  39) = (   0.0001155   0.2886284   0.8318992  )
        40        Zn     tau(  40) = (   0.4998869   0.2887254   0.8327133  )
        41        Zn     tau(  41) = (  -0.1250000   0.5051815   0.3494996  )
        42        Zn     tau(  42) = (   0.3750000   0.5051815   0.3494996  )
        43        Zn     tau(  43) = (  -0.1248885   0.5051081   0.8328053  )
        44        Zn     tau(  44) = (   0.3748852   0.5052048   0.8322362  )
        45        Zn     tau(  45) = (  -0.2500000   0.7216878   0.3494996  )
        46        Zn     tau(  46) = (   0.2500000   0.7216878   0.3494996  )
        47        Zn     tau(  47) = (  -0.2500816   0.7217457   0.8330261  )
        48        Zn     tau(  48) = (   0.2500888   0.7216111   0.8315798  )
        49        Zn     tau(  49) = (   0.3750000   0.0721688   0.3494996  )
        50        Zn     tau(  50) = (   0.8750000   0.0721688   0.3494996  )
        51        Zn     tau(  51) = (   0.3748288   0.0722025   0.8328001  )
        52        Zn     tau(  52) = (   0.8751982   0.0721830   0.8313936  )
        53        Zn     tau(  53) = (   0.2500000   0.2886751   0.3494996  )
        54        Zn     tau(  54) = (   0.7500000   0.2886751   0.3494996  )
        55        Zn     tau(  55) = (   0.2498217   0.2886951   0.8322994  )
        56        Zn     tau(  56) = (   0.7501831   0.2886665   0.8323685  )
        57        Zn     tau(  57) = (   0.1250000   0.5051815   0.3494996  )
        58        Zn     tau(  58) = (   0.6250000   0.5051815   0.3494996  )
        59        Zn     tau(  59) = (   0.1250170   0.5050584   0.8321067  )
        60        Zn     tau(  60) = (   0.6249778   0.5052529   0.8329305  )
        61        Zn     tau(  61) = (   0.0000000   0.7216878   0.3494996  )
        62        Zn     tau(  62) = (   0.5000000   0.7216878   0.3494996  )
        63        Zn     tau(  63) = (   0.0000162   0.7215786   0.8326164  )
        64        Zn     tau(  64) = (   0.4999851   0.7217841   0.8320793  )

   Crystallographic axes

     site n.     atom                  positions (cryst. coord.)
         1        Zn     tau(   1) = (  0.0833333  0.1666667  0.0513044  )
         2        Zn     tau(   2) = (  0.5833333  0.1666667  0.0513044  )
         3        Zn     tau(   3) = (  0.0834625  0.1667124  0.2599187  )
         4        Zn     tau(   4) = (  0.5832446  0.1666976  0.2605806  )
         5        Zn     tau(   5) = (  0.0833333  0.4166667  0.0513044  )
         6        Zn     tau(   6) = (  0.5833333  0.4166667  0.0513044  )
         7        Zn     tau(   7) = (  0.0834070  0.4167663  0.2602093  )
         8        Zn     tau(   8) = (  0.5832997  0.4166711  0.2604259  )
         9        Zn     tau(   9) = (  0.0833333  0.6666667  0.0513044  )
        10        Zn     tau(  10) = (  0.5833333  0.6666667  0.0513044  )
        11        Zn     tau(  11) = (  0.0833558  0.6666938  0.2605078  )
        12        Zn     tau(  12) = (  0.5832626  0.6665605  0.2601501  )
        13        Zn     tau(  13) = (  0.0833333  0.9166667  0.0513044  )
        14        Zn     tau(  14) = (  0.5833333  0.9166667  0.0513044  )
        15        Zn     tau(  15) = (  0.0834001  0.9166324  0.2602480  )
        16        Zn     tau(  16) = (  0.5832000  0.9165895  0.2603170  )
        17        Zn     tau(  17) = (  0.3333333  0.1666667  0.0513044  )
        18        Zn     tau(  18) = (  0.8333333  0.1666667  0.0513044  )
        19        Zn     tau(  19) = (  0.3332763  0.1666393  0.2602868  )
        20        Zn     tau(  20) = (  0.8334303  0.1667804  0.2602327  )
        21        Zn     tau(  21) = (  0.3333333  0.4166667  0.0513044  )
        22        Zn     tau(  22) = (  0.8333333  0.4166667  0.0513044  )
        23        Zn     tau(  23) = (  0.3332952  0.4166537  0.2600314  )
        24        Zn     tau(  24) = (  0.8334099  0.4167759  0.2605781  )
        25        Zn     tau(  25) = (  0.3333333  0.6666667  0.0513044  )
        26        Zn     tau(  26) = (  0.8333333  0.6666667  0.0513044  )
        27        Zn     tau(  27) = (  0.3332078  0.6666122  0.2602944  )
        28        Zn     tau(  28) = (  0.8334201  0.6666632  0.2603965  )
        29        Zn     tau(  29) = (  0.3333333  0.9166667  0.0513044  )
        30        Zn     tau(  30) = (  0.8333333  0.9166667  0.0513044  )
        31        Zn     tau(  31) = (  0.3331983  0.9165994  0.2605153  )
        32        Zn     tau(  32) = (  0.8334421  0.9166194  0.2600287  )
        33        Zn     tau(  33) = (  0.1666667  0.0833333  0.1539131  )
        34        Zn     tau(  34) = (  0.6666667  0.0833333  0.1539131  )
        35        Zn     tau(  35) = (  0.1666366  0.0834397  0.3664442  )
        36        Zn     tau(  36) = (  0.6667321  0.0832826  0.3664347  )
        37        Zn     tau(  37) = (  0.1666667  0.3333333  0.1539131  )
        38        Zn     tau(  38) = (  0.6666667  0.3333333  0.1539131  )
        39        Zn     tau(  39) = (  0.1667552  0.3332793  0.3663530  )
        40        Zn     tau(  40) = (  0.6665826  0.3333914  0.3667115  )
        41        Zn     tau(  41) = (  0.1666667  0.5833333  0.1539131  )
        42        Zn     tau(  42) = (  0.6666667  0.5833333  0.1539131  )
        43        Zn     tau(  43) = (  0.1667358  0.5832486  0.3667520  )
        44        Zn     tau(  44) = (  0.6665653  0.5833603  0.3665014  )
        45        Zn     tau(  45) = (  0.1666667  0.8333333  0.1539131  )
        46        Zn     tau(  46) = (  0.6666667  0.8333333  0.1539131  )
        47        Zn     tau(  47) = (  0.1666184  0.8334001  0.3668492  )
        48        Zn     tau(  48) = (  0.6667112  0.8332447  0.3662123  )
        49        Zn     tau(  49) = (  0.4166667  0.0833333  0.1539131  )
        50        Zn     tau(  50) = (  0.9166667  0.0833333  0.1539131  )
        51        Zn     tau(  51) = (  0.4165149  0.0833723  0.3667497  )
        52        Zn     tau(  52) = (  0.9168731  0.0833498  0.3661303  )
        53        Zn     tau(  53) = (  0.4166667  0.3333333  0.1539131  )
        54        Zn     tau(  54) = (  0.9166667  0.3333333  0.1539131  )
        55        Zn     tau(  55) = (  0.4164999  0.3333564  0.3665292  )
        56        Zn     tau(  56) = (  0.9168448  0.3333234  0.3665596  )
        57        Zn     tau(  57) = (  0.4166667  0.5833333  0.1539131  )
        58        Zn     tau(  58) = (  0.9166667  0.5833333  0.1539131  )
        59        Zn     tau(  59) = (  0.4166127  0.5831912  0.3664443  )
        60        Zn     tau(  60) = (  0.9166857  0.5834158  0.3668071  )
        61        Zn     tau(  61) = (  0.4166667  0.8333333  0.1539131  )
        62        Zn     tau(  62) = (  0.9166667  0.8333333  0.1539131  )
        63        Zn     tau(  63) = (  0.4166198  0.8332071  0.3666688  )
        64        Zn     tau(  64) = (  0.9167074  0.8334445  0.3664323  )

     number of k points=     5  Marzari-Vanderbilt smearing, width (Ry)=  0.0200
                       cart. coord. in units 2pi/alat
        k(    1) = (   0.0000000   0.0000000   0.0000000), wk =   0.2222222
        k(    2) = (   0.0000000   0.3849002   0.0000000), wk =   0.4444444
        k(    3) = (   0.3333333   0.1924501   0.0000000), wk =   0.4444444
        k(    4) = (   0.3333333   0.5773503   0.0000000), wk =   0.4444444
        k(    5) = (   0.3333333  -0.1924501   0.0000000), wk =   0.4444444

                       cryst. coord.
        k(    1) = (   0.0000000   0.0000000   0.0000000), wk =   0.2222222
        k(    2) = (   0.0000000   0.3333333   0.0000000), wk =   0.4444444
        k(    3) = (   0.3333333   0.0000000   0.0000000), wk =   0.4444444
        k(    4) = (   0.3333333   0.3333333   0.0000000), wk =   0.4444444
        k(    5) = (   0.3333333  -0.3333333   0.0000000), wk =   0.4444444

     Dense  grid:   337189 G-vectors     FFT dimensions: (  72,  72, 160)

     Dynamical RAM for                 wfc:      30.84 MB

     Dynamical RAM for     wfc (w. buffer):     185.06 MB

     Dynamical RAM for           str. fact:       0.32 MB

     Dynamical RAM for           local pot:       0.00 MB

     Dynamical RAM for          nlocal pot:      46.27 MB

     Dynamical RAM for                qrad:       0.88 MB

     Dynamical RAM for          rho,v,vnew:       2.15 MB

     Dynamical RAM for               rhoin:       0.72 MB

     Dynamical RAM for            rho*nmix:       5.15 MB

     Dynamical RAM for           G-vectors:       1.37 MB

     Dynamical RAM for          h,s,v(r/c):       6.75 MB

     Dynamical RAM for          <psi|beta>:      13.50 MB

     Dynamical RAM for                 psi:      61.69 MB

     Dynamical RAM for                hpsi:      61.69 MB

     Dynamical RAM for                spsi:      61.69 MB

     Dynamical RAM for      wfcinit/wfcrot:      82.68 MB

     Dynamical RAM for           addusdens:      80.39 MB

     Dynamical RAM for          addusforce:     121.32 MB

     Dynamical RAM for         addusstress:      64.63 MB

     Estimated static dynamical RAM per process >     239.39 MB

     Estimated max dynamical RAM per process >     449.84 MB

     Estimated total dynamical RAM >       7.03 GB

     Initial potential from superposition of free atoms

     starting charge    1279.9910, renormalised to    1280.0000

     negative rho (up, down):  1.584E-03 0.000E+00
     Starting wfcs are  832 randomized atomic wfcs
[psid01:198228] 15 more processes have sent help message help-mpi-btl-openib.txt / ib port not selected
[psid01:198228] Set MCA parameter "orte_base_help_aggregate" to 0 to see all help / error messages
[psid01:198228] 15 more processes have sent help message help-mpi-btl-openib.txt / error in device init

     total cpu time spent up to now is      119.3 secs

     Self-consistent Calculation

     iteration #  1     ecut=    30.00 Ry     beta= 0.70
     Davidson diagonalization with overlap

---- Real-time Memory Report at c_bands before calling an iterative solver
           329 MiB given to the printing process from OS
             0 MiB allocation reported by mallinfo(arena+hblkhd)
         40443 MiB available memory on the node where the printing process lives
------------------
     ethr =  1.00E-02,  avg # of iterations =  8.8

     Threshold (ethr) on eigenvalues was too large:
     Diagonalizing with lowered threshold

     Davidson diagonalization with overlap

---- Real-time Memory Report at c_bands before calling an iterative solver
           484 MiB given to the printing process from OS
             0 MiB allocation reported by mallinfo(arena+hblkhd)
         36706 MiB available memory on the node where the printing process lives
------------------
     ethr =  2.10E-04,  avg # of iterations =  6.0

     negative rho (up, down):  5.574E-03 0.000E+00

     total cpu time spent up to now is     1085.8 secs

     total energy              =  -29534.06399421 Ry
     estimated scf accuracy    <       2.88611380 Ry

     iteration #  2     ecut=    30.00 Ry     beta= 0.70
     Davidson diagonalization with overlap

---- Real-time Memory Report at c_bands before calling an iterative solver
           484 MiB given to the printing process from OS
             0 MiB allocation reported by mallinfo(arena+hblkhd)
         37918 MiB available memory on the node where the printing process lives
------------------
     ethr =  2.25E-04,  avg # of iterations =  3.0

     negative rho (up, down):  6.894E-03 0.000E+00

     total cpu time spent up to now is     1678.8 secs

     total energy              =  -29534.72873613 Ry
     estimated scf accuracy    <       4.79223471 Ry

     iteration #  3     ecut=    30.00 Ry     beta= 0.70
     Davidson diagonalization with overlap

---- Real-time Memory Report at c_bands before calling an iterative solver
           484 MiB given to the printing process from OS
             0 MiB allocation reported by mallinfo(arena+hblkhd)
         36588 MiB available memory on the node where the printing process lives
------------------
     ethr =  2.25E-04,  avg # of iterations =  4.0

     negative rho (up, down):  7.287E-03 0.000E+00

     total cpu time spent up to now is     2197.7 secs

     total energy              =  -29535.47436246 Ry
     estimated scf accuracy    <       0.50882758 Ry

     iteration #  4     ecut=    30.00 Ry     beta= 0.70
     Davidson diagonalization with overlap

---- Real-time Memory Report at c_bands before calling an iterative solver
           485 MiB given to the printing process from OS
             0 MiB allocation reported by mallinfo(arena+hblkhd)
         38559 MiB available memory on the node where the printing process lives
------------------
     ethr =  3.98E-05,  avg # of iterations =  9.4

     negative rho (up, down):  8.209E-03 0.000E+00

     total cpu time spent up to now is     2673.9 secs

     total energy              =  -29535.48601849 Ry
     estimated scf accuracy    <       1.17311757 Ry

     iteration #  5     ecut=    30.00 Ry     beta= 0.70
     Davidson diagonalization with overlap

---- Real-time Memory Report at c_bands before calling an iterative solver
           486 MiB given to the printing process from OS
             0 MiB allocation reported by mallinfo(arena+hblkhd)
         38546 MiB available memory on the node where the printing process lives
------------------
     ethr =  3.98E-05,  avg # of iterations = 10.2

     negative rho (up, down):  9.088E-03 0.000E+00

     total cpu time spent up to now is     3156.8 secs

     total energy              =  -29535.48001387 Ry
     estimated scf accuracy    <       1.86667974 Ry

     iteration #  6     ecut=    30.00 Ry     beta= 0.70
     Davidson diagonalization with overlap

---- Real-time Memory Report at c_bands before calling an iterative solver
           486 MiB given to the printing process from OS
             0 MiB allocation reported by mallinfo(arena+hblkhd)
         36543 MiB available memory on the node where the printing process lives
------------------
     ethr =  3.98E-05,  avg # of iterations =  7.0

     negative rho (up, down):  9.289E-03 0.000E+00

     total cpu time spent up to now is     3608.5 secs

     total energy              =  -29535.59943423 Ry
     estimated scf accuracy    <       0.00739757 Ry

     iteration #  7     ecut=    30.00 Ry     beta= 0.70
     Davidson diagonalization with overlap

---- Real-time Memory Report at c_bands before calling an iterative solver
           487 MiB given to the printing process from OS
             0 MiB allocation reported by mallinfo(arena+hblkhd)
         36532 MiB available memory on the node where the printing process lives
------------------
     c_bands:  1 eigenvalues not converged
     ethr =  5.78E-07,  avg # of iterations = 13.4

     negative rho (up, down):  9.403E-03 0.000E+00

     total cpu time spent up to now is     4128.6 secs

     total energy              =  -29535.60029538 Ry
     estimated scf accuracy    <       0.00104065 Ry

     iteration #  8     ecut=    30.00 Ry     beta= 0.70
     Davidson diagonalization with overlap

---- Real-time Memory Report at c_bands before calling an iterative solver
           488 MiB given to the printing process from OS
             0 MiB allocation reported by mallinfo(arena+hblkhd)
         36507 MiB available memory on the node where the printing process lives
------------------
     ethr =  8.13E-08,  avg # of iterations =  5.2

     negative rho (up, down):  9.448E-03 0.000E+00

     total cpu time spent up to now is     4638.1 secs

     total energy              =  -29535.60041334 Ry
     estimated scf accuracy    <       0.00026629 Ry

     iteration #  9     ecut=    30.00 Ry     beta= 0.70
     Davidson diagonalization with overlap

---- Real-time Memory Report at c_bands before calling an iterative solver
           488 MiB given to the printing process from OS
             0 MiB allocation reported by mallinfo(arena+hblkhd)
         37970 MiB available memory on the node where the printing process lives
------------------
     ethr =  2.08E-08,  avg # of iterations =  2.0

     negative rho (up, down):  9.452E-03 0.000E+00

     total cpu time spent up to now is     5116.9 secs

     total energy              =  -29535.60046190 Ry
     estimated scf accuracy    <       0.00002077 Ry

     iteration # 10     ecut=    30.00 Ry     beta= 0.70
     Davidson diagonalization with overlap

---- Real-time Memory Report at c_bands before calling an iterative solver
           489 MiB given to the printing process from OS
             0 MiB allocation reported by mallinfo(arena+hblkhd)
         36467 MiB available memory on the node where the printing process lives
------------------
     ethr =  1.62E-09,  avg # of iterations =  2.0

     negative rho (up, down):  9.452E-03 0.000E+00

     total cpu time spent up to now is     5587.1 secs

     total energy              =  -29535.60046373 Ry
     estimated scf accuracy    <       0.00001279 Ry

     iteration # 11     ecut=    30.00 Ry     beta= 0.70
     Davidson diagonalization with overlap

---- Real-time Memory Report at c_bands before calling an iterative solver
           490 MiB given to the printing process from OS
             0 MiB allocation reported by mallinfo(arena+hblkhd)
         37922 MiB available memory on the node where the printing process lives
------------------
     ethr =  9.99E-10,  avg # of iterations =  2.0

     negative rho (up, down):  9.452E-03 0.000E+00

     total cpu time spent up to now is     6021.2 secs

     total energy              =  -29535.60046536 Ry
     estimated scf accuracy    <       0.00000268 Ry

     iteration # 12     ecut=    30.00 Ry     beta= 0.70
     Davidson diagonalization with overlap

---- Real-time Memory Report at c_bands before calling an iterative solver
           490 MiB given to the printing process from OS
             0 MiB allocation reported by mallinfo(arena+hblkhd)
         38639 MiB available memory on the node where the printing process lives
------------------
     ethr =  2.09E-10,  avg # of iterations =  2.0

     negative rho (up, down):  9.452E-03 0.000E+00

     total cpu time spent up to now is     6485.8 secs

     End of self-consistent calculation

          k = 0.0000 0.0000 0.0000 ( 42115 PWs)   bands (ev):

  -123.2866-123.2841-123.2837-123.2836-123.2830-123.2826-123.2824-123.2820
  -123.2815-123.2811-123.2810-123.2806-123.2804-123.2799-123.2797-123.2792
  -123.2365-123.2344-123.2338-123.2331-123.2327-123.2324-123.2321-123.2315
  -123.2313-123.2312-123.2308-123.2304-123.2300-123.2293-123.2290-123.2285
  -123.0902-123.0868-123.0867-123.0865-123.0864-123.0862-123.0862-123.0861
  -123.0860-123.0858-123.0856-123.0855-123.0852-123.0852-123.0849-123.0848
  -123.0522-123.0493-123.0492-123.0490-123.0486-123.0485-123.0481-123.0479
  -123.0478-123.0471-123.0470-123.0468-123.0466-123.0464-123.0462-123.0459
   -77.3947 -77.3945 -77.3945 -77.3856 -77.3856 -77.3851 -77.3849 -77.3846
   -77.3846 -77.3725 -77.3709 -77.3705 -77.3699 -77.3697 -77.3693 -77.3691
   -77.3685 -77.3681 -77.3677 -77.3674 -77.3674 -77.3670 -77.3667 -77.3664
   -77.3660 -77.3628 -77.3628 -77.3625 -77.3621 -77.3617 -77.3617 -77.3597
   -77.3596 -77.3595 -77.3590 -77.3585 -77.3585 -77.3581 -77.3572 -77.3556
   -77.3547 -77.3546 -77.3542 -77.3541 -77.3540 -77.3537 -77.3534 -77.3528
   -77.3443 -77.3440 -77.3439 -77.3351 -77.3351 -77.3345 -77.3342 -77.3339
   -77.3339 -77.3226 -77.3210 -77.3202 -77.3196 -77.3189 -77.3187 -77.3184
   -77.3181 -77.3178 -77.3177 -77.3173 -77.3170 -77.3163 -77.3159 -77.3156
   -77.3152 -77.3123 -77.3122 -77.3120 -77.3115 -77.3110 -77.3110 -77.3092
   -77.3089 -77.3088 -77.3082 -77.3079 -77.3078 -77.3076 -77.3064 -77.3048
   -77.3041 -77.3036 -77.3034 -77.3033 -77.3032 -77.3025 -77.3023 -77.3017
   -77.1958 -77.1957 -77.1957 -77.1864 -77.1864 -77.1862 -77.1862 -77.1861
   -77.1861 -77.1827 -77.1809 -77.1807 -77.1805 -77.1804 -77.1803 -77.1802
   -77.1802 -77.1801 -77.1800 -77.1798 -77.1796 -77.1796 -77.1793 -77.1793
   -77.1791 -77.1632 -77.1632 -77.1631 -77.1630 -77.1629 -77.1629 -77.1602
   -77.1602 -77.1601 -77.1600 -77.1599 -77.1599 -77.1587 -77.1587 -77.1568
   -77.1567 -77.1567 -77.1558 -77.1556 -77.1556 -77.1553 -77.1553 -77.1552
   -77.1550 -77.1550 -77.1549 -77.1480 -77.1479 -77.1474 -77.1473 -77.1469
   -77.1469 -77.1467 -77.1445 -77.1444 -77.1440 -77.1437 -77.1436 -77.1435
   -77.1431 -77.1427 -77.1426 -77.1424 -77.1423 -77.1421 -77.1420 -77.1418
   -77.1414 -77.1248 -77.1248 -77.1245 -77.1242 -77.1239 -77.1239 -77.1216
   -77.1216 -77.1213 -77.1212 -77.1208 -77.1207 -77.1202 -77.1198 -77.1178
   -77.1170 -77.1167 -77.1166 -77.1164 -77.1162 -77.1161 -77.1160 -77.1155
    -6.7328  -5.9431  -5.2548  -5.1714  -5.1551  -5.1548  -5.1524  -5.1521
    -5.1497  -5.1496  -5.0046  -5.0046  -5.0046  -4.9460  -4.9460  -4.9460
    -4.8215  -4.8214  -4.8212  -4.8212  -4.8210  -4.8210  -4.8177  -4.8177
    -4.8176  -4.7375  -4.7375  -4.7375  -4.6743  -4.6743  -4.6740  -4.6739
    -4.6737  -4.6736  -4.6465  -4.6465  -4.6465  -4.5944  -4.5944  -4.5932
    -4.5932  -4.5922  -4.5922  -4.5917  -4.5916  -4.5910  -4.5909  -4.5902
    -4.5902  -4.5742  -4.5742  -4.5742  -4.5479  -4.5479  -4.5475  -4.5474
    -4.5471  -4.5471  -4.5012  -4.5012  -4.5006  -4.5005  -4.4998  -4.4998
    -4.4432  -4.4093  -4.4092  -4.4086  -4.4086  -4.4083  -4.4081  -4.4081
    -4.4080  -4.4076  -4.4075  -4.4071  -4.4071  -4.3659  -4.3658  -4.3653
    -4.3652  -4.3647  -4.3646  -4.3568  -4.3568  -4.3565  -4.3564  -4.3561
    -4.3561  -4.3535  -4.3535  -4.3534  -4.3121  -4.3120  -4.3114  -4.3114
    -4.3106  -4.3106  -4.2714  -4.2714  -4.2709  -4.2709  -4.2705  -4.2704
    -4.2418  -4.2417  -4.2232  -4.2231  -4.2225  -4.2224  -4.2216  -4.2216
    -4.2191  -4.2190  -4.2190  -4.2138  -4.2137  -4.2135  -4.2133  -4.2131
    -4.2130  -4.2008  -4.1853  -4.1852  -4.1541  -4.1540  -4.1537  -4.1536
    -4.1534  -4.1534  -4.1389  -4.1389  -4.1384  -4.1383  -4.1379  -4.1379
    -4.0986  -4.0986  -4.0983  -4.0983  -4.0980  -4.0979  -4.0652  -4.0652
    -4.0649  -4.0648  -4.0645  -4.0644  -4.0389  -4.0389  -3.9989  -3.9989
    -3.9984  -3.9984  -3.9979  -3.9979  -3.9949  -3.9949  -3.9643  -3.9643
    -3.9642  -3.9526  -3.9525  -3.9523  -3.9522  -3.9520  -3.9520  -3.9258
    -3.9258  -3.9254  -3.9254  -3.9250  -3.9249  -3.9018  -3.9018  -3.9016
    -3.9016  -3.9015  -3.9015  -3.8970  -3.8970  -3.8968  -3.8967  -3.8965
    -3.8965  -3.8809  -3.8809  -3.8809  -3.8798  -3.8798  -3.8793  -3.8792
    -3.8787  -3.8787  -3.8649  -3.8649  -3.8648  -3.8648  -3.8647  -3.8646
    -3.8622  -3.8622  -3.8618  -3.8618  -3.8610  -3.8610  -3.8478  -3.8477
    -3.8473  -3.8472  -3.8467  -3.8467  -3.8044  -3.8043  -3.8043  -3.7940
    -3.7939  -3.7936  -3.7936  -3.7932  -3.7931  -3.7846  -3.7842  -3.7840
    -3.7836  -3.7834  -3.7833  -3.7518  -3.7518  -3.7311  -3.7310  -3.7308
    -3.7308  -3.7305  -3.7305  -3.7246  -3.7245  -3.7240  -3.7239  -3.7234
    -3.7233  -3.7174  -3.7173  -3.7170  -3.7168  -3.7165  -3.7164  -3.7077
    -3.7076  -3.7073  -3.7073  -3.7066  -3.7065  -3.6503  -3.6503  -3.6440
    -3.6440  -3.6440  -3.6216  -3.6215  -3.6215  -3.6214  -3.6213  -3.6213
    -3.6108  -3.6108  -3.6108  -3.5933  -3.5933  -3.5932  -3.5856  -3.5855
    -3.5849  -3.5848  -3.5843  -3.5841  -3.5684  -3.5683  -3.5683  -3.5649
    -3.5649  -3.5644  -3.5644  -3.5639  -3.5639  -3.5421  -3.5421  -3.5419
    -3.5419  -3.5418  -3.5417  -3.5150  -3.5150  -3.5145  -3.5145  -3.5141
    -3.5140  -3.5105  -3.5105  -3.5105  -3.4998  -3.4998  -3.4689  -3.4689
    -3.4431  -3.4431  -3.4430  -3.4430  -3.4430  -3.4429  -3.4203  -3.4203
    -3.4199  -3.4199  -3.4197  -3.4196  -3.4085  -3.4085  -3.4085  -3.3579
    -3.3578  -3.3578  -3.2752  -3.2089  -3.2089  -3.2089  -3.1702  -3.1702
    -3.1702  -3.1422  -3.1421  -3.1419  -3.1418  -3.1416  -3.1416  -1.7350
    -1.7347  -1.7326  -1.7319  -1.7299  -1.7295  -1.2752  -0.2660  -0.2659
    -0.2655  -0.2654  -0.2644  -0.2643   0.1598   0.1607   0.1616   0.1634
     0.1643   0.1654   0.5782   0.5782   0.5788   0.5789   0.5797   0.5798
     0.9023   1.0352   1.0352   1.0354   1.5979   1.5981   1.5982   1.9442
     1.9442   1.9442   1.9960   1.9961   1.9971   1.9971   1.9984   1.9985
     2.1970   2.1971   2.1972   3.1992   3.1995   3.2004   3.2010   3.2018
     3.2023   3.6915   3.6916   3.6921   3.6922   3.6931   3.6934   3.8712
     4.2834   4.2834   4.2836   4.5678   4.5679   4.5680   5.3979   5.3979
     5.3981   5.7402   5.7410   5.7439   5.7456   5.7485   5.7496   6.3096
     6.3097   6.3097   6.3551   7.0669   7.0669   7.0676   7.0676   7.0700
     7.0703   7.2364   7.2479   7.2928   7.2929   7.2945   7.2946   7.2961
     7.2961   7.4584   7.4586   7.4596   7.4597   7.4607   7.4608   8.1109
     8.1116   8.1125   8.1140   8.1147   8.1157   8.1864   8.1866   8.1889
     8.1890   8.1916   8.1916   8.2435   8.2437   8.2440   8.2662   8.2663
     8.2668   8.2670   8.2681   8.2686   8.8512   9.0471   9.0473   9.0478
     9.0479   9.0484   9.0485   9.0656   9.0782   9.0782   9.0789   9.0791
     9.0797   9.0798   9.2991   9.2992   9.3033   9.3033   9.3085   9.3086
     9.7119   9.7120   9.7155   9.7156   9.7186   9.7187   9.7663   9.7663
     9.7681   9.7682   9.7715   9.7716   9.8713   9.8714   9.8716  10.6486
    10.6489  10.6498  10.6501  10.6509  10.6513  10.8324  10.8324  10.8334
    10.8335  10.8346  10.8347  11.0230  11.0231  11.0232  11.1581  11.1582
    11.1585  11.1590  11.1594  11.1597  11.4008  11.4010  11.4017  11.4020

     occupation numbers 
     1.0000   1.0000   1.0000   1.0000   1.0000   1.0000   1.0000   1.0000
     1.0000   1.0000   1.0000   1.0000   1.0000   1.0000   1.0000   1.0000
     1.0000   1.0000   1.0000   1.0000   1.0000   1.0000   1.0000   1.0000
     1.0000   1.0000   1.0000   1.0000   1.0000   1.0000   1.0000   1.0000
     1.0000   1.0000   1.0000   1.0000   1.0000   1.0000   1.0000   1.0000
     1.0000   1.0000   1.0000   1.0000   1.0000   1.0000   1.0000   1.0000
     1.0000   1.0000   1.0000   1.0000   1.0000   1.0000   1.0000   1.0000
     1.0000   1.0000   1.0000   1.0000   1.0000   1.0000   1.0000   1.0000
     1.0000   1.0000   1.0000   1.0000   1.0000   1.0000   1.0000   1.0000
     1.0000   1.0000   1.0000   1.0000   1.0000   1.0000   1.0000   1.0000
     1.0000   1.0000   1.0000   1.0000   1.0000   1.0000   1.0000   1.0000
     1.0000   1.0000   1.0000   1.0000   1.0000   1.0000   1.0000   1.0000
     1.0000   1.0000   1.0000   1.0000   1.0000   1.0000   1.0000   1.0000
     1.0000   1.0000   1.0000   1.0000   1.0000   1.0000   1.0000   1.0000
     1.0000   1.0000   1.0000   1.0000   1.0000   1.0000   1.0000   1.0000
     1.0000   1.0000   1.0000   1.0000   1.0000   1.0000   1.0000   1.0000
     1.0000   1.0000   1.0000   1.0000   1.0000   1.0000   1.0000   1.0000
     1.0000   1.0000   1.0000   1.0000   1.0000   1.0000   1.0000   1.0000
     1.0000   1.0000   1.0000   1.0000   1.0000   1.0000   1.0000   1.0000
     1.0000   1.0000   1.0000   1.0000   1.0000   1.0000   1.0000   1.0000
     1.0000   1.0000   1.0000   1.0000   1.0000   1.0000   1.0000   1.0000
     1.0000   1.0000   1.0000   1.0000   1.0000   1.0000   1.0000   1.0000
     1.0000   1.0000   1.0000   1.0000   1.0000   1.0000   1.0000   1.0000
     1.0000   1.0000   1.0000   1.0000   1.0000   1.0000   1.0000   1.0000
     1.0000   1.0000   1.0000   1.0000   1.0000   1.0000   1.0000   1.0000
     1.0000   1.0000   1.0000   1.0000   1.0000   1.0000   1.0000   1.0000
     1.0000   1.0000   1.0000   1.0000   1.0000   1.0000   1.0000   1.0000
     1.0000   1.0000   1.0000   1.0000   1.0000   1.0000   1.0000   1.0000
     1.0000   1.0000   1.0000   1.0000   1.0000   1.0000   1.0000   1.0000
     1.0000   1.0000   1.0000   1.0000   1.0000   1.0000   1.0000   1.0000
     1.0000   1.0000   1.0000   1.0000   1.0000   1.0000   1.0000   1.0000
     1.0000   1.0000   1.0000   1.0000   1.0000   1.0000   1.0000   1.0000
     1.0000   1.0000   1.0000   1.0000   1.0000   1.0000   1.0000   1.0000
     1.0000   1.0000   1.0000   1.0000   1.0000   1.0000   1.0000   1.0000
     1.0000   1.0000   1.0000   1.0000   1.0000   1.0000   1.0000   1.0000
     1.0000   1.0000   1.0000   1.0000   1.0000   1.0000   1.0000   1.0000
     1.0000   1.0000   1.0000   1.0000   1.0000   1.0000   1.0000   1.0000
     1.0000   1.0000   1.0000   1.0000   1.0000   1.0000   1.0000   1.0000
     1.0000   1.0000   1.0000   1.0000   1.0000   1.0000   1.0000   1.0000
     1.0000   1.0000   1.0000   1.0000   1.0000   1.0000   1.0000   1.0000
     1.0000   1.0000   1.0000   1.0000   1.0000   1.0000   1.0000   1.0000
     1.0000   1.0000   1.0000   1.0000   1.0000   1.0000   1.0000   1.0000
     1.0000   1.0000   1.0000   1.0000   1.0000   1.0000   1.0000   1.0000
     1.0000   1.0000   1.0000   1.0000   1.0000   1.0000   1.0000   1.0000
     1.0000   1.0000   1.0000   1.0000   1.0000   1.0000   1.0000   1.0000
     1.0000   1.0000   1.0000   1.0000   1.0000   1.0000   1.0000   1.0000
     1.0000   1.0000   1.0000   1.0000   1.0000   1.0000   1.0000   1.0000
     1.0000   1.0000   1.0000   1.0000   1.0000   1.0000   1.0000   1.0000
     1.0000   1.0000   1.0000   1.0000   1.0000   1.0000   1.0000   1.0000
     1.0000   1.0000   1.0000   1.0000   1.0000   1.0000   1.0000   1.0000
     1.0000   1.0000   1.0000   1.0000   1.0000   1.0000   1.0000   1.0000
     1.0000   1.0000   1.0000   1.0000   1.0000   1.0000   1.0000   1.0000
     1.0000   1.0000   1.0000   1.0000   1.0000   1.0000   1.0000   1.0000
     1.0000   1.0000   1.0000   1.0000   1.0000   1.0000   1.0000   1.0000
     1.0000   1.0000   1.0000   1.0000   1.0000   1.0000   1.0000   1.0000
     1.0000   1.0000   1.0000   1.0000   1.0000   1.0000   1.0000   1.0000
     1.0000   1.0000   1.0000   1.0000   1.0000   1.0000   1.0000   1.0000
     1.0000   1.0000   1.0000   1.0000   1.0000   1.0000   1.0000   1.0000
     1.0000   1.0000   1.0000   1.0000   1.0000   1.0000   1.0000   1.0000
     1.0000   1.0000   1.0000   1.0000   1.0000   1.0000   1.0000   1.0000
     1.0000   1.0000   1.0000   1.0000   1.0000   1.0000   1.0000   1.0000
     1.0000   1.0000   1.0000   1.0000   1.0000   1.0000   1.0000   1.0000
     1.0000   1.0000   1.0000   1.0000   1.0000   1.0000   1.0000   1.0000
     1.0000   1.0000   1.0000   1.0000   1.0000   1.0000   1.0000   1.0000
     1.0000   1.0000   1.0000   1.0000   1.0000   1.0000   1.0000   1.0000
     1.0000   1.0000   1.0000   1.0000   1.0000   1.0000   1.0000   1.0000
     1.0000   1.0000   1.0000   1.0000   1.0000   1.0000   1.0000   1.0000
     1.0000   1.0000   1.0000   1.0000   1.0000   1.0000   1.0000   1.0000
     1.0000   1.0000   1.0000   1.0000   1.0000   1.0000   1.0000   1.0000
     1.0000   1.0000   1.0000   1.0000   1.0000   1.0000   1.0000   1.0000
     1.0000   1.0000   1.0000   1.0000   1.0000   1.0000   1.0000   1.0000
     1.0000   1.0000   1.0000   1.0000   1.0000   1.0000   1.0000   1.0000
     1.0000   1.0000   1.0000   1.0000   1.0000   1.0000   1.0000   1.0000
     1.0000   1.0000   1.0000   1.0000   1.0000   1.0000   1.0000   1.0000
     1.0000   1.0000   1.0000   1.0000   1.0000   1.0000   1.0000   1.0000
     1.0000   1.0000   1.0000   1.0000   1.0000   1.0000   1.0000   1.0000
     1.0000   1.0000   1.0000   1.0000   1.0000   1.0000   1.0000   1.0000
     1.0000   1.0000   1.0000   1.0000   1.0000   1.0000   1.0000   1.0000
     1.0000   1.0000   1.0000   1.0000   1.0000   1.0000   1.0000   1.0000
     1.0000   1.0000   1.0000   1.0380   1.0381   1.0384   1.0386   1.0388
     1.0390   0.5662   0.5661   0.5647   0.5644   0.5618   0.5610   0.1626
     0.0004   0.0004   0.0004   0.0000   0.0000   0.0000   0.0000   0.0000
     0.0000   0.0000   0.0000   0.0000   0.0000   0.0000   0.0000   0.0000
     0.0000   0.0000   0.0000   0.0000   0.0000   0.0000   0.0000   0.0000
     0.0000   0.0000   0.0000   0.0000   0.0000   0.0000   0.0000   0.0000
     0.0000   0.0000   0.0000   0.0000   0.0000   0.0000   0.0000   0.0000
     0.0000   0.0000   0.0000   0.0000   0.0000   0.0000   0.0000   0.0000
     0.0000   0.0000   0.0000   0.0000   0.0000   0.0000   0.0000   0.0000
     0.0000   0.0000   0.0000   0.0000   0.0000   0.0000   0.0000   0.0000
     0.0000   0.0000   0.0000   0.0000   0.0000   0.0000   0.0000   0.0000
     0.0000   0.0000   0.0000   0.0000   0.0000   0.0000   0.0000   0.0000
     0.0000   0.0000   0.0000   0.0000   0.0000   0.0000   0.0000   0.0000
     0.0000   0.0000   0.0000   0.0000   0.0000   0.0000   0.0000   0.0000
     0.0000   0.0000   0.0000   0.0000   0.0000   0.0000   0.0000   0.0000
     0.0000   0.0000   0.0000   0.0000   0.0000   0.0000   0.0000   0.0000
     0.0000   0.0000   0.0000   0.0000   0.0000   0.0000   0.0000   0.0000

          k = 0.0000 0.3849 0.0000 ( 42150 PWs)   bands (ev):

  -123.2855-123.2844-123.2839-123.2837-123.2831-123.2829-123.2828-123.2820
  -123.2817-123.2814-123.2811-123.2808-123.2806-123.2803-123.2800-123.2795
  -123.2357-123.2346-123.2339-123.2332-123.2328-123.2326-123.2323-123.2318
  -123.2316-123.2314-123.2310-123.2307-123.2301-123.2297-123.2293-123.2288
  -123.0888-123.0872-123.0868-123.0867-123.0866-123.0864-123.0863-123.0862
  -123.0862-123.0861-123.0860-123.0859-123.0856-123.0855-123.0855-123.0852
  -123.0510-123.0496-123.0494-123.0491-123.0488-123.0487-123.0485-123.0481
  -123.0478-123.0474-123.0473-123.0470-123.0469-123.0467-123.0466-123.0462
   -77.3935 -77.3934 -77.3900 -77.3870 -77.3870 -77.3860 -77.3857 -77.3796
   -77.3795 -77.3747 -77.3723 -77.3719 -77.3715 -77.3711 -77.3710 -77.3704
   -77.3700 -77.3696 -77.3691 -77.3690 -77.3689 -77.3685 -77.3683 -77.3679
   -77.3677 -77.3673 -77.3664 -77.3662 -77.3655 -77.3653 -77.3652 -77.3651
   -77.3617 -77.3612 -77.3600 -77.3594 -77.3576 -77.3573 -77.3549 -77.3542
   -77.3537 -77.3529 -77.3526 -77.3520 -77.3518 -77.3509 -77.3504 -77.3498
   -77.3429 -77.3427 -77.3394 -77.3365 -77.3365 -77.3352 -77.3348 -77.3287
   -77.3286 -77.3240 -77.3226 -77.3216 -77.3213 -77.3204 -77.3203 -77.3202
   -77.3198 -77.3191 -77.3187 -77.3183 -77.3183 -77.3182 -77.3179 -77.3178
   -77.3175 -77.3171 -77.3159 -77.3155 -77.3151 -77.3148 -77.3145 -77.3143
   -77.3108 -77.3102 -77.3093 -77.3085 -77.3069 -77.3066 -77.3041 -77.3035
   -77.3027 -77.3022 -77.3018 -77.3015 -77.3013 -77.3000 -77.2992 -77.2989
   -77.1946 -77.1946 -77.1910 -77.1881 -77.1881 -77.1871 -77.1871 -77.1830
   -77.1829 -77.1828 -77.1814 -77.1812 -77.1808 -77.1807 -77.1807 -77.1803
   -77.1802 -77.1801 -77.1800 -77.1798 -77.1796 -77.1792 -77.1791 -77.1781
   -77.1780 -77.1759 -77.1723 -77.1723 -77.1702 -77.1702 -77.1662 -77.1662
   -77.1621 -77.1621 -77.1610 -77.1609 -77.1582 -77.1582 -77.1558 -77.1557
   -77.1552 -77.1550 -77.1548 -77.1546 -77.1542 -77.1534 -77.1527 -77.1526
   -77.1522 -77.1516 -77.1514 -77.1494 -77.1494 -77.1483 -77.1481 -77.1462
   -77.1459 -77.1458 -77.1447 -77.1443 -77.1440 -77.1435 -77.1432 -77.1429
   -77.1427 -77.1425 -77.1423 -77.1418 -77.1418 -77.1417 -77.1415 -77.1406
   -77.1405 -77.1371 -77.1334 -77.1333 -77.1313 -77.1313 -77.1274 -77.1273
   -77.1234 -77.1231 -77.1222 -77.1218 -77.1195 -77.1194 -77.1168 -77.1163
   -77.1160 -77.1154 -77.1153 -77.1146 -77.1139 -77.1135 -77.1126 -77.1125
    -6.5206  -5.9144  -5.7458  -5.3752  -5.3751  -5.2225  -5.1194  -5.0561
    -4.9746  -4.9363  -4.9363  -4.9270  -4.9137  -4.8751  -4.8751  -4.8568
    -4.8567  -4.8456  -4.8455  -4.8431  -4.8319  -4.7854  -4.7686  -4.7649
    -4.7649  -4.7366  -4.7366  -4.7306  -4.7306  -4.7073  -4.7057  -4.6850
    -4.6849  -4.6693  -4.6693  -4.6603  -4.6603  -4.6479  -4.6479  -4.6334
    -4.6333  -4.6327  -4.6164  -4.6149  -4.6148  -4.6127  -4.6127  -4.5995
    -4.5995  -4.5749  -4.5749  -4.5627  -4.5627  -4.5626  -4.5625  -4.5458
    -4.5422  -4.5421  -4.5328  -4.5326  -4.5314  -4.5303  -4.5303  -4.5013
    -4.5013  -4.4916  -4.4915  -4.4707  -4.4706  -4.4697  -4.4696  -4.4649
    -4.4648  -4.4631  -4.4154  -4.4152  -4.4149  -4.4138  -4.4135  -4.3912
    -4.3912  -4.3900  -4.3900  -4.3759  -4.3759  -4.3694  -4.3471  -4.3470
    -4.3454  -4.3454  -4.3384  -4.3384  -4.3377  -4.3376  -4.3363  -4.3147
    -4.3147  -4.3089  -4.3088  -4.3072  -4.2995  -4.2995  -4.2938  -4.2938
    -4.2936  -4.2819  -4.2818  -4.2722  -4.2690  -4.2689  -4.2623  -4.2279
    -4.2230  -4.2230  -4.2175  -4.2026  -4.2025  -4.2016  -4.2003  -4.2003
    -4.1934  -4.1933  -4.1888  -4.1880  -4.1879  -4.1869  -4.1629  -4.1628
    -4.1597  -4.1596  -4.1422  -4.1421  -4.1320  -4.1231  -4.1147  -4.1116
    -4.1116  -4.1106  -4.1106  -4.0861  -4.0860  -4.0786  -4.0786  -4.0725
    -4.0725  -4.0654  -4.0601  -4.0534  -4.0534  -4.0387  -4.0375  -4.0375
    -4.0244  -4.0211  -4.0208  -4.0199  -4.0196  -4.0162  -3.9957  -3.9957
    -3.9867  -3.9866  -3.9860  -3.9836  -3.9705  -3.9705  -3.9662  -3.9527
    -3.9413  -3.9378  -3.9378  -3.9197  -3.9180  -3.9177  -3.9153  -3.9153
    -3.9111  -3.9111  -3.9107  -3.9106  -3.9071  -3.8849  -3.8847  -3.8838
    -3.8838  -3.8809  -3.8808  -3.8747  -3.8747  -3.8646  -3.8646  -3.8608
    -3.8608  -3.8594  -3.8470  -3.8470  -3.8447  -3.8446  -3.8355  -3.8316
    -3.8316  -3.8166  -3.8165  -3.8119  -3.8119  -3.8053  -3.8013  -3.7999
    -3.7998  -3.7997  -3.7996  -3.7939  -3.7928  -3.7927  -3.7897  -3.7736
    -3.7736  -3.7726  -3.7720  -3.7719  -3.7705  -3.7695  -3.7695  -3.7673
    -3.7620  -3.7412  -3.7367  -3.7367  -3.7342  -3.7342  -3.7178  -3.7177
    -3.7076  -3.7076  -3.6824  -3.6823  -3.6823  -3.6813  -3.6793  -3.6793
    -3.6761  -3.6751  -3.6734  -3.6734  -3.6725  -3.6725  -3.6640  -3.6640
    -3.6570  -3.6485  -3.6484  -3.6473  -3.6473  -3.6453  -3.6453  -3.6428
    -3.6406  -3.6406  -3.6370  -3.6370  -3.6317  -3.6192  -3.6191  -3.6158
    -3.6158  -3.6052  -3.5937  -3.5937  -3.5884  -3.5884  -3.5880  -3.5880
    -3.5828  -3.5638  -3.5616  -3.5572  -3.5543  -3.5542  -3.5541  -3.5501
    -3.5500  -3.5500  -3.5499  -3.5493  -3.5491  -3.5370  -3.5312  -3.5312
    -3.5266  -3.5266  -3.5249  -3.5249  -3.5248  -3.5223  -3.5217  -3.5216
    -3.5197  -3.5035  -3.4988  -3.4988  -3.4914  -3.4914  -3.4904  -3.4818
    -3.4818  -3.4720  -3.4633  -3.4487  -3.4486  -3.4371  -3.4371  -3.4259
    -3.4259  -3.4172  -3.4138  -3.4121  -3.4119  -3.3971  -3.3970  -3.3793
    -3.3108  -3.3108  -3.3031  -3.3031  -3.2655  -3.2655  -3.2655  -3.2268
    -3.1074  -3.1072  -3.0398  -2.7415  -2.5584  -2.4149  -2.4148  -2.0647
    -2.0646  -1.9322  -1.9322  -1.9022  -1.1388  -1.1387  -1.1219  -0.9629
    -0.9627  -0.8990  -0.6601  -0.4069  -0.1706  -0.1705  -0.1129  -0.1129
    -0.0578   0.2931   0.2932   0.3846   0.3847   0.7284   0.7284   0.8880
     0.8881   1.1864   1.1875   1.1875   1.3439   1.4156   1.8285   1.8286
     1.9845   2.0679   2.0681   2.1231   2.1231   2.3740   2.3740   2.6758
     2.6759   2.7286   2.7287   2.8034   2.8034   2.8608   3.6708   3.6708
     3.9696   3.9697   4.0824   4.1151   4.1154   4.2702   4.2703   4.5073
     4.5074   4.7137   4.7615   4.8673   4.9178   4.9179   5.3375   5.3377
     5.3518   5.3520   5.4270   5.4271   5.5066   5.5082   5.5120   5.6210
     5.6211   5.9775   5.9776   6.0690   6.0691   6.3815   6.5489   6.5523
     6.5550   6.7726   6.7727   6.9360   6.9362   7.0515   7.0516   7.0739
     7.1238   7.1410   7.2811   7.2812   7.4386   7.4525   7.6924   7.6936
     7.7080   7.7093   7.7104   7.7286   7.7289   7.8517   7.8519   7.8702
     7.8704   8.0442   8.0654   8.2545   8.2550   8.2555   8.4961   8.4961
     8.5522   8.6485   8.6486   8.6761   8.6761   8.8654   8.8655   8.9022
     8.9024   8.9972   8.9973   9.0568   9.1251   9.1252   9.2666   9.3232
     9.3808   9.3809   9.4265   9.4889   9.4889   9.6697   9.8396   9.8396
     9.8581   9.8583   9.8590   9.8593   9.8674   9.9255   9.9256  10.0268
    10.0269  10.1344  10.1790  10.1792  10.2759  10.2759  10.4393  10.4393
    10.4632  10.4632  10.5262  10.5695  10.6020  10.6020  10.7060  10.7061
    10.8497  10.8500  10.8627  10.8631  10.9077  10.9079  11.0911  11.0911
    11.1324  11.1325  11.3100  11.4068  11.4697  11.4699  11.5543  11.5544

     occupation numbers 
     1.0000   1.0000   1.0000   1.0000   1.0000   1.0000   1.0000   1.0000
     1.0000   1.0000   1.0000   1.0000   1.0000   1.0000   1.0000   1.0000
     1.0000   1.0000   1.0000   1.0000   1.0000   1.0000   1.0000   1.0000
     1.0000   1.0000   1.0000   1.0000   1.0000   1.0000   1.0000   1.0000
     1.0000   1.0000   1.0000   1.0000   1.0000   1.0000   1.0000   1.0000
     1.0000   1.0000   1.0000   1.0000   1.0000   1.0000   1.0000   1.0000
     1.0000   1.0000   1.0000   1.0000   1.0000   1.0000   1.0000   1.0000
     1.0000   1.0000   1.0000   1.0000   1.0000   1.0000   1.0000   1.0000
     1.0000   1.0000   1.0000   1.0000   1.0000   1.0000   1.0000   1.0000
     1.0000   1.0000   1.0000   1.0000   1.0000   1.0000   1.0000   1.0000
     1.0000   1.0000   1.0000   1.0000   1.0000   1.0000   1.0000   1.0000
     1.0000   1.0000   1.0000   1.0000   1.0000   1.0000   1.0000   1.0000
     1.0000   1.0000   1.0000   1.0000   1.0000   1.0000   1.0000   1.0000
     1.0000   1.0000   1.0000   1.0000   1.0000   1.0000   1.0000   1.0000
     1.0000   1.0000   1.0000   1.0000   1.0000   1.0000   1.0000   1.0000
     1.0000   1.0000   1.0000   1.0000   1.0000   1.0000   1.0000   1.0000
     1.0000   1.0000   1.0000   1.0000   1.0000   1.0000   1.0000   1.0000
     1.0000   1.0000   1.0000   1.0000   1.0000   1.0000   1.0000   1.0000
     1.0000   1.0000   1.0000   1.0000   1.0000   1.0000   1.0000   1.0000
     1.0000   1.0000   1.0000   1.0000   1.0000   1.0000   1.0000   1.0000
     1.0000   1.0000   1.0000   1.0000   1.0000   1.0000   1.0000   1.0000
     1.0000   1.0000   1.0000   1.0000   1.0000   1.0000   1.0000   1.0000
     1.0000   1.0000   1.0000   1.0000   1.0000   1.0000   1.0000   1.0000
     1.0000   1.0000   1.0000   1.0000   1.0000   1.0000   1.0000   1.0000
     1.0000   1.0000   1.0000   1.0000   1.0000   1.0000   1.0000   1.0000
     1.0000   1.0000   1.0000   1.0000   1.0000   1.0000   1.0000   1.0000
     1.0000   1.0000   1.0000   1.0000   1.0000   1.0000   1.0000   1.0000
     1.0000   1.0000   1.0000   1.0000   1.0000   1.0000   1.0000   1.0000
     1.0000   1.0000   1.0000   1.0000   1.0000   1.0000   1.0000   1.0000
     1.0000   1.0000   1.0000   1.0000   1.0000   1.0000   1.0000   1.0000
     1.0000   1.0000   1.0000   1.0000   1.0000   1.0000   1.0000   1.0000
     1.0000   1.0000   1.0000   1.0000   1.0000   1.0000   1.0000   1.0000
     1.0000   1.0000   1.0000   1.0000   1.0000   1.0000   1.0000   1.0000
     1.0000   1.0000   1.0000   1.0000   1.0000   1.0000   1.0000   1.0000
     1.0000   1.0000   1.0000   1.0000   1.0000   1.0000   1.0000   1.0000
     1.0000   1.0000   1.0000   1.0000   1.0000   1.0000   1.0000   1.0000
     1.0000   1.0000   1.0000   1.0000   1.0000   1.0000   1.0000   1.0000
     1.0000   1.0000   1.0000   1.0000   1.0000   1.0000   1.0000   1.0000
     1.0000   1.0000   1.0000   1.0000   1.0000   1.0000   1.0000   1.0000
     1.0000   1.0000   1.0000   1.0000   1.0000   1.0000   1.0000   1.0000
     1.0000   1.0000   1.0000   1.0000   1.0000   1.0000   1.0000   1.0000
     1.0000   1.0000   1.0000   1.0000   1.0000   1.0000   1.0000   1.0000
     1.0000   1.0000   1.0000   1.0000   1.0000   1.0000   1.0000   1.0000
     1.0000   1.0000   1.0000   1.0000   1.0000   1.0000   1.0000   1.0000
     1.0000   1.0000   1.0000   1.0000   1.0000   1.0000   1.0000   1.0000
     1.0000   1.0000   1.0000   1.0000   1.0000   1.0000   1.0000   1.0000
     1.0000   1.0000   1.0000   1.0000   1.0000   1.0000   1.0000   1.0000
     1.0000   1.0000   1.0000   1.0000   1.0000   1.0000   1.0000   1.0000
     1.0000   1.0000   1.0000   1.0000   1.0000   1.0000   1.0000   1.0000
     1.0000   1.0000   1.0000   1.0000   1.0000   1.0000   1.0000   1.0000
     1.0000   1.0000   1.0000   1.0000   1.0000   1.0000   1.0000   1.0000
     1.0000   1.0000   1.0000   1.0000   1.0000   1.0000   1.0000   1.0000
     1.0000   1.0000   1.0000   1.0000   1.0000   1.0000   1.0000   1.0000
     1.0000   1.0000   1.0000   1.0000   1.0000   1.0000   1.0000   1.0000
     1.0000   1.0000   1.0000   1.0000   1.0000   1.0000   1.0000   1.0000
     1.0000   1.0000   1.0000   1.0000   1.0000   1.0000   1.0000   1.0000
     1.0000   1.0000   1.0000   1.0000   1.0000   1.0000   1.0000   1.0000
     1.0000   1.0000   1.0000   1.0000   1.0000   1.0000   1.0000   1.0000
     1.0000   1.0000   1.0000   1.0000   1.0000   1.0000   1.0000   1.0000
     1.0000   1.0000   1.0000   1.0000   1.0000   1.0000   1.0000   1.0000
     1.0000   1.0000   1.0000   1.0000   1.0000   1.0000   1.0000   1.0000
     1.0000   1.0000   1.0000   1.0000   1.0000   1.0000   1.0000   1.0000
     1.0000   1.0000   1.0000   1.0000   1.0000   1.0000   1.0000   1.0000
     1.0000   1.0000   1.0000   1.0000   1.0000   1.0000   1.0000   1.0000
     1.0000   1.0000   1.0000   1.0000   1.0000   1.0000   1.0000   1.0000
     1.0000   1.0000   1.0000   1.0000   1.0000   1.0000   1.0000   1.0000
     1.0000   1.0000   1.0000   1.0000   1.0000   1.0000   1.0000   1.0000
     1.0000   1.0000   1.0000   1.0000   1.0000   1.0000   1.0000   1.0000
     1.0000   1.0000   1.0000   1.0000   1.0000   1.0000   1.0000   1.0000
     1.0000   1.0000   1.0000   1.0000   1.0000   1.0000   1.0000   1.0000
     1.0000   1.0000   1.0000   1.0000   1.0000   1.0000   1.0000   1.0000
     1.0000   1.0000   1.0000   1.0000   1.0000   1.0000   1.0000   1.0000
     1.0000   1.0000   1.0000   1.0000   1.0000   1.0000   1.0000   1.0000
     1.0000   1.0000   1.0000   1.0000   1.0000   1.0000   1.0000   1.0000
     1.0000   1.0000   1.0000   1.0000   1.0000   1.0000   1.0000   1.0000
     1.0000   1.0000   1.0000   1.0000   1.0000   1.0000   1.0000   1.0000
     1.0000   1.0000   1.0000   1.0000   1.0000   1.0000   1.0000   1.0000
     1.0000   1.0000   1.0000   1.0000   1.0000   1.0000   1.0000   1.0000
     1.0000   1.0000   1.0000   1.0000   1.0000   1.0000   1.0000   1.0000
     1.0000   1.0000   1.0000   1.0001   1.0001   1.0004   0.6238   0.6236
     0.0588   0.0588   0.0136   0.0083   0.0083   0.0006   0.0006   0.0000
     0.0000   0.0000   0.0000   0.0000   0.0000   0.0000   0.0000   0.0000
     0.0000   0.0000   0.0000   0.0000   0.0000   0.0000   0.0000   0.0000
     0.0000   0.0000   0.0000   0.0000   0.0000   0.0000   0.0000   0.0000
     0.0000   0.0000   0.0000   0.0000   0.0000   0.0000   0.0000   0.0000
     0.0000   0.0000   0.0000   0.0000   0.0000   0.0000   0.0000   0.0000
     0.0000   0.0000   0.0000   0.0000   0.0000   0.0000   0.0000   0.0000
     0.0000   0.0000   0.0000   0.0000   0.0000   0.0000   0.0000   0.0000
     0.0000   0.0000   0.0000   0.0000   0.0000   0.0000   0.0000   0.0000
     0.0000   0.0000   0.0000   0.0000   0.0000   0.0000   0.0000   0.0000
     0.0000   0.0000   0.0000   0.0000   0.0000   0.0000   0.0000   0.0000
     0.0000   0.0000   0.0000   0.0000   0.0000   0.0000   0.0000   0.0000
     0.0000   0.0000   0.0000   0.0000   0.0000   0.0000   0.0000   0.0000
     0.0000   0.0000   0.0000   0.0000   0.0000   0.0000   0.0000   0.0000
     0.0000   0.0000   0.0000   0.0000   0.0000   0.0000   0.0000   0.0000
     0.0000   0.0000   0.0000   0.0000   0.0000   0.0000   0.0000   0.0000

          k = 0.3333 0.1925 0.0000 ( 42150 PWs)   bands (ev):

  -123.2855-123.2844-123.2839-123.2836-123.2832-123.2829-123.2827-123.2820
  -123.2817-123.2814-123.2811-123.2808-123.2806-123.2803-123.2800-123.2795
  -123.2357-123.2346-123.2339-123.2332-123.2328-123.2325-123.2323-123.2318
  -123.2316-123.2314-123.2310-123.2307-123.2301-123.2296-123.2293-123.2288
  -123.0888-123.0872-123.0868-123.0867-123.0866-123.0864-123.0864-123.0862
  -123.0862-123.0861-123.0859-123.0859-123.0856-123.0855-123.0854-123.0852
  -123.0510-123.0496-123.0495-123.0491-123.0488-123.0487-123.0485-123.0481
  -123.0478-123.0475-123.0472-123.0470-123.0469-123.0467-123.0466-123.0462
   -77.3935 -77.3934 -77.3900 -77.3870 -77.3869 -77.3861 -77.3857 -77.3796
   -77.3795 -77.3747 -77.3723 -77.3719 -77.3716 -77.3711 -77.3710 -77.3703
   -77.3699 -77.3698 -77.3691 -77.3690 -77.3689 -77.3685 -77.3682 -77.3680
   -77.3677 -77.3672 -77.3666 -77.3662 -77.3656 -77.3653 -77.3652 -77.3650
   -77.3617 -77.3612 -77.3600 -77.3593 -77.3576 -77.3574 -77.3550 -77.3541
   -77.3538 -77.3529 -77.3527 -77.3520 -77.3518 -77.3507 -77.3504 -77.3499
   -77.3429 -77.3427 -77.3394 -77.3364 -77.3364 -77.3353 -77.3348 -77.3287
   -77.3286 -77.3240 -77.3225 -77.3217 -77.3212 -77.3204 -77.3203 -77.3200
   -77.3199 -77.3193 -77.3185 -77.3183 -77.3183 -77.3182 -77.3180 -77.3178
   -77.3173 -77.3171 -77.3160 -77.3156 -77.3151 -77.3147 -77.3146 -77.3143
   -77.3108 -77.3100 -77.3095 -77.3085 -77.3069 -77.3066 -77.3041 -77.3034
   -77.3028 -77.3022 -77.3020 -77.3014 -77.3012 -77.3000 -77.2992 -77.2989
   -77.1946 -77.1946 -77.1910 -77.1881 -77.1881 -77.1871 -77.1871 -77.1830
   -77.1829 -77.1828 -77.1814 -77.1812 -77.1808 -77.1807 -77.1807 -77.1803
   -77.1802 -77.1801 -77.1800 -77.1798 -77.1796 -77.1792 -77.1791 -77.1781
   -77.1780 -77.1759 -77.1723 -77.1723 -77.1702 -77.1702 -77.1662 -77.1662
   -77.1621 -77.1621 -77.1610 -77.1609 -77.1582 -77.1582 -77.1558 -77.1557
   -77.1552 -77.1550 -77.1549 -77.1546 -77.1542 -77.1534 -77.1527 -77.1526
   -77.1522 -77.1516 -77.1514 -77.1494 -77.1494 -77.1484 -77.1481 -77.1462
   -77.1459 -77.1458 -77.1446 -77.1443 -77.1440 -77.1435 -77.1431 -77.1430
   -77.1427 -77.1425 -77.1421 -77.1419 -77.1418 -77.1417 -77.1416 -77.1407
   -77.1404 -77.1371 -77.1334 -77.1333 -77.1313 -77.1313 -77.1275 -77.1273
   -77.1234 -77.1230 -77.1223 -77.1218 -77.1195 -77.1194 -77.1168 -77.1163
   -77.1160 -77.1154 -77.1153 -77.1145 -77.1139 -77.1135 -77.1125 -77.1125
    -6.5206  -5.9144  -5.7458  -5.3751  -5.3751  -5.2225  -5.1194  -5.0561
    -4.9746  -4.9363  -4.9363  -4.9270  -4.9137  -4.8751  -4.8750  -4.8568
    -4.8567  -4.8456  -4.8456  -4.8430  -4.8319  -4.7854  -4.7686  -4.7649
    -4.7649  -4.7366  -4.7366  -4.7306  -4.7306  -4.7073  -4.7057  -4.6850
    -4.6849  -4.6693  -4.6693  -4.6603  -4.6603  -4.6479  -4.6479  -4.6333
    -4.6333  -4.6327  -4.6164  -4.6149  -4.6148  -4.6128  -4.6127  -4.5995
    -4.5995  -4.5749  -4.5749  -4.5630  -4.5629  -4.5623  -4.5623  -4.5459
    -4.5422  -4.5421  -4.5328  -4.5326  -4.5314  -4.5303  -4.5303  -4.5013
    -4.5013  -4.4915  -4.4915  -4.4707  -4.4706  -4.4698  -4.4696  -4.4649
    -4.4648  -4.4631  -4.4154  -4.4152  -4.4149  -4.4138  -4.4135  -4.3912
    -4.3912  -4.3900  -4.3900  -4.3759  -4.3759  -4.3694  -4.3471  -4.3470
    -4.3454  -4.3454  -4.3384  -4.3383  -4.3377  -4.3376  -4.3363  -4.3147
    -4.3146  -4.3089  -4.3088  -4.3072  -4.2995  -4.2995  -4.2938  -4.2938
    -4.2936  -4.2819  -4.2818  -4.2722  -4.2690  -4.2689  -4.2623  -4.2279
    -4.2230  -4.2230  -4.2175  -4.2026  -4.2025  -4.2016  -4.2003  -4.2003
    -4.1934  -4.1933  -4.1888  -4.1880  -4.1879  -4.1869  -4.1628  -4.1628
    -4.1597  -4.1596  -4.1422  -4.1421  -4.1320  -4.1231  -4.1147  -4.1116
    -4.1116  -4.1106  -4.1106  -4.0861  -4.0860  -4.0786  -4.0786  -4.0725
    -4.0725  -4.0654  -4.0601  -4.0534  -4.0534  -4.0387  -4.0375  -4.0375
    -4.0244  -4.0211  -4.0207  -4.0200  -4.0196  -4.0162  -3.9957  -3.9957
    -3.9867  -3.9866  -3.9860  -3.9836  -3.9706  -3.9705  -3.9662  -3.9527
    -3.9413  -3.9378  -3.9378  -3.9197  -3.9180  -3.9177  -3.9154  -3.9153
    -3.9111  -3.9111  -3.9107  -3.9106  -3.9071  -3.8849  -3.8847  -3.8838
    -3.8838  -3.8809  -3.8808  -3.8747  -3.8747  -3.8646  -3.8646  -3.8608
    -3.8608  -3.8594  -3.8470  -3.8470  -3.8447  -3.8446  -3.8355  -3.8316
    -3.8316  -3.8166  -3.8165  -3.8119  -3.8119  -3.8053  -3.8013  -3.8000
    -3.7999  -3.7996  -3.7995  -3.7939  -3.7928  -3.7927  -3.7897  -3.7736
    -3.7735  -3.7726  -3.7720  -3.7719  -3.7705  -3.7695  -3.7695  -3.7673
    -3.7620  -3.7412  -3.7367  -3.7367  -3.7342  -3.7342  -3.7178  -3.7177
    -3.7076  -3.7076  -3.6824  -3.6823  -3.6823  -3.6812  -3.6793  -3.6793
    -3.6761  -3.6751  -3.6734  -3.6734  -3.6725  -3.6725  -3.6640  -3.6640
    -3.6570  -3.6485  -3.6484  -3.6473  -3.6473  -3.6453  -3.6453  -3.6428
    -3.6406  -3.6406  -3.6370  -3.6370  -3.6317  -3.6192  -3.6191  -3.6158
    -3.6158  -3.6052  -3.5937  -3.5937  -3.5884  -3.5884  -3.5880  -3.5880
    -3.5828  -3.5638  -3.5616  -3.5572  -3.5543  -3.5543  -3.5541  -3.5501
    -3.5500  -3.5500  -3.5498  -3.5493  -3.5491  -3.5370  -3.5312  -3.5312
    -3.5266  -3.5266  -3.5249  -3.5249  -3.5248  -3.5222  -3.5217  -3.5216
    -3.5197  -3.5035  -3.4988  -3.4988  -3.4914  -3.4914  -3.4904  -3.4818
    -3.4818  -3.4720  -3.4633  -3.4487  -3.4487  -3.4371  -3.4371  -3.4259
    -3.4259  -3.4172  -3.4138  -3.4121  -3.4119  -3.3971  -3.3970  -3.3793
    -3.3108  -3.3108  -3.3031  -3.3031  -3.2655  -3.2655  -3.2655  -3.2268
    -3.1073  -3.1073  -3.0398  -2.7415  -2.5584  -2.4149  -2.4148  -2.0647
    -2.0646  -1.9322  -1.9322  -1.9022  -1.1387  -1.1387  -1.1219  -0.9628
    -0.9628  -0.8990  -0.6601  -0.4069  -0.1706  -0.1705  -0.1129  -0.1129
    -0.0578   0.2931   0.2932   0.3846   0.3847   0.7284   0.7284   0.8880
     0.8881   1.1864   1.1875   1.1875   1.3439   1.4156   1.8285   1.8286
     1.9845   2.0679   2.0681   2.1231   2.1231   2.3740   2.3740   2.6758
     2.6759   2.7286   2.7286   2.8034   2.8034   2.8608   3.6708   3.6708
     3.9696   3.9697   4.0824   4.1151   4.1154   4.2703   4.2703   4.5073
     4.5074   4.7137   4.7615   4.8673   4.9178   4.9179   5.3375   5.3378
     5.3519   5.3520   5.4270   5.4271   5.5066   5.5082   5.5121   5.6210
     5.6211   5.9775   5.9776   6.0690   6.0691   6.3815   6.5490   6.5523
     6.5549   6.7726   6.7727   6.9360   6.9362   7.0514   7.0515   7.0740
     7.1237   7.1410   7.2811   7.2812   7.4386   7.4525   7.6924   7.6935
     7.7080   7.7094   7.7104   7.7286   7.7289   7.8518   7.8519   7.8703
     7.8703   8.0442   8.0653   8.2548   8.2550   8.2552   8.4961   8.4961
     8.5522   8.6485   8.6486   8.6761   8.6761   8.8654   8.8656   8.9022
     8.9024   8.9972   8.9973   9.0568   9.1251   9.1252   9.2666   9.3232
     9.3808   9.3809   9.4265   9.4889   9.4890   9.6697   9.8396   9.8396
     9.8581   9.8583   9.8590   9.8593   9.8674   9.9255   9.9257  10.0268
    10.0268  10.1344  10.1791  10.1792  10.2758  10.2760  10.4393  10.4393
    10.4632  10.4632  10.5262  10.5695  10.6020  10.6020  10.7060  10.7061
    10.8497  10.8500  10.8626  10.8630  10.9078  10.9079  11.0911  11.0911
    11.1324  11.1325  11.3100  11.4068  11.4069  11.4697  11.4699  11.5544

     occupation numbers 
     1.0000   1.0000   1.0000   1.0000   1.0000   1.0000   1.0000   1.0000
     1.0000   1.0000   1.0000   1.0000   1.0000   1.0000   1.0000   1.0000
     1.0000   1.0000   1.0000   1.0000   1.0000   1.0000   1.0000   1.0000
     1.0000   1.0000   1.0000   1.0000   1.0000   1.0000   1.0000   1.0000
     1.0000   1.0000   1.0000   1.0000   1.0000   1.0000   1.0000   1.0000
     1.0000   1.0000   1.0000   1.0000   1.0000   1.0000   1.0000   1.0000
     1.0000   1.0000   1.0000   1.0000   1.0000   1.0000   1.0000   1.0000
     1.0000   1.0000   1.0000   1.0000   1.0000   1.0000   1.0000   1.0000
     1.0000   1.0000   1.0000   1.0000   1.0000   1.0000   1.0000   1.0000
     1.0000   1.0000   1.0000   1.0000   1.0000   1.0000   1.0000   1.0000
     1.0000   1.0000   1.0000   1.0000   1.0000   1.0000   1.0000   1.0000
     1.0000   1.0000   1.0000   1.0000   1.0000   1.0000   1.0000   1.0000
     1.0000   1.0000   1.0000   1.0000   1.0000   1.0000   1.0000   1.0000
     1.0000   1.0000   1.0000   1.0000   1.0000   1.0000   1.0000   1.0000
     1.0000   1.0000   1.0000   1.0000   1.0000   1.0000   1.0000   1.0000
     1.0000   1.0000   1.0000   1.0000   1.0000   1.0000   1.0000   1.0000
     1.0000   1.0000   1.0000   1.0000   1.0000   1.0000   1.0000   1.0000
     1.0000   1.0000   1.0000   1.0000   1.0000   1.0000   1.0000   1.0000
     1.0000   1.0000   1.0000   1.0000   1.0000   1.0000   1.0000   1.0000
     1.0000   1.0000   1.0000   1.0000   1.0000   1.0000   1.0000   1.0000
     1.0000   1.0000   1.0000   1.0000   1.0000   1.0000   1.0000   1.0000
     1.0000   1.0000   1.0000   1.0000   1.0000   1.0000   1.0000   1.0000
     1.0000   1.0000   1.0000   1.0000   1.0000   1.0000   1.0000   1.0000
     1.0000   1.0000   1.0000   1.0000   1.0000   1.0000   1.0000   1.0000
     1.0000   1.0000   1.0000   1.0000   1.0000   1.0000   1.0000   1.0000
     1.0000   1.0000   1.0000   1.0000   1.0000   1.0000   1.0000   1.0000
     1.0000   1.0000   1.0000   1.0000   1.0000   1.0000   1.0000   1.0000
     1.0000   1.0000   1.0000   1.0000   1.0000   1.0000   1.0000   1.0000
     1.0000   1.0000   1.0000   1.0000   1.0000   1.0000   1.0000   1.0000
     1.0000   1.0000   1.0000   1.0000   1.0000   1.0000   1.0000   1.0000
     1.0000   1.0000   1.0000   1.0000   1.0000   1.0000   1.0000   1.0000
     1.0000   1.0000   1.0000   1.0000   1.0000   1.0000   1.0000   1.0000
     1.0000   1.0000   1.0000   1.0000   1.0000   1.0000   1.0000   1.0000
     1.0000   1.0000   1.0000   1.0000   1.0000   1.0000   1.0000   1.0000
     1.0000   1.0000   1.0000   1.0000   1.0000   1.0000   1.0000   1.0000
     1.0000   1.0000   1.0000   1.0000   1.0000   1.0000   1.0000   1.0000
     1.0000   1.0000   1.0000   1.0000   1.0000   1.0000   1.0000   1.0000
     1.0000   1.0000   1.0000   1.0000   1.0000   1.0000   1.0000   1.0000
     1.0000   1.0000   1.0000   1.0000   1.0000   1.0000   1.0000   1.0000
     1.0000   1.0000   1.0000   1.0000   1.0000   1.0000   1.0000   1.0000
     1.0000   1.0000   1.0000   1.0000   1.0000   1.0000   1.0000   1.0000
     1.0000   1.0000   1.0000   1.0000   1.0000   1.0000   1.0000   1.0000
     1.0000   1.0000   1.0000   1.0000   1.0000   1.0000   1.0000   1.0000
     1.0000   1.0000   1.0000   1.0000   1.0000   1.0000   1.0000   1.0000
     1.0000   1.0000   1.0000   1.0000   1.0000   1.0000   1.0000   1.0000
     1.0000   1.0000   1.0000   1.0000   1.0000   1.0000   1.0000   1.0000
     1.0000   1.0000   1.0000   1.0000   1.0000   1.0000   1.0000   1.0000
     1.0000   1.0000   1.0000   1.0000   1.0000   1.0000   1.0000   1.0000
     1.0000   1.0000   1.0000   1.0000   1.0000   1.0000   1.0000   1.0000
     1.0000   1.0000   1.0000   1.0000   1.0000   1.0000   1.0000   1.0000
     1.0000   1.0000   1.0000   1.0000   1.0000   1.0000   1.0000   1.0000
     1.0000   1.0000   1.0000   1.0000   1.0000   1.0000   1.0000   1.0000
     1.0000   1.0000   1.0000   1.0000   1.0000   1.0000   1.0000   1.0000
     1.0000   1.0000   1.0000   1.0000   1.0000   1.0000   1.0000   1.0000
     1.0000   1.0000   1.0000   1.0000   1.0000   1.0000   1.0000   1.0000
     1.0000   1.0000   1.0000   1.0000   1.0000   1.0000   1.0000   1.0000
     1.0000   1.0000   1.0000   1.0000   1.0000   1.0000   1.0000   1.0000
     1.0000   1.0000   1.0000   1.0000   1.0000   1.0000   1.0000   1.0000
     1.0000   1.0000   1.0000   1.0000   1.0000   1.0000   1.0000   1.0000
     1.0000   1.0000   1.0000   1.0000   1.0000   1.0000   1.0000   1.0000
     1.0000   1.0000   1.0000   1.0000   1.0000   1.0000   1.0000   1.0000
     1.0000   1.0000   1.0000   1.0000   1.0000   1.0000   1.0000   1.0000
     1.0000   1.0000   1.0000   1.0000   1.0000   1.0000   1.0000   1.0000
     1.0000   1.0000   1.0000   1.0000   1.0000   1.0000   1.0000   1.0000
     1.0000   1.0000   1.0000   1.0000   1.0000   1.0000   1.0000   1.0000
     1.0000   1.0000   1.0000   1.0000   1.0000   1.0000   1.0000   1.0000
     1.0000   1.0000   1.0000   1.0000   1.0000   1.0000   1.0000   1.0000
     1.0000   1.0000   1.0000   1.0000   1.0000   1.0000   1.0000   1.0000
     1.0000   1.0000   1.0000   1.0000   1.0000   1.0000   1.0000   1.0000
     1.0000   1.0000   1.0000   1.0000   1.0000   1.0000   1.0000   1.0000
     1.0000   1.0000   1.0000   1.0000   1.0000   1.0000   1.0000   1.0000
     1.0000   1.0000   1.0000   1.0000   1.0000   1.0000   1.0000   1.0000
     1.0000   1.0000   1.0000   1.0000   1.0000   1.0000   1.0000   1.0000
     1.0000   1.0000   1.0000   1.0000   1.0000   1.0000   1.0000   1.0000
     1.0000   1.0000   1.0000   1.0000   1.0000   1.0000   1.0000   1.0000
     1.0000   1.0000   1.0000   1.0000   1.0000   1.0000   1.0000   1.0000
     1.0000   1.0000   1.0000   1.0000   1.0000   1.0000   1.0000   1.0000
     1.0000   1.0000   1.0000   1.0000   1.0000   1.0000   1.0000   1.0000
     1.0000   1.0000   1.0000   1.0000   1.0000   1.0000   1.0000   1.0000
     1.0000   1.0000   1.0000   1.0001   1.0001   1.0004   0.6238   0.6237
     0.0588   0.0588   0.0136   0.0083   0.0083   0.0006   0.0006   0.0000
     0.0000   0.0000   0.0000   0.0000   0.0000   0.0000   0.0000   0.0000
     0.0000   0.0000   0.0000   0.0000   0.0000   0.0000   0.0000   0.0000
     0.0000   0.0000   0.0000   0.0000   0.0000   0.0000   0.0000   0.0000
     0.0000   0.0000   0.0000   0.0000   0.0000   0.0000   0.0000   0.0000
     0.0000   0.0000   0.0000   0.0000   0.0000   0.0000   0.0000   0.0000
     0.0000   0.0000   0.0000   0.0000   0.0000   0.0000   0.0000   0.0000
     0.0000   0.0000   0.0000   0.0000   0.0000   0.0000   0.0000   0.0000
     0.0000   0.0000   0.0000   0.0000   0.0000   0.0000   0.0000   0.0000
     0.0000   0.0000   0.0000   0.0000   0.0000   0.0000   0.0000   0.0000
     0.0000   0.0000   0.0000   0.0000   0.0000   0.0000   0.0000   0.0000
     0.0000   0.0000   0.0000   0.0000   0.0000   0.0000   0.0000   0.0000
     0.0000   0.0000   0.0000   0.0000   0.0000   0.0000   0.0000   0.0000
     0.0000   0.0000   0.0000   0.0000   0.0000   0.0000   0.0000   0.0000
     0.0000   0.0000   0.0000   0.0000   0.0000   0.0000   0.0000   0.0000
     0.0000   0.0000   0.0000   0.0000   0.0000   0.0000   0.0000   0.0000

          k = 0.3333 0.5774 0.0000 ( 42123 PWs)   bands (ev):

  -123.2851-123.2844-123.2839-123.2837-123.2831-123.2829-123.2827-123.2820
  -123.2817-123.2814-123.2811-123.2808-123.2806-123.2801-123.2799-123.2792
  -123.2354-123.2345-123.2339-123.2330-123.2329-123.2327-123.2323-123.2318
  -123.2316-123.2315-123.2309-123.2306-123.2302-123.2295-123.2292-123.2286
  -123.0878-123.0875-123.0872-123.0869-123.0867-123.0866-123.0865-123.0863
  -123.0861-123.0860-123.0858-123.0858-123.0854-123.0854-123.0853-123.0847
  -123.0503-123.0498-123.0496-123.0492-123.0489-123.0487-123.0485-123.0479
  -123.0478-123.0475-123.0474-123.0470-123.0468-123.0465-123.0465-123.0459
   -77.3909 -77.3903 -77.3898 -77.3834 -77.3831 -77.3825 -77.3824 -77.3816
   -77.3814 -77.3763 -77.3758 -77.3731 -77.3723 -77.3714 -77.3712 -77.3709
   -77.3706 -77.3705 -77.3699 -77.3698 -77.3691 -77.3684 -77.3680 -77.3676
   -77.3671 -77.3666 -77.3663 -77.3659 -77.3651 -77.3650 -77.3649 -77.3649
   -77.3643 -77.3596 -77.3595 -77.3594 -77.3570 -77.3562 -77.3558 -77.3554
   -77.3553 -77.3548 -77.3545 -77.3542 -77.3537 -77.3469 -77.3464 -77.3459
   -77.3402 -77.3396 -77.3389 -77.3329 -77.3326 -77.3319 -77.3317 -77.3307
   -77.3306 -77.3255 -77.3250 -77.3234 -77.3224 -77.3213 -77.3210 -77.3204
   -77.3203 -77.3199 -77.3198 -77.3191 -77.3190 -77.3182 -77.3174 -77.3172
   -77.3166 -77.3164 -77.3159 -77.3154 -77.3143 -77.3141 -77.3140 -77.3139
   -77.3135 -77.3088 -77.3085 -77.3084 -77.3067 -77.3057 -77.3049 -77.3048
   -77.3044 -77.3041 -77.3040 -77.3036 -77.3027 -77.2963 -77.2957 -77.2952
   -77.1916 -77.1914 -77.1913 -77.1839 -77.1839 -77.1837 -77.1836 -77.1834
   -77.1834 -77.1833 -77.1831 -77.1829 -77.1828 -77.1826 -77.1823 -77.1798
   -77.1797 -77.1795 -77.1793 -77.1792 -77.1791 -77.1784 -77.1782 -77.1778
   -77.1773 -77.1773 -77.1765 -77.1716 -77.1715 -77.1713 -77.1660 -77.1660
   -77.1660 -77.1603 -77.1603 -77.1603 -77.1571 -77.1570 -77.1568 -77.1567
   -77.1565 -77.1565 -77.1558 -77.1556 -77.1555 -77.1531 -77.1527 -77.1523
   -77.1477 -77.1475 -77.1474 -77.1472 -77.1466 -77.1460 -77.1458 -77.1457
   -77.1456 -77.1453 -77.1450 -77.1449 -77.1447 -77.1441 -77.1438 -77.1432
   -77.1429 -77.1424 -77.1423 -77.1420 -77.1416 -77.1412 -77.1409 -77.1403
   -77.1393 -77.1384 -77.1383 -77.1331 -77.1328 -77.1323 -77.1271 -77.1271
   -77.1271 -77.1216 -77.1216 -77.1215 -77.1189 -77.1184 -77.1180 -77.1178
   -77.1177 -77.1174 -77.1169 -77.1166 -77.1164 -77.1088 -77.1087 -77.1085
    -6.1123  -6.1082  -6.1048  -5.3789  -5.3782  -5.3775  -4.9039  -4.9033
    -4.9028  -4.8758  -4.8751  -4.8748  -4.8745  -4.8742  -4.8735  -4.8526
    -4.8498  -4.8474  -4.8133  -4.8129  -4.8121  -4.8119  -4.8111  -4.8107
    -4.7739  -4.7734  -4.7728  -4.7246  -4.7243  -4.7241  -4.7174  -4.7169
    -4.7168  -4.7001  -4.6997  -4.6992  -4.6991  -4.6987  -4.6982  -4.6594
    -4.6590  -4.6587  -4.6094  -4.6089  -4.6085  -4.6083  -4.6079  -4.6074
    -4.5487  -4.5485  -4.5481  -4.5479  -4.5474  -4.5472  -4.5441  -4.5441
    -4.5438  -4.5242  -4.5241  -4.5241  -4.5236  -4.5232  -4.5230  -4.4890
    -4.4889  -4.4884  -4.4881  -4.4876  -4.4875  -4.4873  -4.4870  -4.4868
    -4.4863  -4.4814  -4.4814  -4.4814  -4.4472  -4.4469  -4.4466  -4.4213
    -4.4212  -4.4212  -4.4022  -4.3958  -4.3835  -4.3829  -4.3822  -4.3670
    -4.3669  -4.3669  -4.3439  -4.3420  -4.3419  -4.3419  -4.3300  -4.3144
    -4.3139  -4.3137  -4.3125  -4.3119  -4.3117  -4.3117  -4.3113  -4.3110
    -4.3031  -4.3025  -4.3018  -4.2741  -4.2606  -4.2595  -4.2588  -4.2576
    -4.2373  -4.2368  -4.2363  -4.2235  -4.2235  -4.2235  -4.1998  -4.1998
    -4.1998  -4.1770  -4.1769  -4.1768  -4.1730  -4.1728  -4.1726  -4.1525
    -4.1524  -4.1520  -4.1518  -4.1514  -4.1513  -4.1333  -4.1330  -4.1329
    -4.1329  -4.1103  -4.1102  -4.1101  -4.0992  -4.0792  -4.0787  -4.0782
    -4.0732  -4.0727  -4.0721  -4.0675  -4.0665  -4.0657  -4.0302  -4.0191
    -4.0177  -4.0170  -4.0146  -4.0145  -4.0145  -4.0036  -4.0031  -4.0028
    -4.0010  -4.0007  -4.0004  -3.9782  -3.9776  -3.9775  -3.9773  -3.9771
    -3.9766  -3.9761  -3.9738  -3.9555  -3.9552  -3.9546  -3.9546  -3.9539
    -3.9536  -3.9399  -3.9393  -3.9115  -3.9115  -3.9115  -3.8854  -3.8853
    -3.8851  -3.8651  -3.8423  -3.8416  -3.8411  -3.8352  -3.8340  -3.8325
    -3.8097  -3.8095  -3.8091  -3.8091  -3.8088  -3.8085  -3.8054  -3.8054
    -3.8054  -3.7966  -3.7963  -3.7963  -3.7947  -3.7936  -3.7932  -3.7880
    -3.7877  -3.7875  -3.7872  -3.7723  -3.7717  -3.7715  -3.7714  -3.7712
    -3.7706  -3.7585  -3.7578  -3.7570  -3.7555  -3.7551  -3.7548  -3.7452
    -3.7450  -3.7446  -3.7445  -3.7441  -3.7439  -3.6817  -3.6814  -3.6809
    -3.6692  -3.6685  -3.6679  -3.6467  -3.6466  -3.6466  -3.6463  -3.6461
    -3.6459  -3.6459  -3.6457  -3.6455  -3.6436  -3.6385  -3.6382  -3.6380
    -3.6352  -3.6340  -3.6339  -3.6338  -3.6282  -3.6281  -3.6280  -3.6279
    -3.6279  -3.6277  -3.6253  -3.6251  -3.6249  -3.6163  -3.6163  -3.6163
    -3.5866  -3.5865  -3.5863  -3.5861  -3.5858  -3.5857  -3.5762  -3.5761
    -3.5758  -3.5758  -3.5755  -3.5754  -3.5670  -3.5670  -3.5670  -3.5670
    -3.5528  -3.5528  -3.5527  -3.5517  -3.5466  -3.5464  -3.5462  -3.5291
    -3.5291  -3.5289  -3.5220  -3.5218  -3.5216  -3.5146  -3.5146  -3.5146
    -3.5091  -3.5083  -3.5077  -3.5071  -3.5068  -3.5065  -3.5063  -3.5058
    -3.5057  -3.4921  -3.4917  -3.4913  -3.4790  -3.4789  -3.4788  -3.4483
    -3.4476  -3.4466  -3.3843  -3.3842  -3.3841  -3.3840  -3.3839  -3.3838
    -3.3455  -3.3452  -3.3451  -3.3450  -3.3448  -3.3445  -3.1275  -3.1275
    -3.1275  -2.7118  -2.7100  -2.7082  -2.5264  -2.5264  -2.5263  -1.6599
    -1.6583  -1.6574  -1.6570  -1.6561  -1.6545  -1.1278  -1.1278  -1.1276
    -0.8228  -0.8227  -0.8222  -0.8218  -0.8215  -0.8213  -0.8173  -0.8162
    -0.8138   0.6234   0.6239   0.6254   0.6260   0.6276   0.6280   0.7235
     0.7236   0.7237   1.7244   1.7256   1.7274   1.9250   1.9263   1.9272
     2.3308   2.3325   2.3345   2.3614   2.3619   2.3626   2.3642   2.3649
     2.3655   2.7747   2.7749   2.7753   3.0042   3.0048   3.0055   3.8971
     3.8972   3.8973   4.0694   4.1360   4.2021   4.4995   4.5036   4.5094
     4.8088   4.8105   4.8124   4.8783   4.9711   5.0432   5.0447   5.0463
     5.1220   5.7987   5.7996   5.8001   5.8015   5.8020   5.8029   6.0600
     6.0605   6.0629   6.2534   6.2539   6.2543   6.2554   6.2558   6.2563
     6.3636   6.3639   6.3639   6.4855   6.7588   6.7655   6.8156   6.8175
     6.8184   6.9429   6.9444   6.9469   7.0446   7.0464   7.0472   7.0490
     7.0498   7.0515   7.8418   7.8424   7.8433   7.8434   7.8606   7.8613
     7.8621   8.1231   8.1255   8.1284   8.1293   8.1324   8.1347   8.4963
     8.5247   8.5468   8.5483   8.5496   8.5509   8.5521   8.5538   8.7000
     8.7002   8.7003   8.9314   8.9331   8.9337   9.4649   9.4661   9.4678
     9.6512   9.6513   9.6514   9.6667   9.6677   9.6689   9.6867   9.6868
     9.6868   9.7106   9.7112   9.7120  10.3045  10.3062  10.3074  10.3086
    10.3095  10.3118  10.3720  10.3734  10.3756  10.6117  10.6138  10.6155
    10.6832  10.6836  10.6848  10.6853  10.6865  10.6870  10.8940  10.9339
    11.2414  11.2415  11.2416  11.4085  11.4086  11.4087  11.4931  11.4942
    11.4945  11.4951  11.4961  11.5323  11.5326  11.5338  11.5340  11.5351

     occupation numbers 
     1.0000   1.0000   1.0000   1.0000   1.0000   1.0000   1.0000   1.0000
     1.0000   1.0000   1.0000   1.0000   1.0000   1.0000   1.0000   1.0000
     1.0000   1.0000   1.0000   1.0000   1.0000   1.0000   1.0000   1.0000
     1.0000   1.0000   1.0000   1.0000   1.0000   1.0000   1.0000   1.0000
     1.0000   1.0000   1.0000   1.0000   1.0000   1.0000   1.0000   1.0000
     1.0000   1.0000   1.0000   1.0000   1.0000   1.0000   1.0000   1.0000
     1.0000   1.0000   1.0000   1.0000   1.0000   1.0000   1.0000   1.0000
     1.0000   1.0000   1.0000   1.0000   1.0000   1.0000   1.0000   1.0000
     1.0000   1.0000   1.0000   1.0000   1.0000   1.0000   1.0000   1.0000
     1.0000   1.0000   1.0000   1.0000   1.0000   1.0000   1.0000   1.0000
     1.0000   1.0000   1.0000   1.0000   1.0000   1.0000   1.0000   1.0000
     1.0000   1.0000   1.0000   1.0000   1.0000   1.0000   1.0000   1.0000
     1.0000   1.0000   1.0000   1.0000   1.0000   1.0000   1.0000   1.0000
     1.0000   1.0000   1.0000   1.0000   1.0000   1.0000   1.0000   1.0000
     1.0000   1.0000   1.0000   1.0000   1.0000   1.0000   1.0000   1.0000
     1.0000   1.0000   1.0000   1.0000   1.0000   1.0000   1.0000   1.0000
     1.0000   1.0000   1.0000   1.0000   1.0000   1.0000   1.0000   1.0000
     1.0000   1.0000   1.0000   1.0000   1.0000   1.0000   1.0000   1.0000
     1.0000   1.0000   1.0000   1.0000   1.0000   1.0000   1.0000   1.0000
     1.0000   1.0000   1.0000   1.0000   1.0000   1.0000   1.0000   1.0000
     1.0000   1.0000   1.0000   1.0000   1.0000   1.0000   1.0000   1.0000
     1.0000   1.0000   1.0000   1.0000   1.0000   1.0000   1.0000   1.0000
     1.0000   1.0000   1.0000   1.0000   1.0000   1.0000   1.0000   1.0000
     1.0000   1.0000   1.0000   1.0000   1.0000   1.0000   1.0000   1.0000
     1.0000   1.0000   1.0000   1.0000   1.0000   1.0000   1.0000   1.0000
     1.0000   1.0000   1.0000   1.0000   1.0000   1.0000   1.0000   1.0000
     1.0000   1.0000   1.0000   1.0000   1.0000   1.0000   1.0000   1.0000
     1.0000   1.0000   1.0000   1.0000   1.0000   1.0000   1.0000   1.0000
     1.0000   1.0000   1.0000   1.0000   1.0000   1.0000   1.0000   1.0000
     1.0000   1.0000   1.0000   1.0000   1.0000   1.0000   1.0000   1.0000
     1.0000   1.0000   1.0000   1.0000   1.0000   1.0000   1.0000   1.0000
     1.0000   1.0000   1.0000   1.0000   1.0000   1.0000   1.0000   1.0000
     1.0000   1.0000   1.0000   1.0000   1.0000   1.0000   1.0000   1.0000
     1.0000   1.0000   1.0000   1.0000   1.0000   1.0000   1.0000   1.0000
     1.0000   1.0000   1.0000   1.0000   1.0000   1.0000   1.0000   1.0000
     1.0000   1.0000   1.0000   1.0000   1.0000   1.0000   1.0000   1.0000
     1.0000   1.0000   1.0000   1.0000   1.0000   1.0000   1.0000   1.0000
     1.0000   1.0000   1.0000   1.0000   1.0000   1.0000   1.0000   1.0000
[...]
     atom   25 type  1   force =     0.00000000    0.00000000    0.00000000
     atom   26 type  1   force =     0.00000000    0.00000000    0.00000000
     atom   27 type  1   force =     0.00000000    0.00000000    0.00000000
     atom   28 type  1   force =     0.00000000    0.00000000    0.00000000
     atom   29 type  1   force =     0.00000000    0.00000000    0.00000000
     atom   30 type  1   force =     0.00000000    0.00000000    0.00000000
     atom   31 type  1   force =     0.00000000    0.00000000    0.00000000
     atom   32 type  1   force =     0.00000000    0.00000000    0.00000000
     atom   33 type  1   force =     0.00000000    0.00000000    0.00000000
     atom   34 type  1   force =     0.00000000    0.00000000    0.00000000
     atom   35 type  1   force =     0.00000000    0.00000000    0.00000000
     atom   36 type  1   force =     0.00000000    0.00000000    0.00000000
     atom   37 type  1   force =     0.00000000    0.00000000    0.00000000
     atom   38 type  1   force =     0.00000000    0.00000000    0.00000000
     atom   39 type  1   force =     0.00000000    0.00000000    0.00000000
     atom   40 type  1   force =     0.00000000    0.00000000    0.00000000
     atom   41 type  1   force =     0.00000000    0.00000000    0.00000000
     atom   42 type  1   force =     0.00000000    0.00000000    0.00000000
     atom   43 type  1   force =     0.00000000    0.00000000    0.00000000
     atom   44 type  1   force =     0.00000000    0.00000000    0.00000000
     atom   45 type  1   force =     0.00000000    0.00000000    0.00000000
     atom   46 type  1   force =     0.00000000    0.00000000    0.00000000
     atom   47 type  1   force =     0.00000000    0.00000000    0.00000000
     atom   48 type  1   force =     0.00000000    0.00000000    0.00000000
     atom   49 type  1   force =     0.00000000    0.00000000    0.00000000
     atom   50 type  1   force =     0.00000000    0.00000000    0.00000000
     atom   51 type  1   force =     0.00000000    0.00000000    0.00000000
     atom   52 type  1   force =     0.00000000    0.00000000    0.00000000
     atom   53 type  1   force =     0.00000000    0.00000000    0.00000000
     atom   54 type  1   force =     0.00000000    0.00000000    0.00000000
     atom   55 type  1   force =     0.00000000    0.00000000    0.00000000
     atom   56 type  1   force =     0.00000000    0.00000000    0.00000000
     atom   57 type  1   force =     0.00000000    0.00000000    0.00000000
     atom   58 type  1   force =     0.00000000    0.00000000    0.00000000
     atom   59 type  1   force =     0.00000000    0.00000000    0.00000000
     atom   60 type  1   force =     0.00000000    0.00000000    0.00000000
     atom   61 type  1   force =     0.00000000    0.00000000    0.00000000
     atom   62 type  1   force =     0.00000000    0.00000000    0.00000000
     atom   63 type  1   force =     0.00000000    0.00000000    0.00000000
     atom   64 type  1   force =     0.00000000    0.00000000    0.00000000
     The Hubbard contrib.    to forces
     atom    1 type  1   force =     0.00000000    0.00000000    0.00000000
     atom    2 type  1   force =     0.00000000    0.00000000    0.00000000
     atom    3 type  1   force =     0.00000000    0.00000000    0.00000000
     atom    4 type  1   force =     0.00000000    0.00000000    0.00000000
     atom    5 type  1   force =     0.00000000    0.00000000    0.00000000
     atom    6 type  1   force =     0.00000000    0.00000000    0.00000000
     atom    7 type  1   force =     0.00000000    0.00000000    0.00000000
     atom    8 type  1   force =     0.00000000    0.00000000    0.00000000
     atom    9 type  1   force =     0.00000000    0.00000000    0.00000000
     atom   10 type  1   force =     0.00000000    0.00000000    0.00000000
     atom   11 type  1   force =     0.00000000    0.00000000    0.00000000
     atom   12 type  1   force =     0.00000000    0.00000000    0.00000000
     atom   13 type  1   force =     0.00000000    0.00000000    0.00000000
     atom   14 type  1   force =     0.00000000    0.00000000    0.00000000
     atom   15 type  1   force =     0.00000000    0.00000000    0.00000000
     atom   16 type  1   force =     0.00000000    0.00000000    0.00000000
     atom   17 type  1   force =     0.00000000    0.00000000    0.00000000
     atom   18 type  1   force =     0.00000000    0.00000000    0.00000000
     atom   19 type  1   force =     0.00000000    0.00000000    0.00000000
     atom   20 type  1   force =     0.00000000    0.00000000    0.00000000
     atom   21 type  1   force =     0.00000000    0.00000000    0.00000000
     atom   22 type  1   force =     0.00000000    0.00000000    0.00000000
     atom   23 type  1   force =     0.00000000    0.00000000    0.00000000
     atom   24 type  1   force =     0.00000000    0.00000000    0.00000000
     atom   25 type  1   force =     0.00000000    0.00000000    0.00000000
     atom   26 type  1   force =     0.00000000    0.00000000    0.00000000
     atom   27 type  1   force =     0.00000000    0.00000000    0.00000000
     atom   28 type  1   force =     0.00000000    0.00000000    0.00000000
     atom   29 type  1   force =     0.00000000    0.00000000    0.00000000
     atom   30 type  1   force =     0.00000000    0.00000000    0.00000000
     atom   31 type  1   force =     0.00000000    0.00000000    0.00000000
     atom   32 type  1   force =     0.00000000    0.00000000    0.00000000
     atom   33 type  1   force =     0.00000000    0.00000000    0.00000000
     atom   34 type  1   force =     0.00000000    0.00000000    0.00000000
     atom   35 type  1   force =     0.00000000    0.00000000    0.00000000
     atom   36 type  1   force =     0.00000000    0.00000000    0.00000000
     atom   37 type  1   force =     0.00000000    0.00000000    0.00000000
     atom   38 type  1   force =     0.00000000    0.00000000    0.00000000
     atom   39 type  1   force =     0.00000000    0.00000000    0.00000000
     atom   40 type  1   force =     0.00000000    0.00000000    0.00000000
     atom   41 type  1   force =     0.00000000    0.00000000    0.00000000
     atom   42 type  1   force =     0.00000000    0.00000000    0.00000000
     atom   43 type  1   force =     0.00000000    0.00000000    0.00000000
     atom   44 type  1   force =     0.00000000    0.00000000    0.00000000
     atom   45 type  1   force =     0.00000000    0.00000000    0.00000000
     atom   46 type  1   force =     0.00000000    0.00000000    0.00000000
     atom   47 type  1   force =     0.00000000    0.00000000    0.00000000
     atom   48 type  1   force =     0.00000000    0.00000000    0.00000000
     atom   49 type  1   force =     0.00000000    0.00000000    0.00000000
     atom   50 type  1   force =     0.00000000    0.00000000    0.00000000
     atom   51 type  1   force =     0.00000000    0.00000000    0.00000000
     atom   52 type  1   force =     0.00000000    0.00000000    0.00000000
     atom   53 type  1   force =     0.00000000    0.00000000    0.00000000
     atom   54 type  1   force =     0.00000000    0.00000000    0.00000000
     atom   55 type  1   force =     0.00000000    0.00000000    0.00000000
     atom   56 type  1   force =     0.00000000    0.00000000    0.00000000
     atom   57 type  1   force =     0.00000000    0.00000000    0.00000000
     atom   58 type  1   force =     0.00000000    0.00000000    0.00000000
     atom   59 type  1   force =     0.00000000    0.00000000    0.00000000
     atom   60 type  1   force =     0.00000000    0.00000000    0.00000000
     atom   61 type  1   force =     0.00000000    0.00000000    0.00000000
     atom   62 type  1   force =     0.00000000    0.00000000    0.00000000
     atom   63 type  1   force =     0.00000000    0.00000000    0.00000000
     atom   64 type  1   force =     0.00000000    0.00000000    0.00000000
     The SCF correction term to forces
     atom    1 type  1   force =    -0.00002938   -0.00001297    0.00022175
     atom    2 type  1   force =     0.00002817   -0.00002324    0.00021466
     atom    3 type  1   force =     0.00000472    0.00000062   -0.00008716
     atom    4 type  1   force =    -0.00000398    0.00001528    0.00016758
     atom    5 type  1   force =     0.00017809   -0.00014730    0.00020765
     atom    6 type  1   force =    -0.00018010    0.00008307    0.00021801
     atom    7 type  1   force =    -0.00024245    0.00017323    0.00005026
     atom    8 type  1   force =     0.00024754   -0.00010402    0.00007260
     atom    9 type  1   force =     0.00001160    0.00000225    0.00020772
     atom   10 type  1   force =    -0.00000765    0.00003698    0.00021876
     atom   11 type  1   force =    -0.00000893   -0.00000605    0.00015298
     atom   12 type  1   force =     0.00000962   -0.00001019   -0.00003876
     atom   13 type  1   force =    -0.00019908    0.00013653    0.00021425
     atom   14 type  1   force =     0.00020053   -0.00007142    0.00021894
     atom   15 type  1   force =     0.00023576   -0.00017420    0.00004227
     atom   16 type  1   force =    -0.00023957    0.00010895    0.00005386
     atom   17 type  1   force =    -0.00020886    0.00008206    0.00021775
     atom   18 type  1   force =     0.00020870   -0.00011795    0.00021812
     atom   19 type  1   force =     0.00028128   -0.00010676    0.00004994
     atom   20 type  1   force =    -0.00028516    0.00012299    0.00004201
     atom   21 type  1   force =    -0.00003532   -0.00003266    0.00021559
     atom   22 type  1   force =     0.00003718   -0.00003324    0.00021024
     atom   23 type  1   force =     0.00004663    0.00005580   -0.00005262
     atom   24 type  1   force =    -0.00004773    0.00001315    0.00016727
     atom   25 type  1   force =     0.00016847   -0.00010014    0.00020975
     atom   26 type  1   force =    -0.00017240    0.00013860    0.00021585
     atom   27 type  1   force =    -0.00020060    0.00015484    0.00006267
     atom   28 type  1   force =     0.00020075   -0.00017209    0.00006101
     atom   29 type  1   force =     0.00000026    0.00000917    0.00021113
     atom   30 type  1   force =    -0.00000302    0.00005255    0.00022154
     atom   31 type  1   force =     0.00003386   -0.00000722    0.00015601
     atom   32 type  1   force =    -0.00003294   -0.00006221   -0.00006859
     atom   33 type  1   force =    -0.00003923    0.00001675   -0.00022722
     atom   34 type  1   force =     0.00002704   -0.00001822   -0.00002830
     atom   35 type  1   force =     0.00023425   -0.00012772   -0.00009563
     atom   36 type  1   force =    -0.00025149    0.00011608   -0.00015035
     atom   37 type  1   force =     0.00001602   -0.00003081   -0.00028389
     atom   38 type  1   force =    -0.00000994    0.00000188    0.00009368
     atom   39 type  1   force =    -0.00010601    0.00011474   -0.00007010
     atom   40 type  1   force =     0.00011874   -0.00005528   -0.00019453
     atom   41 type  1   force =     0.00001077    0.00000281   -0.00001009
     atom   42 type  1   force =    -0.00001053    0.00001293   -0.00014072
     atom   43 type  1   force =    -0.00021109    0.00015093   -0.00015650
     atom   44 type  1   force =     0.00020225   -0.00013002   -0.00011236
     atom   45 type  1   force =    -0.00000004    0.00000376    0.00005634
     atom   46 type  1   force =     0.00000964    0.00001120   -0.00024707
     atom   47 type  1   force =     0.00014973   -0.00010131   -0.00018072
     atom   48 type  1   force =    -0.00014031    0.00002819   -0.00007568
     atom   49 type  1   force =     0.00000880    0.00000546    0.00005751
     atom   50 type  1   force =     0.00000692   -0.00001638   -0.00031133
     atom   51 type  1   force =     0.00017539   -0.00006499   -0.00018513
     atom   52 type  1   force =    -0.00015719    0.00004136   -0.00006271
     atom   53 type  1   force =    -0.00000619    0.00001084   -0.00017551
     atom   54 type  1   force =    -0.00000210   -0.00002736   -0.00004410
     atom   55 type  1   force =     0.00025447   -0.00007089   -0.00011200
     atom   56 type  1   force =    -0.00026681    0.00014552   -0.00014784
     atom   57 type  1   force =     0.00002031    0.00000333   -0.00021773
     atom   58 type  1   force =    -0.00001863    0.00000108    0.00009330
     atom   59 type  1   force =    -0.00008892    0.00009871   -0.00009126
     atom   60 type  1   force =     0.00009619   -0.00009275   -0.00018978
     atom   61 type  1   force =     0.00003242    0.00000438    0.00000616
     atom   62 type  1   force =    -0.00003923    0.00001719   -0.00019596
     atom   63 type  1   force =    -0.00019364    0.00012141   -0.00015815
     atom   64 type  1   force =     0.00018472   -0.00017778   -0.00010440

     Total force =     0.030668     Total SCF correction =     0.001858


     Computing stress (Cartesian axis) and pressure

          total   stress  (Ry/bohr**3)                   (kbar)     P=     -304.11
  -0.00206568  -0.00000000   0.00000000         -303.87       -0.00        0.00
  -0.00000000  -0.00206568   0.00000000           -0.00     -303.87        0.00
   0.00000000   0.00000000  -0.00207052            0.00        0.00     -304.58

     kinetic stress (kbar)  16716.22     -0.00     -0.00
                               -0.00  16716.22      0.00
                               -0.00      0.00  16803.37

     local   stress (kbar)**********     -0.30     -0.19
                               -0.30**********      0.04
                               -0.19      0.041558742.76

     nonloc. stress (kbar)  -2011.83      0.00      0.00
                                0.00  -2011.83      0.00
                                0.00      0.00  -2075.86

     hartree stress (kbar) 806054.29      0.14      0.08
                                0.14 806054.48     -0.02
                                0.08     -0.02-732026.31

     exc-cor stress (kbar)  -8371.56      0.00      0.00
                                0.00  -8371.56     -0.00
                                0.00     -0.00  -8382.54

     corecor stress (kbar)      0.00      0.00      0.00
                                0.00      0.00      0.00
                                0.00      0.00      0.00

     ewald   stress (kbar) 726681.15      0.16      0.11
                                0.16 726681.37     -0.02
                                0.11     -0.02-833365.99

     hubbard stress (kbar)      0.00      0.00      0.00
                                0.00      0.00      0.00
                                0.00      0.00      0.00

     DFT-D   stress (kbar)      0.00      0.00      0.00
                                0.00      0.00      0.00
                                0.00      0.00      0.00

     XDM     stress (kbar)      0.00      0.00      0.00
                                0.00      0.00      0.00
                                0.00      0.00      0.00

     dft-nl  stress (kbar)      0.00      0.00      0.00
                                0.00      0.00      0.00
                                0.00      0.00      0.00

     TS-vdW  stress (kbar)      0.00      0.00      0.00
                                0.00      0.00      0.00
                                0.00      0.00      0.00

     MDB     stress (kbar)      0.00      0.00      0.00
                                0.00      0.00      0.00
                                0.00      0.00      0.00

     3D-RISM stress (kbar)      0.00      0.00      0.00
                                0.00      0.00      0.00
                                0.00      0.00      0.00


     Writing all to output data dir ./tmp/Zn002_2x2x4_scf.save/ :
     XML data file, charge density, pseudopotentials, collected wavefunctions

     init_run     :    118.07s CPU    119.15s WALL (       1 calls)
     electrons    :   6313.86s CPU   6366.54s WALL (       1 calls)
     forces       :    109.51s CPU    109.94s WALL (       1 calls)
     stress       :    306.62s CPU    307.61s WALL (       1 calls)

     Called by init_run:
     wfcinit      :    117.32s CPU    118.37s WALL (       1 calls)
     wfcinit:atom :      0.04s CPU      0.08s WALL (       5 calls)
     wfcinit:wfcr :    116.41s CPU    117.36s WALL (       5 calls)
     potinit      :      0.03s CPU      0.04s WALL (       1 calls)
     hinit0       :      0.02s CPU      0.03s WALL (       1 calls)

     Called by electrons:
     c_bands      :   5924.60s CPU   5972.72s WALL (      13 calls)
     sum_band     :    381.05s CPU    385.36s WALL (      13 calls)
     v_of_rho     :      0.42s CPU      0.46s WALL (      13 calls)
     v_h          :      0.02s CPU      0.02s WALL (      13 calls)
     v_xc         :      0.40s CPU      0.44s WALL (      13 calls)
     newd         :      8.37s CPU      8.57s WALL (      13 calls)
     mix_rho      :      0.06s CPU      0.07s WALL (      13 calls)

     Called by c_bands:
     init_us_2    :      3.13s CPU      3.15s WALL (     145 calls)
     cegterg      :   5916.01s CPU   5964.09s WALL (      65 calls)

     Called by sum_band:
     sum_band:wei :      0.05s CPU      0.05s WALL (      13 calls)
     sum_band:loo :    374.46s CPU    378.57s WALL (      13 calls)
     sum_band:buf :      0.63s CPU      0.64s WALL (      65 calls)
     sum_band:ini :      1.40s CPU      1.40s WALL (      65 calls)
     sum_band:cal :    341.17s CPU    342.38s WALL (      65 calls)
     sum_band:bec :      2.46s CPU      2.46s WALL (      65 calls)
     addusdens    :      6.29s CPU      6.48s WALL (      13 calls)
                                        0.00s GPU  (      13 calls)
     addusd:skk   :      0.06s CPU      0.06s WALL (      13 calls)
                                        0.00s GPU  (      13 calls)

     Called by *egterg:
     cdiaghg      :    490.20s CPU    504.45s WALL (     435 calls)
     cegterg:over :   1002.65s CPU   1005.38s WALL (     375 calls)
     cegterg:upda :    459.56s CPU    461.40s WALL (     375 calls)
     cegterg:last :   1385.18s CPU   1389.94s WALL (     130 calls)
     cdiaghg:chol :     36.06s CPU     36.15s WALL (     435 calls)
     cdiaghg:inve :      7.89s CPU      7.91s WALL (     435 calls)
     cdiaghg:para :    174.67s CPU    177.76s WALL (     870 calls)
     h_psi        :   1667.05s CPU   1688.50s WALL (     445 calls)
     s_psi        :    700.91s CPU    702.57s WALL (     445 calls)
     g_psi        :      0.60s CPU      0.61s WALL (     375 calls)

     Called by h_psi:
     h_psi:calbec :    830.66s CPU    833.64s WALL (     445 calls)
     vloc_psi     :    135.84s CPU    151.71s WALL (     445 calls)
     add_vuspsi   :    699.43s CPU    701.16s WALL (     445 calls)

     General routines
     calbec       :   1306.68s CPU   1311.35s WALL (     535 calls)
     fft          :      0.33s CPU      0.38s WALL (     152 calls)
     ffts         :      0.02s CPU      0.02s WALL (      13 calls)
     fftw         :    149.70s CPU    166.93s WALL (  290380 calls)

     Parallel routines

     PWSCF        :      1h54m CPU      1h55m WALL


   This run was terminated on:  17:40: 8  22Mar2025            

=------------------------------------------------------------------------------=
   JOB DONE.
=------------------------------------------------------------------------------=
Note: The following floating-point exceptions are signalling: IEEE_DENORMAL
Note: The following floating-point exceptions are signalling: IEEE_DENORMAL
Note: The following floating-point exceptions are signalling: IEEE_DENORMAL
Note: The following floating-point exceptions are signalling: IEEE_DENORMAL
Note: The following floating-point exceptions are signalling: IEEE_DENORMAL
Note: The following floating-point exceptions are signalling: IEEE_DENORMAL
Note: The following floating-point exceptions are signalling: IEEE_DENORMAL
