--------------------------------------------------------------------------
By default, for Open MPI 4.0 and later, infiniband ports on a device
are not used by default.  The intent is to use UCX for these devices.
You can override this policy by setting the btl_openib_allow_ib MCA parameter
to true.

  Local host:              psid01
  Local adapter:           mlx5_0
  Local port:              1

--------------------------------------------------------------------------
--------------------------------------------------------------------------
WARNING: There was an error initializing an OpenFabrics device.

  Local host:   psid01
  Local device: mlx5_0
--------------------------------------------------------------------------

     Program PWSCF v.7.3.1 starts on 22Mar2025 at 15:45:50 

     This program is part of the open-source Quantum ESPRESSO suite
     for quantum simulation of materials; please cite
         "P. Giannozzi et al., J. Phys.:Condens. Matter 21 395502 (2009);
         "P. Giannozzi et al., J. Phys.:Condens. Matter 29 465901 (2017);
         "P. Giannozzi et al., J. Chem. Phys. 152 154105 (2020);
          URL http://www.quantum-espresso.org", 
     in publications or presentations arising from this work. More details at
     http://www.quantum-espresso.org/quote

     Parallel version (MPI), running on    16 processors

     MPI processes distributed on     1 nodes
     45084 MiB available memory on the printing compute node when the environment starts

     Waiting for input...
     Reading input from standard input

     Current dimensions of program PWSCF are:
     Max number of different atomic species (ntypx) = 10
     Max number of k-points (npk) =  40000
     Max angular momentum in pseudopotentials (lmaxx) =  4

     R & G space division:  proc/nbgrp/npool/nimage =      16
     Subspace diagonalization in iterative solution of the eigenvalue problem:
     one sub-group per band group will be used
     custom distributed-memory algorithm (size of sub-group:  4*  4 procs)


     Parallelization info
     --------------------
     sticks:   dense  smooth     PW     G-vecs:    dense   smooth      PW
     Min         217     217     57                21998    21998    3007
     Max         218     218     58                22003    22003    3015
     Sum        3477    3477    923               351985   351985   48189

     Using Slab Decomposition



     bravais-lattice index     =            0
     lattice parameter (alat)  =      18.4179  a.u.
     unit-cell volume          =   15858.2170 (a.u.)^3
     number of atoms/cell      =           64
     number of atomic types    =            1
     number of electrons       =      1280.00
     number of Kohn-Sham states=          768
     kinetic-energy cutoff     =      30.0000  Ry
     charge density cutoff     =     120.0000  Ry
     scf convergence threshold =      7.3E-07
     mixing beta               =       0.7000
     number of iterations used =            8  plain     mixing
     Exchange-correlation= SLA  PW   PBE  PBE
                           (   1   4   3   4   0   0   0)

     celldm(1)=  18.417879  celldm(2)=   0.000000  celldm(3)=   0.000000
     celldm(4)=   0.000000  celldm(5)=   0.000000  celldm(6)=   0.000000

     crystal axes: (cart. coord. in units of alat)
               a(1) = (   1.000000   0.000000   0.000000 )  
               a(2) = (   0.000000   1.072963   0.000000 )  
               a(3) = (   0.000000  -1.365810   2.365652 )  

     reciprocal axes: (cart. coord. in units 2 pi/alat)
               b(1) = (  1.000000  0.000000 -0.000000 )  
               b(2) = ( -0.000000  0.931999  0.538090 )  
               b(3) = (  0.000000  0.000000  0.422716 )  


     PseudoPot. # 1 for Zn read from file:
     /home/ys/qepseudo/SSSP_1.3.0_PBE_efficiency/Zn_pbe_v1.uspp.F.UPF
     MD5 check sum: df62231357ef9e81f77b2b3087fa5675
     Pseudo is Ultrasoft, Zval = 20.0
     Generated by new atomic code, or converted to UPF format
     Using radial grid of  943 points,  6 beta functions with: 
                l(1) =   0
                l(2) =   0
                l(3) =   1
                l(4) =   1
                l(5) =   2
                l(6) =   2
     Q(r) pseudized with  8 coefficients,  rinner =    1.100   1.100   1.100
                                                       1.100   1.100

     atomic species   valence    mass     pseudopotential
     Zn               20.00    65.38000     Zn( 1.00)

     No symmetry found


                                    s                        frac. trans.

      isym =  1     identity                                     

 cryst.   s( 1) = (     1          0          0      )
                  (     0          1          0      )
                  (     0          0          1      )

 cart.    s( 1) = (  1.0000000  0.0000000  0.0000000 )
                  (  0.0000000  1.0000000 -0.0000000 )
                  (  0.0000000  0.0000000  1.0000000 )


   Cartesian axes

     site n.     atom                  positions (alat units)
         1        Zn     tau(   1) = (   0.1250000   0.1341203   0.0774344  )
         2        Zn     tau(   2) = (   0.1250000   0.6706017   0.0774344  )
         3        Zn     tau(   3) = (   0.1250000   0.0000000   0.3097376  )
         4        Zn     tau(   4) = (   0.1250000   0.5364813   0.3097376  )
         5        Zn     tau(   5) = (   0.1250290  -0.1341417   0.5820584  )
         6        Zn     tau(   6) = (   0.1250405   0.4023616   0.5819647  )
         7        Zn     tau(   7) = (   0.1250408  -0.2682706   0.8528810  )
         8        Zn     tau(   8) = (   0.1250466   0.2682807   0.8528293  )
         9        Zn     tau(   9) = (   0.1250000   0.4023610   0.0774344  )
        10        Zn     tau(  10) = (   0.1250000   0.9388423   0.0774344  )
        11        Zn     tau(  11) = (   0.1250000   0.2682407   0.3097376  )
        12        Zn     tau(  12) = (   0.1250000   0.8047220   0.3097376  )
        13        Zn     tau(  13) = (   0.1250408   0.1341312   0.5819983  )
        14        Zn     tau(  14) = (   0.1250279   0.6705889   0.5820360  )
        15        Zn     tau(  15) = (   0.1250442  -0.0000368   0.8528823  )
        16        Zn     tau(  16) = (   0.1250426   0.5365266   0.8528201  )
        17        Zn     tau(  17) = (   0.6250000   0.1341203   0.0774344  )
        18        Zn     tau(  18) = (   0.6250000   0.6706017   0.0774344  )
        19        Zn     tau(  19) = (   0.6250000   0.0000000   0.3097376  )
        20        Zn     tau(  20) = (   0.6250000   0.5364813   0.3097376  )
        21        Zn     tau(  21) = (   0.6249675  -0.1341249   0.5822560  )
        22        Zn     tau(  22) = (   0.6249625   0.4023466   0.5821830  )
        23        Zn     tau(  23) = (   0.6249647  -0.2682775   0.8528614  )
        24        Zn     tau(  24) = (   0.6249499   0.2682885   0.8528196  )
        25        Zn     tau(  25) = (   0.6250000   0.4023610   0.0774344  )
        26        Zn     tau(  26) = (   0.6250000   0.9388423   0.0774344  )
        27        Zn     tau(  27) = (   0.6250000   0.2682407   0.3097376  )
        28        Zn     tau(  28) = (   0.6250000   0.8047220   0.3097376  )
        29        Zn     tau(  29) = (   0.6249643   0.1341641   0.5822135  )
        30        Zn     tau(  30) = (   0.6249672   0.6705553   0.5822335  )
        31        Zn     tau(  31) = (   0.6249591  -0.0000159   0.8528717  )
        32        Zn     tau(  32) = (   0.6249573   0.5365055   0.8528056  )
        33        Zn     tau(  33) = (   0.3750000  -0.0000000   0.1548688  )
        34        Zn     tau(  34) = (   0.3750000   0.5364813   0.1548688  )
        35        Zn     tau(  35) = (   0.3750000  -0.1341203   0.3871721  )
        36        Zn     tau(  36) = (   0.3750000   0.4023610   0.3871721  )
        37        Zn     tau(  37) = (   0.3749795  -0.2682828   0.6236034  )
        38        Zn     tau(  38) = (   0.3749869   0.2682730   0.6235323  )
        39        Zn     tau(  39) = (   0.3751136  -0.4023763   0.8687437  )
        40        Zn     tau(  40) = (   0.3751189   0.1341221   0.8687719  )
        41        Zn     tau(  41) = (   0.3750000   0.2682407   0.1548688  )
        42        Zn     tau(  42) = (   0.3750000   0.8047220   0.1548688  )
        43        Zn     tau(  43) = (   0.3750000   0.1341203   0.3871721  )
        44        Zn     tau(  44) = (   0.3750000   0.6706017   0.3871721  )
        45        Zn     tau(  45) = (   0.3749870   0.0000171   0.6235532  )
        46        Zn     tau(  46) = (   0.3749914   0.5364504   0.6235764  )
        47        Zn     tau(  47) = (   0.3751105  -0.1341730   0.8687759  )
        48        Zn     tau(  48) = (   0.3751210   0.4023978   0.8687386  )
        49        Zn     tau(  49) = (   0.8750000  -0.0000000   0.1548688  )
        50        Zn     tau(  50) = (   0.8750000   0.5364813   0.1548688  )
        51        Zn     tau(  51) = (   0.8750000  -0.1341203   0.3871721  )
        52        Zn     tau(  52) = (   0.8750000   0.4023610   0.3871721  )
        53        Zn     tau(  53) = (   0.8750137  -0.2682816   0.6236127  )
        54        Zn     tau(  54) = (   0.8750145   0.2682702   0.6235379  )
        55        Zn     tau(  55) = (   0.8748930  -0.4023645   0.8688529  )
        56        Zn     tau(  56) = (   0.8748831   0.1341076   0.8688814  )
        57        Zn     tau(  57) = (   0.8750000   0.2682407   0.1548688  )
        58        Zn     tau(  58) = (   0.8750000   0.8047220   0.1548688  )
        59        Zn     tau(  59) = (   0.8750000   0.1341203   0.3871721  )
        60        Zn     tau(  60) = (   0.8750000   0.6706017   0.3871721  )
        61        Zn     tau(  61) = (   0.8750191  -0.0000014   0.6235616  )
        62        Zn     tau(  62) = (   0.8750146   0.5364705   0.6235843  )
        63        Zn     tau(  63) = (   0.8748974  -0.1341803   0.8688835  )
        64        Zn     tau(  64) = (   0.8748800   0.4024084   0.8688483  )

   Crystallographic axes

     site n.     atom                  positions (cryst. coord.)
         1        Zn     tau(   1) = (  0.1250000  0.1666667  0.0327328  )
         2        Zn     tau(   2) = (  0.1250000  0.6666667  0.0327328  )
         3        Zn     tau(   3) = (  0.1250000  0.1666667  0.1309312  )
         4        Zn     tau(   4) = (  0.1250000  0.6666667  0.1309312  )
         5        Zn     tau(   5) = (  0.1250290  0.1881798  0.2460456  )
         6        Zn     tau(   6) = (  0.1250405  0.6881498  0.2460060  )
         7        Zn     tau(   7) = (  0.1250408  0.2088987  0.3605268  )
         8        Zn     tau(   8) = (  0.1250466  0.7089361  0.3605049  )
         9        Zn     tau(   9) = (  0.1250000  0.4166667  0.0327328  )
        10        Zn     tau(  10) = (  0.1250000  0.9166667  0.0327328  )
        11        Zn     tau(  11) = (  0.1250000  0.4166667  0.1309312  )
        12        Zn     tau(  12) = (  0.1250000  0.9166667  0.1309312  )
        13        Zn     tau(  13) = (  0.1250408  0.4381774  0.2460202  )
        14        Zn     tau(  14) = (  0.1250279  0.9381757  0.2460362  )
        15        Zn     tau(  15) = (  0.1250442  0.4588930  0.3605273  )
        16        Zn     tau(  16) = (  0.1250426  0.9589360  0.3605011  )
        17        Zn     tau(  17) = (  0.6250000  0.1666667  0.0327328  )
        18        Zn     tau(  18) = (  0.6250000  0.6666667  0.0327328  )
        19        Zn     tau(  19) = (  0.6250000  0.1666667  0.1309312  )
        20        Zn     tau(  20) = (  0.6250000  0.6666667  0.1309312  )
        21        Zn     tau(  21) = (  0.6249675  0.1883018  0.2461292  )
        22        Zn     tau(  22) = (  0.6249625  0.6882533  0.2460983  )
        23        Zn     tau(  23) = (  0.6249647  0.2088817  0.3605185  )
        24        Zn     tau(  24) = (  0.6249499  0.7089381  0.3605008  )
        25        Zn     tau(  25) = (  0.6250000  0.4166667  0.0327328  )
        26        Zn     tau(  26) = (  0.6250000  0.9166667  0.0327328  )
        27        Zn     tau(  27) = (  0.6250000  0.4166667  0.1309312  )
        28        Zn     tau(  28) = (  0.6250000  0.9166667  0.1309312  )
        29        Zn     tau(  29) = (  0.6249643  0.4383239  0.2461112  )
        30        Zn     tau(  30) = (  0.6249672  0.9382507  0.2461196  )
        31        Zn     tau(  31) = (  0.6249591  0.4589067  0.3605228  )
        32        Zn     tau(  32) = (  0.6249573  0.9589085  0.3604949  )
        33        Zn     tau(  33) = (  0.3750000  0.0833333  0.0654656  )
        34        Zn     tau(  34) = (  0.3750000  0.5833333  0.0654656  )
        35        Zn     tau(  35) = (  0.3750000  0.0833333  0.1636640  )
        36        Zn     tau(  36) = (  0.3750000  0.5833333  0.1636640  )
        37        Zn     tau(  37) = (  0.3749795  0.0855154  0.2636074  )
        38        Zn     tau(  38) = (  0.3749869  0.5855465  0.2635773  )
        39        Zn     tau(  39) = (  0.3751136  0.0924479  0.3672322  )
        40        Zn     tau(  40) = (  0.3751189  0.5924790  0.3672441  )
        41        Zn     tau(  41) = (  0.3750000  0.3333333  0.0654656  )
        42        Zn     tau(  42) = (  0.3750000  0.8333333  0.0654656  )
        43        Zn     tau(  43) = (  0.3750000  0.3333333  0.1636640  )
        44        Zn     tau(  44) = (  0.3750000  0.8333333  0.1636640  )
        45        Zn     tau(  45) = (  0.3749870  0.3355436  0.2635862  )
        46        Zn     tau(  46) = (  0.3749914  0.8355113  0.2635959  )
        47        Zn     tau(  47) = (  0.3751105  0.3424304  0.3672458  )
        48        Zn     tau(  48) = (  0.3751210  0.8424936  0.3672300  )
        49        Zn     tau(  49) = (  0.8750000  0.0833333  0.0654656  )
        50        Zn     tau(  50) = (  0.8750000  0.5833333  0.0654656  )
        51        Zn     tau(  51) = (  0.8750000  0.0833333  0.1636640  )
        52        Zn     tau(  52) = (  0.8750000  0.5833333  0.1636640  )
        53        Zn     tau(  53) = (  0.8750137  0.0855215  0.2636113  )
        54        Zn     tau(  54) = (  0.8750145  0.5855469  0.2635797  )
        55        Zn     tau(  55) = (  0.8748930  0.0925177  0.3672784  )
        56        Zn     tau(  56) = (  0.8748831  0.5925243  0.3672904  )
        57        Zn     tau(  57) = (  0.8750000  0.3333333  0.0654656  )
        58        Zn     tau(  58) = (  0.8750000  0.8333333  0.0654656  )
        59        Zn     tau(  59) = (  0.8750000  0.3333333  0.1636640  )
        60        Zn     tau(  60) = (  0.8750000  0.8333333  0.1636640  )
        61        Zn     tau(  61) = (  0.8750191  0.3355308  0.2635897  )
        62        Zn     tau(  62) = (  0.8750146  0.8355343  0.2635993  )
        63        Zn     tau(  63) = (  0.8748974  0.3424815  0.3672913  )
        64        Zn     tau(  64) = (  0.8748800  0.8425626  0.3672764  )

     number of k points=     5  Marzari-Vanderbilt smearing, width (Ry)=  0.0200
                       cart. coord. in units 2pi/alat
        k(    1) = (   0.0000000   0.0000000   0.0000000), wk =   0.2222222
        k(    2) = (   0.0000000   0.3106663   0.1793633), wk =   0.4444444
        k(    3) = (   0.3333333   0.0000000   0.0000000), wk =   0.4444444
        k(    4) = (   0.3333333   0.3106663   0.1793633), wk =   0.4444444
        k(    5) = (   0.3333333  -0.3106663  -0.1793633), wk =   0.4444444

                       cryst. coord.
        k(    1) = (   0.0000000   0.0000000   0.0000000), wk =   0.2222222
        k(    2) = (   0.0000000   0.3333333  -0.0000000), wk =   0.4444444
        k(    3) = (   0.3333333   0.0000000   0.0000000), wk =   0.4444444
        k(    4) = (   0.3333333   0.3333333  -0.0000000), wk =   0.4444444
        k(    5) = (   0.3333333  -0.3333333   0.0000000), wk =   0.4444444

     Dense  grid:   351985 G-vectors     FFT dimensions: (  72,  72, 180)

     Dynamical RAM for                 wfc:      32.23 MB

     Dynamical RAM for     wfc (w. buffer):     193.36 MB

     Dynamical RAM for           str. fact:       0.34 MB

     Dynamical RAM for           local pot:       0.00 MB

     Dynamical RAM for          nlocal pot:      48.34 MB

     Dynamical RAM for                qrad:       0.88 MB

     Dynamical RAM for          rho,v,vnew:       2.43 MB

     Dynamical RAM for               rhoin:       0.81 MB

     Dynamical RAM for            rho*nmix:       5.37 MB

     Dynamical RAM for           G-vectors:       1.43 MB

     Dynamical RAM for          h,s,v(r/c):       6.75 MB

     Dynamical RAM for          <psi|beta>:      13.50 MB

     Dynamical RAM for                 psi:      64.45 MB

     Dynamical RAM for                hpsi:      64.45 MB

     Dynamical RAM for                spsi:      64.45 MB

     Dynamical RAM for      wfcinit/wfcrot:      85.67 MB

     Dynamical RAM for           addusdens:      83.92 MB

     Dynamical RAM for          addusforce:     126.64 MB

     Dynamical RAM for         addusstress:      67.47 MB

     Estimated static dynamical RAM per process >     250.63 MB

     Estimated max dynamical RAM per process >     469.61 MB

     Estimated total dynamical RAM >       7.34 GB

     Initial potential from superposition of free atoms

     starting charge    1279.9910, renormalised to    1280.0000

     negative rho (up, down):  1.578E-03 0.000E+00
     Starting wfcs are  832 randomized atomic wfcs
[psid01:198350] 15 more processes have sent help message help-mpi-btl-openib.txt / ib port not selected
[psid01:198350] Set MCA parameter "orte_base_help_aggregate" to 0 to see all help / error messages
[psid01:198350] 15 more processes have sent help message help-mpi-btl-openib.txt / error in device init

     total cpu time spent up to now is      133.3 secs

     Self-consistent Calculation

     iteration #  1     ecut=    30.00 Ry     beta= 0.70
     Davidson diagonalization with overlap

---- Real-time Memory Report at c_bands before calling an iterative solver
           342 MiB given to the printing process from OS
             0 MiB allocation reported by mallinfo(arena+hblkhd)
         36932 MiB available memory on the node where the printing process lives
------------------
     ethr =  1.00E-02,  avg # of iterations =  7.8

     Threshold (ethr) on eigenvalues was too large:
     Diagonalizing with lowered threshold

     Davidson diagonalization with overlap

---- Real-time Memory Report at c_bands before calling an iterative solver
           503 MiB given to the printing process from OS
             0 MiB allocation reported by mallinfo(arena+hblkhd)
         36831 MiB available memory on the node where the printing process lives
------------------
     ethr =  1.81E-04,  avg # of iterations =  8.0

     negative rho (up, down):  5.922E-03 0.000E+00

     total cpu time spent up to now is     1135.7 secs

     total energy              =  -29533.85640887 Ry
     estimated scf accuracy    <       2.51232477 Ry

     iteration #  2     ecut=    30.00 Ry     beta= 0.70
     Davidson diagonalization with overlap

---- Real-time Memory Report at c_bands before calling an iterative solver
           503 MiB given to the printing process from OS
             0 MiB allocation reported by mallinfo(arena+hblkhd)
         36789 MiB available memory on the node where the printing process lives
------------------
     ethr =  1.96E-04,  avg # of iterations =  4.4

     negative rho (up, down):  7.044E-03 0.000E+00

     total cpu time spent up to now is     1784.6 secs

     total energy              =  -29533.84320723 Ry
     estimated scf accuracy    <       6.13539431 Ry

     iteration #  3     ecut=    30.00 Ry     beta= 0.70
     Davidson diagonalization with overlap

---- Real-time Memory Report at c_bands before calling an iterative solver
           508 MiB given to the printing process from OS
             0 MiB allocation reported by mallinfo(arena+hblkhd)
         36710 MiB available memory on the node where the printing process lives
------------------
     ethr =  1.96E-04,  avg # of iterations =  9.0

     negative rho (up, down):  7.277E-03 0.000E+00

     total cpu time spent up to now is     2438.7 secs

     total energy              =  -29532.58183400 Ry
     estimated scf accuracy    <      64.18560241 Ry

     iteration #  4     ecut=    30.00 Ry     beta= 0.70
     Davidson diagonalization with overlap

---- Real-time Memory Report at c_bands before calling an iterative solver
           508 MiB given to the printing process from OS
             0 MiB allocation reported by mallinfo(arena+hblkhd)
         37176 MiB available memory on the node where the printing process lives
------------------
     ethr =  1.96E-04,  avg # of iterations =  8.2

     negative rho (up, down):  8.272E-03 0.000E+00

     total cpu time spent up to now is     2940.9 secs

     total energy              =  -29535.15004351 Ry
     estimated scf accuracy    <       0.14679207 Ry

     iteration #  5     ecut=    30.00 Ry     beta= 0.70
     Davidson diagonalization with overlap

---- Real-time Memory Report at c_bands before calling an iterative solver
           508 MiB given to the printing process from OS
             0 MiB allocation reported by mallinfo(arena+hblkhd)
         36677 MiB available memory on the node where the printing process lives
------------------
     ethr =  1.15E-05,  avg # of iterations = 13.6

     negative rho (up, down):  9.647E-03 0.000E+00

     total cpu time spent up to now is     3513.9 secs

     total energy              =  -29535.13738729 Ry
     estimated scf accuracy    <       0.77257930 Ry

     iteration #  6     ecut=    30.00 Ry     beta= 0.70
     Davidson diagonalization with overlap

---- Real-time Memory Report at c_bands before calling an iterative solver
           508 MiB given to the printing process from OS
             0 MiB allocation reported by mallinfo(arena+hblkhd)
         36663 MiB available memory on the node where the printing process lives
------------------
     ethr =  1.15E-05,  avg # of iterations = 11.8

     negative rho (up, down):  9.869E-03 0.000E+00

     total cpu time spent up to now is     4018.8 secs

     total energy              =  -29535.20148895 Ry
     estimated scf accuracy    <       0.00554397 Ry

     iteration #  7     ecut=    30.00 Ry     beta= 0.70
     Davidson diagonalization with overlap

---- Real-time Memory Report at c_bands before calling an iterative solver
           509 MiB given to the printing process from OS
             0 MiB allocation reported by mallinfo(arena+hblkhd)
         36647 MiB available memory on the node where the printing process lives
------------------
     ethr =  4.33E-07,  avg # of iterations =  6.0

     negative rho (up, down):  9.952E-03 0.000E+00

     total cpu time spent up to now is     4569.6 secs

     total energy              =  -29535.20265253 Ry
     estimated scf accuracy    <       0.00119031 Ry

     iteration #  8     ecut=    30.00 Ry     beta= 0.70
     Davidson diagonalization with overlap

---- Real-time Memory Report at c_bands before calling an iterative solver
           509 MiB given to the printing process from OS
             0 MiB allocation reported by mallinfo(arena+hblkhd)
         39610 MiB available memory on the node where the printing process lives
------------------
     ethr =  9.30E-08,  avg # of iterations =  2.0

     negative rho (up, down):  9.981E-03 0.000E+00

     total cpu time spent up to now is     5017.8 secs

     total energy              =  -29535.20283019 Ry
     estimated scf accuracy    <       0.00019224 Ry

     iteration #  9     ecut=    30.00 Ry     beta= 0.70
     Davidson diagonalization with overlap

---- Real-time Memory Report at c_bands before calling an iterative solver
           512 MiB given to the printing process from OS
             0 MiB allocation reported by mallinfo(arena+hblkhd)
         36597 MiB available memory on the node where the printing process lives
------------------
     ethr =  1.50E-08,  avg # of iterations =  2.0

     negative rho (up, down):  9.985E-03 0.000E+00

     total cpu time spent up to now is     5519.0 secs

     total energy              =  -29535.20284963 Ry
     estimated scf accuracy    <       0.00005842 Ry

     iteration # 10     ecut=    30.00 Ry     beta= 0.70
     Davidson diagonalization with overlap

---- Real-time Memory Report at c_bands before calling an iterative solver
           512 MiB given to the printing process from OS
             0 MiB allocation reported by mallinfo(arena+hblkhd)
         39560 MiB available memory on the node where the printing process lives
------------------
     ethr =  4.56E-09,  avg # of iterations =  2.0

     negative rho (up, down):  9.986E-03 0.000E+00

     total cpu time spent up to now is     5972.6 secs

     total energy              =  -29535.20285464 Ry
     estimated scf accuracy    <       0.00010215 Ry

     iteration # 11     ecut=    30.00 Ry     beta= 0.70
     Davidson diagonalization with overlap

---- Real-time Memory Report at c_bands before calling an iterative solver
           512 MiB given to the printing process from OS
             0 MiB allocation reported by mallinfo(arena+hblkhd)
         38487 MiB available memory on the node where the printing process lives
------------------
     ethr =  4.56E-09,  avg # of iterations =  2.0

     negative rho (up, down):  9.984E-03 0.000E+00

     total cpu time spent up to now is     6411.4 secs

     total energy              =  -29535.20286453 Ry
     estimated scf accuracy    <       0.00000972 Ry

     iteration # 12     ecut=    30.00 Ry     beta= 0.70
     Davidson diagonalization with overlap

---- Real-time Memory Report at c_bands before calling an iterative solver
           512 MiB given to the printing process from OS
             0 MiB allocation reported by mallinfo(arena+hblkhd)
         39548 MiB available memory on the node where the printing process lives
------------------
     ethr =  7.60E-10,  avg # of iterations =  2.0

     negative rho (up, down):  9.981E-03 0.000E+00

     total cpu time spent up to now is     6823.8 secs

     total energy              =  -29535.20286552 Ry
     estimated scf accuracy    <       0.00000899 Ry

     iteration # 13     ecut=    30.00 Ry     beta= 0.70
     Davidson diagonalization with overlap

---- Real-time Memory Report at c_bands before calling an iterative solver
           512 MiB given to the printing process from OS
             0 MiB allocation reported by mallinfo(arena+hblkhd)
         36626 MiB available memory on the node where the printing process lives
------------------
     ethr =  7.02E-10,  avg # of iterations =  2.0

     negative rho (up, down):  9.982E-03 0.000E+00

     total cpu time spent up to now is     7199.4 secs

     total energy              =  -29535.20286632 Ry
     estimated scf accuracy    <       0.00000456 Ry

     iteration # 14     ecut=    30.00 Ry     beta= 0.70
     Davidson diagonalization with overlap

---- Real-time Memory Report at c_bands before calling an iterative solver
           512 MiB given to the printing process from OS
             0 MiB allocation reported by mallinfo(arena+hblkhd)
         41884 MiB available memory on the node where the printing process lives
------------------
     ethr =  3.57E-10,  avg # of iterations =  1.0

     negative rho (up, down):  9.981E-03 0.000E+00

     total cpu time spent up to now is     7505.5 secs

     total energy              =  -29535.20286661 Ry
     estimated scf accuracy    <       0.00000264 Ry

     iteration # 15     ecut=    30.00 Ry     beta= 0.70
     Davidson diagonalization with overlap

---- Real-time Memory Report at c_bands before calling an iterative solver
           512 MiB given to the printing process from OS
             0 MiB allocation reported by mallinfo(arena+hblkhd)
         41883 MiB available memory on the node where the printing process lives
------------------
     ethr =  2.06E-10,  avg # of iterations =  1.0

     negative rho (up, down):  9.981E-03 0.000E+00

     total cpu time spent up to now is     7811.4 secs

     End of self-consistent calculation

          k = 0.0000 0.0000 0.0000 ( 44003 PWs)   bands (ev):

  -123.6189-123.6174-123.6174-123.6167-123.6167-123.6165-123.6164-123.6164
  -123.5548-123.5535-123.5534-123.5528-123.5527-123.5521-123.5520-123.5517
  -123.5458-123.5444-123.5444-123.5437-123.5434-123.5434-123.5433-123.5432
  -123.4341-123.4326-123.4326-123.4320-123.4318-123.4317-123.4316-123.4314
  -123.4274-123.4260-123.4259-123.4252-123.4252-123.4251-123.4249-123.4249
  -123.3911-123.3897-123.3897-123.3890-123.3888-123.3887-123.3887-123.3886
  -123.3423-123.3410-123.3410-123.3404-123.3401-123.3397-123.3395-123.3391
  -123.2725-123.2713-123.2712-123.2707-123.2697-123.2694-123.2692-123.2689
   -77.7212 -77.7183 -77.7117 -77.7104 -77.7103 -77.7101 -77.7100 -77.7098
   -77.7098 -77.7093 -77.7080 -77.7046 -77.7045 -77.7006 -77.7006 -77.6987
   -77.6984 -77.6983 -77.6974 -77.6970 -77.6970 -77.6967 -77.6893 -77.6825
   -77.6548 -77.6519 -77.6475 -77.6467 -77.6454 -77.6453 -77.6452 -77.6449
   -77.6444 -77.6444 -77.6437 -77.6426 -77.6422 -77.6421 -77.6420 -77.6408
   -77.6396 -77.6383 -77.6375 -77.6375 -77.6371 -77.6370 -77.6363 -77.6363
   -77.6362 -77.6358 -77.6350 -77.6343 -77.6343 -77.6338 -77.6329 -77.6329
   -77.6326 -77.6326 -77.6318 -77.6308 -77.6296 -77.6296 -77.6289 -77.6255
   -77.6244 -77.6244 -77.6244 -77.6220 -77.6220 -77.6197 -77.6134 -77.6019
   -77.5363 -77.5357 -77.5340 -77.5309 -77.5309 -77.5286 -77.5272 -77.5263
   -77.5242 -77.5241 -77.5236 -77.5236 -77.5226 -77.5217 -77.5217 -77.5206
   -77.5205 -77.5183 -77.5183 -77.5180 -77.5180 -77.5170 -77.5162 -77.5156
   -77.5156 -77.5155 -77.5148 -77.5148 -77.5140 -77.5140 -77.5136 -77.5136
   -77.5133 -77.5126 -77.5126 -77.5119 -77.5109 -77.5109 -77.5103 -77.5095
   -77.5082 -77.5082 -77.5065 -77.5065 -77.5057 -77.5011 -77.5007 -77.5007
   -77.5003 -77.5003 -77.5001 -77.4987 -77.4985 -77.4982 -77.4979 -77.4907
   -77.4849 -77.4823 -77.4761 -77.4715 -77.4715 -77.4650 -77.4645 -77.4645
   -77.4641 -77.4640 -77.4636 -77.4634 -77.4627 -77.4626 -77.4543 -77.4440
   -77.4424 -77.4412 -77.4397 -77.4397 -77.4395 -77.4388 -77.4387 -77.4384
   -77.4382 -77.4366 -77.4308 -77.4262 -77.4262 -77.4218 -77.4218 -77.4201
   -77.4197 -77.4197 -77.4190 -77.4186 -77.4185 -77.4178 -77.4114 -77.4047
   -77.3711 -77.3688 -77.3681 -77.3669 -77.3668 -77.3663 -77.3663 -77.3659
   -77.3656 -77.3654 -77.3652 -77.3650 -77.3637 -77.3604 -77.3586 -77.3585
   -77.3581 -77.3578 -77.3482 -77.3482 -77.3455 -77.3455 -77.3377 -77.3272
    -6.7771  -5.8717  -5.7140  -5.5060  -5.5060  -5.4249  -5.2785  -5.2147
    -5.2040  -5.1521  -5.1255  -5.1252  -5.1174  -5.1014  -5.1003  -5.0994
    -5.0977  -5.0517  -5.0484  -5.0331  -5.0331  -4.9753  -4.9738  -4.9738
    -4.9643  -4.9535  -4.9505  -4.9444  -4.9427  -4.9427  -4.9236  -4.9161
    -4.9131  -4.9131  -4.9105  -4.9045  -4.8960  -4.8959  -4.8919  -4.8886
    -4.8716  -4.8716  -4.8684  -4.8612  -4.8554  -4.8554  -4.8287  -4.8287
    -4.8266  -4.8053  -4.8024  -4.7975  -4.7943  -4.7740  -4.7739  -4.7721
    -4.7721  -4.7581  -4.7547  -4.7395  -4.7395  -4.7307  -4.7307  -4.6953
    -4.6953  -4.6921  -4.6917  -4.6916  -4.6897  -4.6897  -4.6859  -4.6848
    -4.6726  -4.6726  -4.6714  -4.6639  -4.6580  -4.6550  -4.6550  -4.6517
    -4.6517  -4.6463  -4.6393  -4.6384  -4.6384  -4.6338  -4.6054  -4.5912
    -4.5835  -4.5835  -4.5796  -4.5780  -4.5658  -4.5650  -4.5650  -4.5404
    -4.5342  -4.5309  -4.5309  -4.5256  -4.5106  -4.5106  -4.5101  -4.4991
    -4.4987  -4.4986  -4.4937  -4.4937  -4.4852  -4.4852  -4.4806  -4.4806
    -4.4744  -4.4520  -4.4416  -4.4416  -4.4361  -4.4361  -4.4361  -4.4301
    -4.4301  -4.4279  -4.4246  -4.4246  -4.4207  -4.4130  -4.4122  -4.4078
    -4.4046  -4.4003  -4.4003  -4.3947  -4.3939  -4.3939  -4.3746  -4.3704
    -4.3704  -4.3670  -4.3650  -4.3650  -4.3603  -4.3565  -4.3564  -4.3543
    -4.3543  -4.3328  -4.3318  -4.3185  -4.3184  -4.3160  -4.3159  -4.3134
    -4.3114  -4.3079  -4.3022  -4.2952  -4.2952  -4.2884  -4.2830  -4.2830
    -4.2790  -4.2713  -4.2568  -4.2525  -4.2525  -4.2507  -4.2506  -4.2458
    -4.2415  -4.2380  -4.2380  -4.2370  -4.2230  -4.2161  -4.2161  -4.2161
    -4.2143  -4.2142  -4.2128  -4.2099  -4.2016  -4.1983  -4.1983  -4.1958
    -4.1958  -4.1901  -4.1901  -4.1611  -4.1611  -4.1555  -4.1504  -4.1494
    -4.1409  -4.1378  -4.1377  -4.1342  -4.1342  -4.1314  -4.1311  -4.1311
    -4.1302  -4.1241  -4.1241  -4.1002  -4.0998  -4.0973  -4.0939  -4.0892
    -4.0892  -4.0869  -4.0865  -4.0841  -4.0841  -4.0840  -4.0821  -4.0821
    -4.0769  -4.0753  -4.0735  -4.0703  -4.0703  -4.0610  -4.0609  -4.0510
    -4.0498  -4.0462  -4.0460  -4.0460  -4.0402  -4.0394  -4.0360  -4.0360
    -4.0353  -4.0234  -4.0234  -4.0222  -4.0180  -4.0151  -4.0151  -4.0128
    -4.0128  -4.0096  -3.9958  -3.9958  -3.9750  -3.9750  -3.9732  -3.9699
    -3.9672  -3.9672  -3.9633  -3.9624  -3.9606  -3.9582  -3.9581  -3.9547
    -3.9529  -3.9515  -3.9515  -3.9493  -3.9408  -3.9408  -3.9336  -3.9263
    -3.9252  -3.9213  -3.9090  -3.9089  -3.9089  -3.9058  -3.9049  -3.8964
    -3.8831  -3.8831  -3.8815  -3.8763  -3.8720  -3.8720  -3.8718  -3.8718
    -3.8640  -3.8637  -3.8563  -3.8562  -3.8482  -3.8482  -3.8470  -3.8470
    -3.8440  -3.8440  -3.8438  -3.8429  -3.8413  -3.8379  -3.8326  -3.8121
    -3.7937  -3.7893  -3.7871  -3.7826  -3.7826  -3.7772  -3.7743  -3.7735
    -3.7735  -3.7735  -3.7689  -3.7654  -3.7606  -3.7606  -3.7555  -3.7483
    -3.7422  -3.7326  -3.7291  -3.7281  -3.7262  -3.7164  -3.6992  -3.6950
    -3.6872  -3.6745  -3.6614  -3.5468  -3.5464  -3.5315  -3.5315  -3.5096
    -3.4503  -3.4123  -3.3470  -3.0730  -3.0730  -2.9010  -2.9010  -2.2019
    -2.2019  -2.1114  -2.1113  -2.1012  -2.1012  -2.0197  -1.9257  -1.2401
    -0.5901  -0.5901  -0.5362  -0.5361  -0.4125  -0.4099  -0.0218  -0.0218
     0.1546   0.2161   0.2997   0.3804   0.6118   0.7561   0.7888   0.8862
     0.9362   1.1270   1.2142   1.3323   1.4296   1.4297   1.5163   1.6664
     1.6755   1.6755   1.7153   1.7154   1.7248   1.8223   1.8254   2.0547
     2.1186   2.1187   2.2387   2.5031   2.5032   2.6471   2.6701   2.6702
     2.6904   2.9387   2.9396   3.1308   3.1309   3.7270   3.7636   4.0820
     4.1265   4.1515   4.1516   4.1683   4.2287   4.2954   4.2955   4.3080
     4.3363   4.3364   4.6591   4.6592   4.8014   5.1017   5.1868   5.1869
     5.2680   5.5143   5.7006   5.7660   5.8335   6.0112   6.0440   6.0547
     6.1163   6.2433   6.2434   6.3897   6.4285   6.4540   6.4541   6.6839
     6.6885   6.6885   6.7783   6.8968   6.9079   6.9080   7.0170   7.0859
     7.0988   7.3048   7.3080   7.3080   7.3268   7.4739   7.4739   7.7469
     7.7729   7.7729   7.7899   8.1038   8.1103   8.1103   8.1647   8.2729
     8.2729   8.3913   8.4407   8.4407   8.4769   8.5025   8.5026   8.5261
     8.5661   8.6208   8.6474   8.6646   8.7142   8.7528   8.7950   8.8105
     8.8524   8.8775   8.9187   8.9187   9.0472   9.0473   9.0876   9.1104
     9.1105   9.3259   9.3259   9.3619   9.3646   9.3646   9.4272   9.4341
     9.4342   9.5357   9.5388   9.5427   9.6503   9.7138   9.7138   9.7399
     9.7399   9.7411   9.7411   9.9117   9.9117   9.9614   9.9614  10.2470
    10.2604  10.3386  10.3887  10.3888  10.4406  10.4407  10.5889  10.5897
    10.6162  10.6162  10.6263  10.7228  10.7446  10.7576  10.8642  10.8642

     occupation numbers 
     1.0000   1.0000   1.0000   1.0000   1.0000   1.0000   1.0000   1.0000
     1.0000   1.0000   1.0000   1.0000   1.0000   1.0000   1.0000   1.0000
     1.0000   1.0000   1.0000   1.0000   1.0000   1.0000   1.0000   1.0000
     1.0000   1.0000   1.0000   1.0000   1.0000   1.0000   1.0000   1.0000
     1.0000   1.0000   1.0000   1.0000   1.0000   1.0000   1.0000   1.0000
     1.0000   1.0000   1.0000   1.0000   1.0000   1.0000   1.0000   1.0000
     1.0000   1.0000   1.0000   1.0000   1.0000   1.0000   1.0000   1.0000
     1.0000   1.0000   1.0000   1.0000   1.0000   1.0000   1.0000   1.0000
     1.0000   1.0000   1.0000   1.0000   1.0000   1.0000   1.0000   1.0000
     1.0000   1.0000   1.0000   1.0000   1.0000   1.0000   1.0000   1.0000
     1.0000   1.0000   1.0000   1.0000   1.0000   1.0000   1.0000   1.0000
     1.0000   1.0000   1.0000   1.0000   1.0000   1.0000   1.0000   1.0000
     1.0000   1.0000   1.0000   1.0000   1.0000   1.0000   1.0000   1.0000
     1.0000   1.0000   1.0000   1.0000   1.0000   1.0000   1.0000   1.0000
     1.0000   1.0000   1.0000   1.0000   1.0000   1.0000   1.0000   1.0000
     1.0000   1.0000   1.0000   1.0000   1.0000   1.0000   1.0000   1.0000
     1.0000   1.0000   1.0000   1.0000   1.0000   1.0000   1.0000   1.0000
     1.0000   1.0000   1.0000   1.0000   1.0000   1.0000   1.0000   1.0000
     1.0000   1.0000   1.0000   1.0000   1.0000   1.0000   1.0000   1.0000
     1.0000   1.0000   1.0000   1.0000   1.0000   1.0000   1.0000   1.0000
     1.0000   1.0000   1.0000   1.0000   1.0000   1.0000   1.0000   1.0000
     1.0000   1.0000   1.0000   1.0000   1.0000   1.0000   1.0000   1.0000
     1.0000   1.0000   1.0000   1.0000   1.0000   1.0000   1.0000   1.0000
     1.0000   1.0000   1.0000   1.0000   1.0000   1.0000   1.0000   1.0000
     1.0000   1.0000   1.0000   1.0000   1.0000   1.0000   1.0000   1.0000
     1.0000   1.0000   1.0000   1.0000   1.0000   1.0000   1.0000   1.0000
     1.0000   1.0000   1.0000   1.0000   1.0000   1.0000   1.0000   1.0000
     1.0000   1.0000   1.0000   1.0000   1.0000   1.0000   1.0000   1.0000
     1.0000   1.0000   1.0000   1.0000   1.0000   1.0000   1.0000   1.0000
     1.0000   1.0000   1.0000   1.0000   1.0000   1.0000   1.0000   1.0000
     1.0000   1.0000   1.0000   1.0000   1.0000   1.0000   1.0000   1.0000
     1.0000   1.0000   1.0000   1.0000   1.0000   1.0000   1.0000   1.0000
     1.0000   1.0000   1.0000   1.0000   1.0000   1.0000   1.0000   1.0000
     1.0000   1.0000   1.0000   1.0000   1.0000   1.0000   1.0000   1.0000
     1.0000   1.0000   1.0000   1.0000   1.0000   1.0000   1.0000   1.0000
     1.0000   1.0000   1.0000   1.0000   1.0000   1.0000   1.0000   1.0000
     1.0000   1.0000   1.0000   1.0000   1.0000   1.0000   1.0000   1.0000
     1.0000   1.0000   1.0000   1.0000   1.0000   1.0000   1.0000   1.0000
     1.0000   1.0000   1.0000   1.0000   1.0000   1.0000   1.0000   1.0000
     1.0000   1.0000   1.0000   1.0000   1.0000   1.0000   1.0000   1.0000
     1.0000   1.0000   1.0000   1.0000   1.0000   1.0000   1.0000   1.0000
     1.0000   1.0000   1.0000   1.0000   1.0000   1.0000   1.0000   1.0000
     1.0000   1.0000   1.0000   1.0000   1.0000   1.0000   1.0000   1.0000
     1.0000   1.0000   1.0000   1.0000   1.0000   1.0000   1.0000   1.0000
     1.0000   1.0000   1.0000   1.0000   1.0000   1.0000   1.0000   1.0000
     1.0000   1.0000   1.0000   1.0000   1.0000   1.0000   1.0000   1.0000
     1.0000   1.0000   1.0000   1.0000   1.0000   1.0000   1.0000   1.0000
     1.0000   1.0000   1.0000   1.0000   1.0000   1.0000   1.0000   1.0000
     1.0000   1.0000   1.0000   1.0000   1.0000   1.0000   1.0000   1.0000
     1.0000   1.0000   1.0000   1.0000   1.0000   1.0000   1.0000   1.0000
     1.0000   1.0000   1.0000   1.0000   1.0000   1.0000   1.0000   1.0000
     1.0000   1.0000   1.0000   1.0000   1.0000   1.0000   1.0000   1.0000
     1.0000   1.0000   1.0000   1.0000   1.0000   1.0000   1.0000   1.0000
     1.0000   1.0000   1.0000   1.0000   1.0000   1.0000   1.0000   1.0000
     1.0000   1.0000   1.0000   1.0000   1.0000   1.0000   1.0000   1.0000
     1.0000   1.0000   1.0000   1.0000   1.0000   1.0000   1.0000   1.0000
     1.0000   1.0000   1.0000   1.0000   1.0000   1.0000   1.0000   1.0000
     1.0000   1.0000   1.0000   1.0000   1.0000   1.0000   1.0000   1.0000
     1.0000   1.0000   1.0000   1.0000   1.0000   1.0000   1.0000   1.0000
     1.0000   1.0000   1.0000   1.0000   1.0000   1.0000   1.0000   1.0000
     1.0000   1.0000   1.0000   1.0000   1.0000   1.0000   1.0000   1.0000
     1.0000   1.0000   1.0000   1.0000   1.0000   1.0000   1.0000   1.0000
     1.0000   1.0000   1.0000   1.0000   1.0000   1.0000   1.0000   1.0000
     1.0000   1.0000   1.0000   1.0000   1.0000   1.0000   1.0000   1.0000
     1.0000   1.0000   1.0000   1.0000   1.0000   1.0000   1.0000   1.0000
     1.0000   1.0000   1.0000   1.0000   1.0000   1.0000   1.0000   1.0000
     1.0000   1.0000   1.0000   1.0000   1.0000   1.0000   1.0000   1.0000
     1.0000   1.0000   1.0000   1.0000   1.0000   1.0000   1.0000   1.0000
     1.0000   1.0000   1.0000   1.0000   1.0000   1.0000   1.0000   1.0000
     1.0000   1.0000   1.0000   1.0000   1.0000   1.0000   1.0000   1.0000
     1.0000   1.0000   1.0000   1.0000   1.0000   1.0000   1.0000   1.0000
     1.0000   1.0000   1.0000   1.0000   1.0000   1.0000   1.0000   1.0000
     1.0000   1.0000   1.0000   1.0000   1.0000   1.0000   1.0000   1.0000
     1.0000   1.0000   1.0000   1.0000   1.0000   1.0000   1.0000   1.0000
     1.0000   1.0000   1.0000   1.0000   1.0000   1.0000   1.0000   1.0000
     1.0000   1.0000   1.0000   1.0000   1.0000   1.0000   1.0000   1.0000
     1.0000   1.0000   1.0000   1.0000   1.0000   1.0000   1.0000   1.0000
     1.0000   1.0000   1.0000   1.0000   1.0000   1.0000   1.0000   1.0000
     1.0000   1.0000   1.0000   1.0000   1.0000   1.0000   1.0000   1.0000
     1.0001   1.0001   1.0011   1.0330   1.0330   1.0784   1.0822   1.0822
     1.0833   0.7653   0.7630   0.2702   0.2701   0.0000   0.0000   0.0000
     0.0000   0.0000   0.0000   0.0000   0.0000   0.0000   0.0000   0.0000
     0.0000   0.0000   0.0000   0.0000   0.0000   0.0000   0.0000   0.0000
     0.0000   0.0000   0.0000   0.0000   0.0000   0.0000   0.0000   0.0000
     0.0000   0.0000   0.0000   0.0000   0.0000   0.0000   0.0000   0.0000
     0.0000   0.0000   0.0000   0.0000   0.0000   0.0000   0.0000   0.0000
     0.0000   0.0000   0.0000   0.0000   0.0000   0.0000   0.0000   0.0000
     0.0000   0.0000   0.0000   0.0000   0.0000   0.0000   0.0000   0.0000
     0.0000   0.0000   0.0000   0.0000   0.0000   0.0000   0.0000   0.0000
     0.0000   0.0000   0.0000   0.0000   0.0000   0.0000   0.0000   0.0000
     0.0000   0.0000   0.0000   0.0000   0.0000   0.0000   0.0000   0.0000
     0.0000   0.0000   0.0000   0.0000   0.0000   0.0000   0.0000   0.0000
     0.0000   0.0000   0.0000   0.0000   0.0000   0.0000   0.0000   0.0000
     0.0000   0.0000   0.0000   0.0000   0.0000   0.0000   0.0000   0.0000
     0.0000   0.0000   0.0000   0.0000   0.0000   0.0000   0.0000   0.0000
     0.0000   0.0000   0.0000   0.0000   0.0000   0.0000   0.0000   0.0000

          k = 0.0000 0.3107 0.1794 ( 43969 PWs)   bands (ev):

  -123.6184-123.6175-123.6171-123.6168-123.6167-123.6165-123.6163-123.6162
  -123.5544-123.5536-123.5530-123.5528-123.5527-123.5522-123.5519-123.5516
  -123.5454-123.5445-123.5439-123.5438-123.5436-123.5436-123.5433-123.5432
  -123.4336-123.4327-123.4323-123.4320-123.4319-123.4317-123.4316-123.4314
  -123.4269-123.4260-123.4257-123.4253-123.4252-123.4250-123.4250-123.4248
  -123.3907-123.3898-123.3893-123.3891-123.3890-123.3888-123.3887-123.3885
  -123.3419-123.3411-123.3406-123.3404-123.3402-123.3398-123.3394-123.3390
  -123.2722-123.2714-123.2709-123.2706-123.2700-123.2695-123.2691-123.2688
   -77.7174 -77.7141 -77.7112 -77.7110 -77.7109 -77.7099 -77.7098 -77.7093
   -77.7090 -77.7089 -77.7087 -77.7075 -77.7066 -77.7052 -77.7016 -77.6980
   -77.6965 -77.6960 -77.6958 -77.6954 -77.6930 -77.6925 -77.6889 -77.6884
   -77.6512 -77.6479 -77.6467 -77.6458 -77.6454 -77.6447 -77.6446 -77.6440
   -77.6435 -77.6434 -77.6426 -77.6418 -77.6416 -77.6413 -77.6402 -77.6401
   -77.6398 -77.6392 -77.6390 -77.6390 -77.6385 -77.6382 -77.6378 -77.6375
   -77.6365 -77.6365 -77.6358 -77.6335 -77.6331 -77.6330 -77.6322 -77.6315
   -77.6314 -77.6311 -77.6304 -77.6301 -77.6288 -77.6279 -77.6277 -77.6276
   -77.6267 -77.6264 -77.6242 -77.6229 -77.6169 -77.6162 -77.6129 -77.6118
   -77.5346 -77.5327 -77.5309 -77.5296 -77.5279 -77.5255 -77.5246 -77.5244
   -77.5234 -77.5232 -77.5225 -77.5222 -77.5220 -77.5219 -77.5219 -77.5218
   -77.5203 -77.5196 -77.5189 -77.5188 -77.5180 -77.5177 -77.5173 -77.5167
   -77.5163 -77.5148 -77.5144 -77.5144 -77.5135 -77.5133 -77.5128 -77.5127
   -77.5123 -77.5123 -77.5122 -77.5120 -77.5114 -77.5112 -77.5111 -77.5108
   -77.5086 -77.5081 -77.5050 -77.5048 -77.5018 -77.5016 -77.5015 -77.5011
   -77.5007 -77.5005 -77.5003 -77.5001 -77.4994 -77.4991 -77.4979 -77.4965
   -77.4809 -77.4783 -77.4749 -77.4718 -77.4715 -77.4707 -77.4685 -77.4648
   -77.4636 -77.4628 -77.4625 -77.4622 -77.4575 -77.4569 -77.4538 -77.4526
   -77.4409 -77.4399 -77.4398 -77.4396 -77.4393 -77.4390 -77.4382 -77.4379
   -77.4370 -77.4354 -77.4301 -77.4291 -77.4276 -77.4266 -77.4232 -77.4196
   -77.4181 -77.4177 -77.4173 -77.4169 -77.4152 -77.4136 -77.4113 -77.4100
   -77.3698 -77.3680 -77.3670 -77.3668 -77.3666 -77.3663 -77.3662 -77.3656
   -77.3648 -77.3646 -77.3637 -77.3634 -77.3614 -77.3599 -77.3581 -77.3573
   -77.3570 -77.3567 -77.3555 -77.3536 -77.3412 -77.3394 -77.3374 -77.3355
    -6.6182  -6.1596  -5.7223  -5.5860  -5.3174  -5.3066  -5.2647  -5.2099
    -5.1384  -5.1359  -5.1262  -5.1013  -5.0996  -5.0890  -5.0800  -5.0440
    -5.0418  -5.0408  -5.0390  -5.0384  -5.0319  -5.0318  -5.0243  -5.0206
    -5.0125  -5.0032  -4.9829  -4.9782  -4.9717  -4.9485  -4.9393  -4.9164
    -4.9163  -4.9154  -4.9150  -4.9079  -4.9071  -4.8998  -4.8872  -4.8868
    -4.8758  -4.8741  -4.8726  -4.8722  -4.8615  -4.8398  -4.8379  -4.8257
    -4.8220  -4.8204  -4.8153  -4.8137  -4.8113  -4.8076  -4.7983  -4.7915
    -4.7811  -4.7752  -4.7702  -4.7653  -4.7627  -4.7560  -4.7458  -4.7412
    -4.7287  -4.7269  -4.7215  -4.7165  -4.7096  -4.7090  -4.7015  -4.6934
    -4.6822  -4.6769  -4.6684  -4.6531  -4.6509  -4.6448  -4.6440  -4.6437
    -4.6364  -4.6345  -4.6198  -4.6184  -4.6152  -4.6129  -4.6088  -4.6086
    -4.6073  -4.6039  -4.6013  -4.5990  -4.5908  -4.5764  -4.5729  -4.5717
    -4.5716  -4.5617  -4.5614  -4.5511  -4.5370  -4.5297  -4.5165  -4.5116
    -4.5097  -4.5083  -4.4981  -4.4961  -4.4844  -4.4757  -4.4743  -4.4733
    -4.4716  -4.4703  -4.4567  -4.4547  -4.4528  -4.4350  -4.4313  -4.4261
    -4.4254  -4.4202  -4.4170  -4.4134  -4.4132  -4.4113  -4.4088  -4.4080
    -4.4063  -4.4042  -4.4024  -4.3938  -4.3925  -4.3840  -4.3746  -4.3723
    -4.3709  -4.3660  -4.3656  -4.3585  -4.3578  -4.3570  -4.3493  -4.3468
    -4.3453  -4.3428  -4.3383  -4.3371  -4.3246  -4.3245  -4.3238  -4.3201
    -4.3171  -4.3167  -4.3162  -4.3032  -4.3006  -4.2993  -4.2985  -4.2983
    -4.2982  -4.2973  -4.2964  -4.2921  -4.2742  -4.2701  -4.2621  -4.2574
    -4.2542  -4.2494  -4.2426  -4.2393  -4.2308  -4.2259  -4.2168  -4.2147
    -4.2111  -4.2081  -4.2031  -4.2004  -4.1958  -4.1879  -4.1826  -4.1815
    -4.1797  -4.1769  -4.1604  -4.1583  -4.1556  -4.1543  -4.1523  -4.1508
    -4.1417  -4.1410  -4.1402  -4.1394  -4.1391  -4.1369  -4.1362  -4.1333
    -4.1304  -4.1295  -4.1263  -4.1227  -4.1222  -4.1142  -4.1129  -4.1127
    -4.1068  -4.0949  -4.0874  -4.0852  -4.0846  -4.0795  -4.0770  -4.0707
    -4.0695  -4.0643  -4.0624  -4.0502  -4.0458  -4.0451  -4.0441  -4.0406
    -4.0342  -4.0266  -4.0261  -4.0214  -4.0207  -4.0163  -4.0089  -4.0074
    -4.0041  -4.0030  -4.0019  -3.9944  -3.9823  -3.9802  -3.9769  -3.9754
    -3.9741  -3.9723  -3.9687  -3.9593  -3.9592  -3.9550  -3.9483  -3.9478
    -3.9477  -3.9475  -3.9457  -3.9435  -3.9360  -3.9326  -3.9319  -3.9278
    -3.9277  -3.9268  -3.9124  -3.9122  -3.9102  -3.9049  -3.8980  -3.8933
    -3.8921  -3.8914  -3.8873  -3.8856  -3.8827  -3.8819  -3.8810  -3.8781
    -3.8755  -3.8755  -3.8694  -3.8565  -3.8564  -3.8545  -3.8529  -3.8511
    -3.8510  -3.8465  -3.8463  -3.8450  -3.8434  -3.8429  -3.8399  -3.8378
    -3.8355  -3.8330  -3.8324  -3.8324  -3.8314  -3.8210  -3.8209  -3.8151
    -3.8148  -3.8122  -3.8090  -3.8088  -3.8063  -3.7983  -3.7955  -3.7938
    -3.7879  -3.7799  -3.7780  -3.7733  -3.7693  -3.7692  -3.7674  -3.7656
    -3.7580  -3.7498  -3.7466  -3.7423  -3.7407  -3.7353  -3.7335  -3.7185
    -3.6992  -3.6969  -3.6873  -3.6187  -3.5921  -3.5596  -3.5248  -3.4472
    -3.4291  -3.2836  -3.2370  -3.1746  -2.8725  -2.8077  -2.7634  -2.6789
    -2.1746  -2.1476  -1.9289  -1.8438  -1.7602  -1.3548  -1.2898  -1.2747
    -1.1883  -1.1050  -1.0902  -1.0715  -0.8155  -0.7020  -0.5381   0.1576
     0.2919   0.2983   0.3030   0.4511   0.4555   0.4612   0.5066   0.7250
     0.8544   0.9294   0.9674   1.1211   1.1298   1.1603   1.5511   1.6312
     1.6655   1.6716   1.6860   1.7490   1.9908   2.1739   2.2085   2.3939
     2.5755   2.6439   2.6472   2.7784   2.8455   2.8772   2.9214   3.0771
     3.1436   3.3885   3.4186   3.4226   3.4235   3.4843   3.7343   3.7389
     3.7830   3.8919   3.9211   4.1064   4.3676   4.3678   4.3846   4.5600
     4.6082   4.6447   4.7042   4.8936   4.9945   5.1600   5.2465   5.2948
     5.4268   5.4300   5.5131   5.5567   5.5709   5.6739   5.7477   5.8348
     5.8664   5.9106   5.9547   5.9954   6.0227   6.1572   6.2939   6.2985
     6.3128   6.5340   6.5950   6.7191   6.7264   6.7292   6.8172   6.8253
     6.8558   7.0058   7.1427   7.2600   7.3938   7.4668   7.6431   7.6657
     7.6733   7.7273   7.7737   7.8083   7.9458   7.9642   8.0006   8.0185
     8.0864   8.1603   8.2467   8.3483   8.4035   8.4055   8.4097   8.4132
     8.4257   8.4994   8.5192   8.6915   8.6996   8.8008   8.8130   8.8363
     8.9809   9.0530   9.0732   9.1139   9.1498   9.1673   9.1875   9.2337
     9.2734   9.3956   9.4057   9.4424   9.4583   9.5121   9.5985   9.5985
     9.6241   9.6641   9.7120   9.8238   9.8853   9.9132   9.9138   9.9356
     9.9737   9.9980  10.0411  10.1138  10.1199  10.1464  10.2169  10.2291
    10.2962  10.3945  10.4490  10.4558  10.6089  10.6119  10.6241  10.6275
    10.6848  10.7612  10.7646  10.7842  10.8171  10.8193  10.8375  10.9337

     occupation numbers 
     1.0000   1.0000   1.0000   1.0000   1.0000   1.0000   1.0000   1.0000
     1.0000   1.0000   1.0000   1.0000   1.0000   1.0000   1.0000   1.0000
     1.0000   1.0000   1.0000   1.0000   1.0000   1.0000   1.0000   1.0000
     1.0000   1.0000   1.0000   1.0000   1.0000   1.0000   1.0000   1.0000
     1.0000   1.0000   1.0000   1.0000   1.0000   1.0000   1.0000   1.0000
     1.0000   1.0000   1.0000   1.0000   1.0000   1.0000   1.0000   1.0000
     1.0000   1.0000   1.0000   1.0000   1.0000   1.0000   1.0000   1.0000
     1.0000   1.0000   1.0000   1.0000   1.0000   1.0000   1.0000   1.0000
     1.0000   1.0000   1.0000   1.0000   1.0000   1.0000   1.0000   1.0000
     1.0000   1.0000   1.0000   1.0000   1.0000   1.0000   1.0000   1.0000
     1.0000   1.0000   1.0000   1.0000   1.0000   1.0000   1.0000   1.0000
     1.0000   1.0000   1.0000   1.0000   1.0000   1.0000   1.0000   1.0000
     1.0000   1.0000   1.0000   1.0000   1.0000   1.0000   1.0000   1.0000
     1.0000   1.0000   1.0000   1.0000   1.0000   1.0000   1.0000   1.0000
     1.0000   1.0000   1.0000   1.0000   1.0000   1.0000   1.0000   1.0000
     1.0000   1.0000   1.0000   1.0000   1.0000   1.0000   1.0000   1.0000
     1.0000   1.0000   1.0000   1.0000   1.0000   1.0000   1.0000   1.0000
     1.0000   1.0000   1.0000   1.0000   1.0000   1.0000   1.0000   1.0000
     1.0000   1.0000   1.0000   1.0000   1.0000   1.0000   1.0000   1.0000
     1.0000   1.0000   1.0000   1.0000   1.0000   1.0000   1.0000   1.0000
     1.0000   1.0000   1.0000   1.0000   1.0000   1.0000   1.0000   1.0000
     1.0000   1.0000   1.0000   1.0000   1.0000   1.0000   1.0000   1.0000
     1.0000   1.0000   1.0000   1.0000   1.0000   1.0000   1.0000   1.0000
     1.0000   1.0000   1.0000   1.0000   1.0000   1.0000   1.0000   1.0000
     1.0000   1.0000   1.0000   1.0000   1.0000   1.0000   1.0000   1.0000
     1.0000   1.0000   1.0000   1.0000   1.0000   1.0000   1.0000   1.0000
     1.0000   1.0000   1.0000   1.0000   1.0000   1.0000   1.0000   1.0000
     1.0000   1.0000   1.0000   1.0000   1.0000   1.0000   1.0000   1.0000
     1.0000   1.0000   1.0000   1.0000   1.0000   1.0000   1.0000   1.0000
     1.0000   1.0000   1.0000   1.0000   1.0000   1.0000   1.0000   1.0000
     1.0000   1.0000   1.0000   1.0000   1.0000   1.0000   1.0000   1.0000
     1.0000   1.0000   1.0000   1.0000   1.0000   1.0000   1.0000   1.0000
     1.0000   1.0000   1.0000   1.0000   1.0000   1.0000   1.0000   1.0000
     1.0000   1.0000   1.0000   1.0000   1.0000   1.0000   1.0000   1.0000
     1.0000   1.0000   1.0000   1.0000   1.0000   1.0000   1.0000   1.0000
     1.0000   1.0000   1.0000   1.0000   1.0000   1.0000   1.0000   1.0000
     1.0000   1.0000   1.0000   1.0000   1.0000   1.0000   1.0000   1.0000
     1.0000   1.0000   1.0000   1.0000   1.0000   1.0000   1.0000   1.0000
     1.0000   1.0000   1.0000   1.0000   1.0000   1.0000   1.0000   1.0000
     1.0000   1.0000   1.0000   1.0000   1.0000   1.0000   1.0000   1.0000
     1.0000   1.0000   1.0000   1.0000   1.0000   1.0000   1.0000   1.0000
     1.0000   1.0000   1.0000   1.0000   1.0000   1.0000   1.0000   1.0000
     1.0000   1.0000   1.0000   1.0000   1.0000   1.0000   1.0000   1.0000
     1.0000   1.0000   1.0000   1.0000   1.0000   1.0000   1.0000   1.0000
     1.0000   1.0000   1.0000   1.0000   1.0000   1.0000   1.0000   1.0000
     1.0000   1.0000   1.0000   1.0000   1.0000   1.0000   1.0000   1.0000
     1.0000   1.0000   1.0000   1.0000   1.0000   1.0000   1.0000   1.0000
     1.0000   1.0000   1.0000   1.0000   1.0000   1.0000   1.0000   1.0000
     1.0000   1.0000   1.0000   1.0000   1.0000   1.0000   1.0000   1.0000
     1.0000   1.0000   1.0000   1.0000   1.0000   1.0000   1.0000   1.0000
     1.0000   1.0000   1.0000   1.0000   1.0000   1.0000   1.0000   1.0000
     1.0000   1.0000   1.0000   1.0000   1.0000   1.0000   1.0000   1.0000
     1.0000   1.0000   1.0000   1.0000   1.0000   1.0000   1.0000   1.0000
     1.0000   1.0000   1.0000   1.0000   1.0000   1.0000   1.0000   1.0000
     1.0000   1.0000   1.0000   1.0000   1.0000   1.0000   1.0000   1.0000
     1.0000   1.0000   1.0000   1.0000   1.0000   1.0000   1.0000   1.0000
     1.0000   1.0000   1.0000   1.0000   1.0000   1.0000   1.0000   1.0000
     1.0000   1.0000   1.0000   1.0000   1.0000   1.0000   1.0000   1.0000
     1.0000   1.0000   1.0000   1.0000   1.0000   1.0000   1.0000   1.0000
     1.0000   1.0000   1.0000   1.0000   1.0000   1.0000   1.0000   1.0000
     1.0000   1.0000   1.0000   1.0000   1.0000   1.0000   1.0000   1.0000
     1.0000   1.0000   1.0000   1.0000   1.0000   1.0000   1.0000   1.0000
     1.0000   1.0000   1.0000   1.0000   1.0000   1.0000   1.0000   1.0000
     1.0000   1.0000   1.0000   1.0000   1.0000   1.0000   1.0000   1.0000
     1.0000   1.0000   1.0000   1.0000   1.0000   1.0000   1.0000   1.0000
     1.0000   1.0000   1.0000   1.0000   1.0000   1.0000   1.0000   1.0000
     1.0000   1.0000   1.0000   1.0000   1.0000   1.0000   1.0000   1.0000
     1.0000   1.0000   1.0000   1.0000   1.0000   1.0000   1.0000   1.0000
     1.0000   1.0000   1.0000   1.0000   1.0000   1.0000   1.0000   1.0000
     1.0000   1.0000   1.0000   1.0000   1.0000   1.0000   1.0000   1.0000
     1.0000   1.0000   1.0000   1.0000   1.0000   1.0000   1.0000   1.0000
     1.0000   1.0000   1.0000   1.0000   1.0000   1.0000   1.0000   1.0000
     1.0000   1.0000   1.0000   1.0000   1.0000   1.0000   1.0000   1.0000
     1.0000   1.0000   1.0000   1.0000   1.0000   1.0000   1.0000   1.0000
     1.0000   1.0000   1.0000   1.0000   1.0000   1.0000   1.0000   1.0000
     1.0000   1.0000   1.0000   1.0000   1.0000   1.0000   1.0000   1.0000
     1.0000   1.0000   1.0000   1.0000   1.0000   1.0000   1.0000   1.0000
     1.0000   1.0000   1.0000   1.0000   1.0000   1.0000   1.0000   1.0000
     1.0000   1.0000   1.0000   1.0000   1.0000   1.0003   1.0006   1.0104
     1.0567   1.0776   1.0784   1.0497   0.9665   0.9082   0.8087   0.3932
     0.2448   0.0166   0.0108   0.0101   0.0100   0.0038   0.0000   0.0000
     0.0000   0.0000   0.0000   0.0000   0.0000   0.0000   0.0000   0.0000
     0.0000   0.0000   0.0000   0.0000   0.0000   0.0000   0.0000   0.0000
     0.0000   0.0000   0.0000   0.0000   0.0000   0.0000   0.0000   0.0000
     0.0000   0.0000   0.0000   0.0000   0.0000   0.0000   0.0000   0.0000
     0.0000   0.0000   0.0000   0.0000   0.0000   0.0000   0.0000   0.0000
     0.0000   0.0000   0.0000   0.0000   0.0000   0.0000   0.0000   0.0000
     0.0000   0.0000   0.0000   0.0000   0.0000   0.0000   0.0000   0.0000
     0.0000   0.0000   0.0000   0.0000   0.0000   0.0000   0.0000   0.0000
     0.0000   0.0000   0.0000   0.0000   0.0000   0.0000   0.0000   0.0000
     0.0000   0.0000   0.0000   0.0000   0.0000   0.0000   0.0000   0.0000
     0.0000   0.0000   0.0000   0.0000   0.0000   0.0000   0.0000   0.0000
     0.0000   0.0000   0.0000   0.0000   0.0000   0.0000   0.0000   0.0000
     0.0000   0.0000   0.0000   0.0000   0.0000   0.0000   0.0000   0.0000
     0.0000   0.0000   0.0000   0.0000   0.0000   0.0000   0.0000   0.0000
     0.0000   0.0000   0.0000   0.0000   0.0000   0.0000   0.0000   0.0000

          k = 0.3333 0.0000 0.0000 ( 44008 PWs)   bands (ev):

  -123.6183-123.6172-123.6170-123.6170-123.6169-123.6168-123.6166-123.6166
  -123.5543-123.5536-123.5531-123.5530-123.5526-123.5524-123.5521-123.5519
  -123.5452-123.5442-123.5439-123.5439-123.5439-123.5437-123.5436-123.5435
  -123.4334-123.4324-123.4323-123.4321-123.4320-123.4319-123.4319-123.4317
  -123.4267-123.4257-123.4256-123.4256-123.4253-123.4253-123.4253-123.4253
  -123.3905-123.3895-123.3893-123.3892-123.3892-123.3890-123.3889-123.3889
  -123.3418-123.3411-123.3407-123.3405-123.3403-123.3400-123.3396-123.3393
  -123.2720-123.2714-123.2710-123.2709-123.2699-123.2697-123.2693-123.2691
   -77.7201 -77.7192 -77.7109 -77.7106 -77.7103 -77.7103 -77.7100 -77.7100
   -77.7095 -77.7088 -77.7063 -77.7024 -77.7014 -77.7014 -77.7012 -77.7012
   -77.7010 -77.6975 -77.6975 -77.6973 -77.6972 -77.6970 -77.6888 -77.6858
   -77.6539 -77.6528 -77.6457 -77.6453 -77.6450 -77.6450 -77.6446 -77.6443
   -77.6441 -77.6440 -77.6427 -77.6425 -77.6423 -77.6399 -77.6399 -77.6396
   -77.6391 -77.6384 -77.6384 -77.6381 -77.6381 -77.6373 -77.6373 -77.6371
   -77.6364 -77.6364 -77.6362 -77.6359 -77.6343 -77.6335 -77.6335 -77.6328
   -77.6328 -77.6328 -77.6318 -77.6317 -77.6316 -77.6300 -77.6300 -77.6267
   -77.6244 -77.6223 -77.6223 -77.6214 -77.6212 -77.6212 -77.6124 -77.6077
   -77.5352 -77.5344 -77.5324 -77.5285 -77.5275 -77.5275 -77.5275 -77.5272
   -77.5268 -77.5267 -77.5266 -77.5228 -77.5215 -77.5194 -77.5193 -77.5191
   -77.5191 -77.5187 -77.5187 -77.5184 -77.5179 -77.5175 -77.5173 -77.5173
   -77.5172 -77.5171 -77.5164 -77.5147 -77.5147 -77.5138 -77.5134 -77.5130
   -77.5130 -77.5121 -77.5121 -77.5118 -77.5117 -77.5111 -77.5110 -77.5109
   -77.5062 -77.5062 -77.5055 -77.5055 -77.5054 -77.5018 -77.5010 -77.5007
   -77.5006 -77.5004 -77.5004 -77.4997 -77.4997 -77.4994 -77.4971 -77.4947
   -77.4838 -77.4831 -77.4728 -77.4693 -77.4681 -77.4681 -77.4677 -77.4676
   -77.4676 -77.4627 -77.4627 -77.4615 -77.4615 -77.4614 -77.4538 -77.4489
   -77.4415 -77.4403 -77.4401 -77.4399 -77.4398 -77.4395 -77.4389 -77.4387
   -77.4382 -77.4377 -77.4275 -77.4238 -77.4232 -77.4232 -77.4226 -77.4225
   -77.4220 -77.4193 -77.4193 -77.4185 -77.4184 -77.4184 -77.4111 -77.4079
   -77.3679 -77.3676 -77.3674 -77.3671 -77.3670 -77.3666 -77.3661 -77.3656
   -77.3655 -77.3648 -77.3646 -77.3642 -77.3630 -77.3630 -77.3620 -77.3612
   -77.3612 -77.3563 -77.3468 -77.3468 -77.3447 -77.3447 -77.3370 -77.3319
    -6.6097  -6.1493  -5.7279  -5.4094  -5.4029  -5.4028  -5.2710  -5.2624
    -5.1753  -5.1752  -5.1752  -5.1618  -5.1511  -5.1446  -5.1240  -5.1089
    -5.1057  -5.1019  -5.0865  -5.0358  -5.0247  -5.0206  -4.9858  -4.9837
    -4.9822  -4.9675  -4.9675  -4.9600  -4.9476  -4.9476  -4.9342  -4.8971
    -4.8971  -4.8901  -4.8883  -4.8835  -4.8835  -4.8721  -4.8682  -4.8657
    -4.8657  -4.8621  -4.8621  -4.8618  -4.8515  -4.8470  -4.8380  -4.8214
    -4.8203  -4.8171  -4.8171  -4.7997  -4.7996  -4.7729  -4.7729  -4.7716
    -4.7482  -4.7482  -4.7302  -4.7245  -4.7165  -4.7165  -4.7137  -4.7063
    -4.6952  -4.6952  -4.6886  -4.6862  -4.6862  -4.6809  -4.6809  -4.6772
    -4.6772  -4.6761  -4.6757  -4.6653  -4.6630  -4.6516  -4.6435  -4.6435
    -4.6434  -4.6292  -4.6258  -4.6214  -4.6214  -4.6073  -4.6072  -4.5989
    -4.5869  -4.5869  -4.5813  -4.5813  -4.5800  -4.5788  -4.5709  -4.5692
    -4.5674  -4.5674  -4.5603  -4.5593  -4.5589  -4.5508  -4.5508  -4.5466
    -4.5466  -4.5368  -4.5343  -4.5339  -4.5338  -4.5287  -4.4991  -4.4991
    -4.4857  -4.4847  -4.4847  -4.4774  -4.4572  -4.4558  -4.4558  -4.4370
    -4.4370  -4.4317  -4.4299  -4.4299  -4.4169  -4.4109  -4.4109  -4.4086
    -4.4038  -4.4038  -4.4020  -4.4002  -4.3942  -4.3942  -4.3937  -4.3537
    -4.3460  -4.3447  -4.3441  -4.3361  -4.3361  -4.3351  -4.3253  -4.3253
    -4.3219  -4.3219  -4.3171  -4.3109  -4.3108  -4.2997  -4.2997  -4.2919
    -4.2896  -4.2895  -4.2873  -4.2872  -4.2816  -4.2761  -4.2755  -4.2755
    -4.2675  -4.2675  -4.2657  -4.2640  -4.2525  -4.2525  -4.2447  -4.2424
    -4.2377  -4.2377  -4.2296  -4.2296  -4.2246  -4.2245  -4.2170  -4.2170
    -4.2156  -4.2134  -4.2127  -4.1932  -4.1924  -4.1770  -4.1769  -4.1763
    -4.1737  -4.1617  -4.1617  -4.1479  -4.1478  -4.1433  -4.1432  -4.1432
    -4.1298  -4.1297  -4.1278  -4.1278  -4.1198  -4.1198  -4.1131  -4.1077
    -4.1070  -4.1070  -4.1053  -4.1049  -4.1008  -4.0928  -4.0928  -4.0910
    -4.0892  -4.0892  -4.0892  -4.0858  -4.0797  -4.0797  -4.0741  -4.0672
    -4.0672  -4.0665  -4.0636  -4.0513  -4.0513  -4.0509  -4.0498  -4.0494
    -4.0455  -4.0455  -4.0446  -4.0384  -4.0378  -4.0322  -4.0225  -4.0225
    -4.0097  -4.0091  -4.0091  -4.0062  -4.0050  -4.0050  -4.0017  -3.9995
    -3.9995  -3.9983  -3.9983  -3.9841  -3.9807  -3.9747  -3.9717  -3.9717
    -3.9707  -3.9686  -3.9664  -3.9653  -3.9636  -3.9633  -3.9616  -3.9588
    -3.9587  -3.9551  -3.9547  -3.9547  -3.9490  -3.9360  -3.9331  -3.9331
    -3.9296  -3.9232  -3.9232  -3.9184  -3.9178  -3.9076  -3.9043  -3.9043
    -3.9007  -3.8994  -3.8994  -3.8908  -3.8854  -3.8852  -3.8852  -3.8836
    -3.8836  -3.8760  -3.8751  -3.8701  -3.8698  -3.8620  -3.8620  -3.8577
    -3.8531  -3.8496  -3.8496  -3.8418  -3.8345  -3.8345  -3.8215  -3.8215
    -3.8202  -3.8097  -3.7996  -3.7881  -3.7862  -3.7838  -3.7817  -3.7791
    -3.7712  -3.7606  -3.7527  -3.7527  -3.7510  -3.7409  -3.7392  -3.7304
    -3.7304  -3.7303  -3.7282  -3.7244  -3.7170  -3.7120  -3.7120  -3.7119
    -3.6923  -3.6911  -3.6882  -3.6737  -3.6415  -3.6048  -3.5824  -3.5645
    -3.4489  -3.4488  -3.2358  -3.1516  -3.0468  -3.0468  -2.7750  -2.2557
    -1.9606  -1.9606  -1.8127  -1.8126  -1.5598  -1.4112  -1.4111  -1.1175
    -0.8772  -0.8415  -0.8415  -0.5544  -0.4325  -0.2654  -0.2551  -0.1525
    -0.1525   0.1658   0.1659   0.1839   0.2259   0.5163   0.5164   0.5308
     0.7325   0.8150   0.8581   0.8581   0.8881   0.8882   0.9685   1.1041
     1.3122   1.3964   1.7903   1.8969   1.9040   2.2858   2.2859   2.3342
     2.3429   2.3541   2.5356   2.7358   2.7358   2.8286   2.9310   2.9310
     2.9828   3.4313   3.4972   3.4972   3.6141   3.7470   3.7631   3.9177
     3.9732   4.1572   4.2532   4.2532   4.4041   4.4042   4.7107   4.8785
     4.9886   4.9893   5.0036   5.0272   5.1806   5.1807   5.2062   5.2482
     5.2483   5.2779   5.2912   5.3080   5.4033   5.4033   5.6069   6.0816
     6.2915   6.3635   6.3636   6.4025   6.5224   6.5224   6.5823   6.6144
     6.7199   6.8232   6.9548   6.9549   6.9646   6.9647   7.0107   7.0776
     7.1015   7.2042   7.2653   7.4271   7.4271   7.4388   7.4860   7.4860
     7.5017   7.7265   7.7265   7.7799   7.7916   7.7917   7.8414   7.9548
     7.9549   7.9550   8.0317   8.0317   8.0671   8.1112   8.3099   8.3099
     8.4722   8.4722   8.5028   8.5112   8.5820   8.5820   8.6027   8.6350
     8.6350   8.7359   8.7445   8.8845   8.8845   9.0874   9.0875   9.1363
     9.2471   9.2477   9.2654   9.2891   9.2892   9.3714   9.4074   9.4852
     9.4852   9.5761   9.5896   9.5896   9.6565   9.7607   9.7608   9.7696
     9.7717   9.8123   9.8501   9.8501   9.8766   9.9997  10.0986  10.0987
    10.1079  10.1847  10.1848  10.2945  10.4199  10.4199  10.4808  10.4808
    10.5227  10.5530  10.6372  10.6372  10.7874  10.9461  10.9709  10.9710

     occupation numbers 
     1.0000   1.0000   1.0000   1.0000   1.0000   1.0000   1.0000   1.0000
     1.0000   1.0000   1.0000   1.0000   1.0000   1.0000   1.0000   1.0000
     1.0000   1.0000   1.0000   1.0000   1.0000   1.0000   1.0000   1.0000
     1.0000   1.0000   1.0000   1.0000   1.0000   1.0000   1.0000   1.0000
     1.0000   1.0000   1.0000   1.0000   1.0000   1.0000   1.0000   1.0000
     1.0000   1.0000   1.0000   1.0000   1.0000   1.0000   1.0000   1.0000
     1.0000   1.0000   1.0000   1.0000   1.0000   1.0000   1.0000   1.0000
     1.0000   1.0000   1.0000   1.0000   1.0000   1.0000   1.0000   1.0000
     1.0000   1.0000   1.0000   1.0000   1.0000   1.0000   1.0000   1.0000
     1.0000   1.0000   1.0000   1.0000   1.0000   1.0000   1.0000   1.0000
     1.0000   1.0000   1.0000   1.0000   1.0000   1.0000   1.0000   1.0000
     1.0000   1.0000   1.0000   1.0000   1.0000   1.0000   1.0000   1.0000
     1.0000   1.0000   1.0000   1.0000   1.0000   1.0000   1.0000   1.0000
     1.0000   1.0000   1.0000   1.0000   1.0000   1.0000   1.0000   1.0000
     1.0000   1.0000   1.0000   1.0000   1.0000   1.0000   1.0000   1.0000
     1.0000   1.0000   1.0000   1.0000   1.0000   1.0000   1.0000   1.0000
     1.0000   1.0000   1.0000   1.0000   1.0000   1.0000   1.0000   1.0000
     1.0000   1.0000   1.0000   1.0000   1.0000   1.0000   1.0000   1.0000
     1.0000   1.0000   1.0000   1.0000   1.0000   1.0000   1.0000   1.0000
     1.0000   1.0000   1.0000   1.0000   1.0000   1.0000   1.0000   1.0000
     1.0000   1.0000   1.0000   1.0000   1.0000   1.0000   1.0000   1.0000
     1.0000   1.0000   1.0000   1.0000   1.0000   1.0000   1.0000   1.0000
     1.0000   1.0000   1.0000   1.0000   1.0000   1.0000   1.0000   1.0000
     1.0000   1.0000   1.0000   1.0000   1.0000   1.0000   1.0000   1.0000
     1.0000   1.0000   1.0000   1.0000   1.0000   1.0000   1.0000   1.0000
     1.0000   1.0000   1.0000   1.0000   1.0000   1.0000   1.0000   1.0000
     1.0000   1.0000   1.0000   1.0000   1.0000   1.0000   1.0000   1.0000
     1.0000   1.0000   1.0000   1.0000   1.0000   1.0000   1.0000   1.0000
     1.0000   1.0000   1.0000   1.0000   1.0000   1.0000   1.0000   1.0000
     1.0000   1.0000   1.0000   1.0000   1.0000   1.0000   1.0000   1.0000
     1.0000   1.0000   1.0000   1.0000   1.0000   1.0000   1.0000   1.0000
     1.0000   1.0000   1.0000   1.0000   1.0000   1.0000   1.0000   1.0000
     1.0000   1.0000   1.0000   1.0000   1.0000   1.0000   1.0000   1.0000
     1.0000   1.0000   1.0000   1.0000   1.0000   1.0000   1.0000   1.0000
     1.0000   1.0000   1.0000   1.0000   1.0000   1.0000   1.0000   1.0000
     1.0000   1.0000   1.0000   1.0000   1.0000   1.0000   1.0000   1.0000
     1.0000   1.0000   1.0000   1.0000   1.0000   1.0000   1.0000   1.0000
     1.0000   1.0000   1.0000   1.0000   1.0000   1.0000   1.0000   1.0000
     1.0000   1.0000   1.0000   1.0000   1.0000   1.0000   1.0000   1.0000
     1.0000   1.0000   1.0000   1.0000   1.0000   1.0000   1.0000   1.0000
     1.0000   1.0000   1.0000   1.0000   1.0000   1.0000   1.0000   1.0000
     1.0000   1.0000   1.0000   1.0000   1.0000   1.0000   1.0000   1.0000
     1.0000   1.0000   1.0000   1.0000   1.0000   1.0000   1.0000   1.0000
     1.0000   1.0000   1.0000   1.0000   1.0000   1.0000   1.0000   1.0000
     1.0000   1.0000   1.0000   1.0000   1.0000   1.0000   1.0000   1.0000
     1.0000   1.0000   1.0000   1.0000   1.0000   1.0000   1.0000   1.0000
     1.0000   1.0000   1.0000   1.0000   1.0000   1.0000   1.0000   1.0000
     1.0000   1.0000   1.0000   1.0000   1.0000   1.0000   1.0000   1.0000
     1.0000   1.0000   1.0000   1.0000   1.0000   1.0000   1.0000   1.0000
     1.0000   1.0000   1.0000   1.0000   1.0000   1.0000   1.0000   1.0000
     1.0000   1.0000   1.0000   1.0000   1.0000   1.0000   1.0000   1.0000
     1.0000   1.0000   1.0000   1.0000   1.0000   1.0000   1.0000   1.0000
     1.0000   1.0000   1.0000   1.0000   1.0000   1.0000   1.0000   1.0000
     1.0000   1.0000   1.0000   1.0000   1.0000   1.0000   1.0000   1.0000
     1.0000   1.0000   1.0000   1.0000   1.0000   1.0000   1.0000   1.0000
     1.0000   1.0000   1.0000   1.0000   1.0000   1.0000   1.0000   1.0000
     1.0000   1.0000   1.0000   1.0000   1.0000   1.0000   1.0000   1.0000
     1.0000   1.0000   1.0000   1.0000   1.0000   1.0000   1.0000   1.0000
     1.0000   1.0000   1.0000   1.0000   1.0000   1.0000   1.0000   1.0000
     1.0000   1.0000   1.0000   1.0000   1.0000   1.0000   1.0000   1.0000
     1.0000   1.0000   1.0000   1.0000   1.0000   1.0000   1.0000   1.0000
     1.0000   1.0000   1.0000   1.0000   1.0000   1.0000   1.0000   1.0000
     1.0000   1.0000   1.0000   1.0000   1.0000   1.0000   1.0000   1.0000
     1.0000   1.0000   1.0000   1.0000   1.0000   1.0000   1.0000   1.0000
     1.0000   1.0000   1.0000   1.0000   1.0000   1.0000   1.0000   1.0000
     1.0000   1.0000   1.0000   1.0000   1.0000   1.0000   1.0000   1.0000
     1.0000   1.0000   1.0000   1.0000   1.0000   1.0000   1.0000   1.0000
     1.0000   1.0000   1.0000   1.0000   1.0000   1.0000   1.0000   1.0000
     1.0000   1.0000   1.0000   1.0000   1.0000   1.0000   1.0000   1.0000
     1.0000   1.0000   1.0000   1.0000   1.0000   1.0000   1.0000   1.0000
     1.0000   1.0000   1.0000   1.0000   1.0000   1.0000   1.0000   1.0000
     1.0000   1.0000   1.0000   1.0000   1.0000   1.0000   1.0000   1.0000
     1.0000   1.0000   1.0000   1.0000   1.0000   1.0000   1.0000   1.0000
     1.0000   1.0000   1.0000   1.0000   1.0000   1.0000   1.0000   1.0000
     1.0000   1.0000   1.0000   1.0000   1.0000   1.0000   1.0000   1.0000
     1.0000   1.0000   1.0000   1.0000   1.0000   1.0000   1.0000   1.0000
     1.0000   1.0000   1.0000   1.0000   1.0000   1.0000   1.0000   1.0000
     1.0000   1.0000   1.0000   1.0000   1.0000   1.0000   1.0000   1.0000
     1.0000   1.0000   1.0000   1.0000   1.0000   1.0023   1.0023   1.0047
     1.0054   1.0062   1.0431   1.0751   1.0751   0.9927   0.7850   0.7849
     0.6471   0.0089   0.0031   0.0031   0.0004   0.0000   0.0000   0.0000
     0.0000   0.0000   0.0000   0.0000   0.0000   0.0000   0.0000   0.0000
     0.0000   0.0000   0.0000   0.0000   0.0000   0.0000   0.0000   0.0000
     0.0000   0.0000   0.0000   0.0000   0.0000   0.0000   0.0000   0.0000
     0.0000   0.0000   0.0000   0.0000   0.0000   0.0000   0.0000   0.0000
     0.0000   0.0000   0.0000   0.0000   0.0000   0.0000   0.0000   0.0000
     0.0000   0.0000   0.0000   0.0000   0.0000   0.0000   0.0000   0.0000
     0.0000   0.0000   0.0000   0.0000   0.0000   0.0000   0.0000   0.0000
     0.0000   0.0000   0.0000   0.0000   0.0000   0.0000   0.0000   0.0000
     0.0000   0.0000   0.0000   0.0000   0.0000   0.0000   0.0000   0.0000
     0.0000   0.0000   0.0000   0.0000   0.0000   0.0000   0.0000   0.0000
     0.0000   0.0000   0.0000   0.0000   0.0000   0.0000   0.0000   0.0000
     0.0000   0.0000   0.0000   0.0000   0.0000   0.0000   0.0000   0.0000
     0.0000   0.0000   0.0000   0.0000   0.0000   0.0000   0.0000   0.0000
     0.0000   0.0000   0.0000   0.0000   0.0000   0.0000   0.0000   0.0000
     0.0000   0.0000   0.0000   0.0000   0.0000   0.0000   0.0000   0.0000

          k = 0.3333 0.3107 0.1794 ( 44020 PWs)   bands (ev):

  -123.6178-123.6174-123.6173-123.6172-123.6171-123.6168-123.6168-123.6165
  -123.5540-123.5537-123.5533-123.5529-123.5529-123.5525-123.5523-123.5519
  -123.5447-123.5444-123.5442-123.5442-123.5440-123.5438-123.5438-123.5434
  -123.4329-123.4326-123.4325-123.4324-123.4322-123.4320-123.4319-123.4316
  -123.4263-123.4260-123.4259-123.4258-123.4256-123.4254-123.4253-123.4251
  -123.3900-123.3897-123.3896-123.3895-123.3893-123.3891-123.3891-123.3888
  -123.3415-123.3412-123.3409-123.3405-123.3404-123.3401-123.3398-123.3393
  -123.2718-123.2715-123.2712-123.2708-123.2701-123.2698-123.2695-123.2691
   -77.7179 -77.7165 -77.7113 -77.7107 -77.7104 -77.7104 -77.7098 -77.7096
   -77.7095 -77.7091 -77.7073 -77.7065 -77.7048 -77.7041 -77.7019 -77.7009
   -77.7003 -77.7003 -77.6995 -77.6985 -77.6927 -77.6924 -77.6892 -77.6872
   -77.6516 -77.6501 -77.6462 -77.6454 -77.6452 -77.6449 -77.6445 -77.6443
   -77.6436 -77.6433 -77.6416 -77.6416 -77.6413 -77.6412 -77.6407 -77.6404
   -77.6392 -77.6388 -77.6386 -77.6384 -77.6382 -77.6379 -77.6377 -77.6375
   -77.6370 -77.6367 -77.6367 -77.6364 -77.6362 -77.6361 -77.6345 -77.6341
   -77.6339 -77.6338 -77.6329 -77.6317 -77.6311 -77.6302 -77.6299 -77.6277
   -77.6272 -77.6261 -77.6236 -77.6221 -77.6164 -77.6160 -77.6127 -77.6107
   -77.5333 -77.5323 -77.5309 -77.5304 -77.5281 -77.5279 -77.5278 -77.5264
   -77.5262 -77.5252 -77.5244 -77.5242 -77.5222 -77.5215 -77.5208 -77.5207
   -77.5198 -77.5196 -77.5187 -77.5187 -77.5186 -77.5182 -77.5181 -77.5175
   -77.5172 -77.5170 -77.5170 -77.5169 -77.5167 -77.5153 -77.5139 -77.5130
   -77.5123 -77.5121 -77.5120 -77.5119 -77.5119 -77.5116 -77.5115 -77.5113
   -77.5085 -77.5080 -77.5053 -77.5027 -77.5016 -77.5013 -77.5011 -77.5009
   -77.5008 -77.5005 -77.5004 -77.4999 -77.4996 -77.4993 -77.4974 -77.4963
   -77.4817 -77.4806 -77.4719 -77.4710 -77.4708 -77.4706 -77.4689 -77.4678
   -77.4669 -77.4669 -77.4658 -77.4644 -77.4569 -77.4567 -77.4537 -77.4514
   -77.4405 -77.4399 -77.4397 -77.4394 -77.4393 -77.4391 -77.4386 -77.4383
   -77.4380 -77.4375 -77.4289 -77.4278 -77.4260 -77.4256 -77.4232 -77.4225
   -77.4218 -77.4215 -77.4208 -77.4199 -77.4147 -77.4136 -77.4115 -77.4094
   -77.3676 -77.3671 -77.3670 -77.3666 -77.3660 -77.3659 -77.3656 -77.3654
   -77.3652 -77.3650 -77.3649 -77.3645 -77.3636 -77.3629 -77.3620 -77.3613
   -77.3607 -77.3590 -77.3542 -77.3525 -77.3409 -77.3392 -77.3372 -77.3345
    -6.4527  -6.0047  -6.0006  -5.5963  -5.5844  -5.2934  -5.2135  -5.2006
    -5.1786  -5.1259  -5.1184  -5.1098  -5.1001  -5.0993  -5.0861  -5.0831
    -5.0769  -5.0521  -5.0395  -5.0373  -5.0330  -5.0292  -5.0185  -5.0096
    -5.0030  -4.9981  -4.9963  -4.9920  -4.9612  -4.9588  -4.9442  -4.9264
    -4.9232  -4.9214  -4.9205  -4.9190  -4.9128  -4.9065  -4.9048  -4.8916
    -4.8850  -4.8604  -4.8534  -4.8507  -4.8445  -4.8259  -4.8259  -4.8241
    -4.8239  -4.8167  -4.8014  -4.7959  -4.7946  -4.7933  -4.7925  -4.7898
    -4.7838  -4.7800  -4.7544  -4.7529  -4.7419  -4.7392  -4.7335  -4.7290
    -4.7170  -4.7130  -4.7080  -4.7079  -4.7065  -4.7061  -4.6958  -4.6856
    -4.6781  -4.6773  -4.6734  -4.6643  -4.6595  -4.6496  -4.6491  -4.6398
    -4.6391  -4.6372  -4.6328  -4.6314  -4.6311  -4.6175  -4.6095  -4.6069
    -4.6029  -4.6013  -4.5973  -4.5952  -4.5934  -4.5814  -4.5756  -4.5684
    -4.5679  -4.5627  -4.5596  -4.5574  -4.5558  -4.5549  -4.5503  -4.5475
    -4.5464  -4.5384  -4.5348  -4.5312  -4.5309  -4.5288  -4.5111  -4.5090
    -4.4973  -4.4929  -4.4911  -4.4883  -4.4793  -4.4793  -4.4738  -4.4708
    -4.4676  -4.4539  -4.4531  -4.4468  -4.4438  -4.4324  -4.4209  -4.4194
    -4.4137  -4.4092  -4.4010  -4.3986  -4.3967  -4.3945  -4.3904  -4.3903
    -4.3861  -4.3745  -4.3739  -4.3644  -4.3564  -4.3503  -4.3475  -4.3475
    -4.3409  -4.3373  -4.3241  -4.3231  -4.3231  -4.3223  -4.3206  -4.3131
    -4.3102  -4.3017  -4.2993  -4.2972  -4.2908  -4.2866  -4.2843  -4.2818
    -4.2781  -4.2685  -4.2684  -4.2680  -4.2606  -4.2558  -4.2529  -4.2397
    -4.2352  -4.2333  -4.2224  -4.2217  -4.2137  -4.2118  -4.2003  -4.1995
    -4.1923  -4.1906  -4.1863  -4.1836  -4.1784  -4.1739  -4.1736  -4.1652
    -4.1590  -4.1581  -4.1512  -4.1475  -4.1458  -4.1396  -4.1368  -4.1350
    -4.1294  -4.1281  -4.1222  -4.1167  -4.1154  -4.1119  -4.1010  -4.0996
    -4.0995  -4.0979  -4.0936  -4.0929  -4.0899  -4.0891  -4.0867  -4.0790
    -4.0769  -4.0750  -4.0682  -4.0629  -4.0580  -4.0579  -4.0573  -4.0566
    -4.0529  -4.0515  -4.0440  -4.0388  -4.0333  -4.0332  -4.0325  -4.0259
    -4.0247  -4.0247  -4.0202  -4.0174  -4.0128  -4.0119  -4.0050  -4.0041
    -3.9984  -3.9983  -3.9895  -3.9881  -3.9875  -3.9856  -3.9841  -3.9799
    -3.9782  -3.9711  -3.9671  -3.9631  -3.9609  -3.9601  -3.9568  -3.9552
    -3.9552  -3.9533  -3.9524  -3.9484  -3.9474  -3.9402  -3.9378  -3.9346
    -3.9299  -3.9276  -3.9232  -3.9230  -3.9226  -3.9220  -3.9212  -3.9159
    -3.9155  -3.9141  -3.9111  -3.9028  -3.9014  -3.9003  -3.8915  -3.8891
    -3.8885  -3.8854  -3.8853  -3.8802  -3.8796  -3.8776  -3.8772  -3.8763
    -3.8690  -3.8667  -3.8643  -3.8642  -3.8635  -3.8618  -3.8573  -3.8564
    -3.8459  -3.8447  -3.8384  -3.8352  -3.8349  -3.8340  -3.8301  -3.8193
    -3.8179  -3.8174  -3.8148  -3.8127  -3.8081  -3.8036  -3.7928  -3.7922
    -3.7880  -3.7865  -3.7851  -3.7787  -3.7746  -3.7739  -3.7721  -3.7578
    -3.7537  -3.7511  -3.7415  -3.7392  -3.7389  -3.7344  -3.7336  -3.7256
    -3.7229  -3.7204  -3.7130  -3.6806  -3.6594  -3.6479  -3.6075  -3.5480
    -3.3463  -3.0621  -2.9630  -2.9345  -2.6392  -2.6016  -2.5443  -2.5097
    -2.1406  -2.0789  -2.0629  -2.0107  -1.5971  -1.5452  -1.3812  -1.1288
    -0.9719  -0.9418  -0.8969  -0.8000  -0.7115  -0.6571  -0.5433  -0.3864
    -0.3716  -0.2831  -0.2370   0.0946   0.1591   0.2010   0.4325   0.5465
     0.8719   0.9776   0.9904   1.1716   1.4767   1.4948   1.5035   1.5310
     1.5543   1.7945   1.8918   1.8956   1.9897   2.0099   2.0575   2.2028
     2.2804   2.3163   2.4635   2.5732   2.8362   2.9473   2.9905   3.1001
     3.1439   3.2761   3.4702   3.5760   3.6268   3.8052   3.9233   4.0104
     4.0871   4.1254   4.2127   4.3626   4.3994   4.5895   4.6496   4.7101
     4.8289   5.0139   5.1376   5.1434   5.1636   5.1787   5.3323   5.3519
     5.4136   5.5563   5.6045   5.6827   5.6970   5.7007   5.7589   5.8943
     6.1458   6.2122   6.2300   6.2318   6.2378   6.3960   6.3995   6.4556
     6.4948   6.5928   6.6848   6.6908   6.8825   6.9019   6.9066   6.9399
     6.9723   7.0188   7.0230   7.0268   7.1795   7.2261   7.3088   7.3664
     7.4218   7.4248   7.4511   7.5667   7.6091   7.6232   7.7795   7.7977
     7.8101   7.8610   7.9488   8.0003   8.1224   8.1389   8.1943   8.2085
     8.2432   8.3301   8.4064   8.5958   8.6576   8.6631   8.6822   8.7475
     8.7665   8.8496   8.8632   8.8814   8.9533   8.9674   9.0290   9.1437
     9.2363   9.2481   9.2908   9.3140   9.3576   9.3614   9.3756   9.4461
     9.5634   9.5660   9.6602   9.6697   9.6737   9.7166   9.8345   9.8541
     9.8632   9.9214   9.9439  10.0528  10.1823  10.2018  10.2907  10.2992
    10.3233  10.3590  10.3685  10.4495  10.5495  10.5975  10.6824  10.7077
    10.7103  10.7358  10.7459  10.7595  10.7695  10.7978  10.8378  10.8506

     occupation numbers 
     1.0000   1.0000   1.0000   1.0000   1.0000   1.0000   1.0000   1.0000
     1.0000   1.0000   1.0000   1.0000   1.0000   1.0000   1.0000   1.0000
     1.0000   1.0000   1.0000   1.0000   1.0000   1.0000   1.0000   1.0000
     1.0000   1.0000   1.0000   1.0000   1.0000   1.0000   1.0000   1.0000
     1.0000   1.0000   1.0000   1.0000   1.0000   1.0000   1.0000   1.0000
     1.0000   1.0000   1.0000   1.0000   1.0000   1.0000   1.0000   1.0000
     1.0000   1.0000   1.0000   1.0000   1.0000   1.0000   1.0000   1.0000
     1.0000   1.0000   1.0000   1.0000   1.0000   1.0000   1.0000   1.0000
     1.0000   1.0000   1.0000   1.0000   1.0000   1.0000   1.0000   1.0000
     1.0000   1.0000   1.0000   1.0000   1.0000   1.0000   1.0000   1.0000
     1.0000   1.0000   1.0000   1.0000   1.0000   1.0000   1.0000   1.0000
     1.0000   1.0000   1.0000   1.0000   1.0000   1.0000   1.0000   1.0000
[...]
     atom   25 type  1   force =     0.00000000    0.00000000    0.00000000
     atom   26 type  1   force =     0.00000000    0.00000000    0.00000000
     atom   27 type  1   force =     0.00000000    0.00000000    0.00000000
     atom   28 type  1   force =     0.00000000    0.00000000    0.00000000
     atom   29 type  1   force =     0.00000000    0.00000000    0.00000000
     atom   30 type  1   force =     0.00000000    0.00000000    0.00000000
     atom   31 type  1   force =     0.00000000    0.00000000    0.00000000
     atom   32 type  1   force =     0.00000000    0.00000000    0.00000000
     atom   33 type  1   force =     0.00000000    0.00000000    0.00000000
     atom   34 type  1   force =     0.00000000    0.00000000    0.00000000
     atom   35 type  1   force =     0.00000000    0.00000000    0.00000000
     atom   36 type  1   force =     0.00000000    0.00000000    0.00000000
     atom   37 type  1   force =     0.00000000    0.00000000    0.00000000
     atom   38 type  1   force =     0.00000000    0.00000000    0.00000000
     atom   39 type  1   force =     0.00000000    0.00000000    0.00000000
     atom   40 type  1   force =     0.00000000    0.00000000    0.00000000
     atom   41 type  1   force =     0.00000000    0.00000000    0.00000000
     atom   42 type  1   force =     0.00000000    0.00000000    0.00000000
     atom   43 type  1   force =     0.00000000    0.00000000    0.00000000
     atom   44 type  1   force =     0.00000000    0.00000000    0.00000000
     atom   45 type  1   force =     0.00000000    0.00000000    0.00000000
     atom   46 type  1   force =     0.00000000    0.00000000    0.00000000
     atom   47 type  1   force =     0.00000000    0.00000000    0.00000000
     atom   48 type  1   force =     0.00000000    0.00000000    0.00000000
     atom   49 type  1   force =     0.00000000    0.00000000    0.00000000
     atom   50 type  1   force =     0.00000000    0.00000000    0.00000000
     atom   51 type  1   force =     0.00000000    0.00000000    0.00000000
     atom   52 type  1   force =     0.00000000    0.00000000    0.00000000
     atom   53 type  1   force =     0.00000000    0.00000000    0.00000000
     atom   54 type  1   force =     0.00000000    0.00000000    0.00000000
     atom   55 type  1   force =     0.00000000    0.00000000    0.00000000
     atom   56 type  1   force =     0.00000000    0.00000000    0.00000000
     atom   57 type  1   force =     0.00000000    0.00000000    0.00000000
     atom   58 type  1   force =     0.00000000    0.00000000    0.00000000
     atom   59 type  1   force =     0.00000000    0.00000000    0.00000000
     atom   60 type  1   force =     0.00000000    0.00000000    0.00000000
     atom   61 type  1   force =     0.00000000    0.00000000    0.00000000
     atom   62 type  1   force =     0.00000000    0.00000000    0.00000000
     atom   63 type  1   force =     0.00000000    0.00000000    0.00000000
     atom   64 type  1   force =     0.00000000    0.00000000    0.00000000
     The Hubbard contrib.    to forces
     atom    1 type  1   force =     0.00000000    0.00000000    0.00000000
     atom    2 type  1   force =     0.00000000    0.00000000    0.00000000
     atom    3 type  1   force =     0.00000000    0.00000000    0.00000000
     atom    4 type  1   force =     0.00000000    0.00000000    0.00000000
     atom    5 type  1   force =     0.00000000    0.00000000    0.00000000
     atom    6 type  1   force =     0.00000000    0.00000000    0.00000000
     atom    7 type  1   force =     0.00000000    0.00000000    0.00000000
     atom    8 type  1   force =     0.00000000    0.00000000    0.00000000
     atom    9 type  1   force =     0.00000000    0.00000000    0.00000000
     atom   10 type  1   force =     0.00000000    0.00000000    0.00000000
     atom   11 type  1   force =     0.00000000    0.00000000    0.00000000
     atom   12 type  1   force =     0.00000000    0.00000000    0.00000000
     atom   13 type  1   force =     0.00000000    0.00000000    0.00000000
     atom   14 type  1   force =     0.00000000    0.00000000    0.00000000
     atom   15 type  1   force =     0.00000000    0.00000000    0.00000000
     atom   16 type  1   force =     0.00000000    0.00000000    0.00000000
     atom   17 type  1   force =     0.00000000    0.00000000    0.00000000
     atom   18 type  1   force =     0.00000000    0.00000000    0.00000000
     atom   19 type  1   force =     0.00000000    0.00000000    0.00000000
     atom   20 type  1   force =     0.00000000    0.00000000    0.00000000
     atom   21 type  1   force =     0.00000000    0.00000000    0.00000000
     atom   22 type  1   force =     0.00000000    0.00000000    0.00000000
     atom   23 type  1   force =     0.00000000    0.00000000    0.00000000
     atom   24 type  1   force =     0.00000000    0.00000000    0.00000000
     atom   25 type  1   force =     0.00000000    0.00000000    0.00000000
     atom   26 type  1   force =     0.00000000    0.00000000    0.00000000
     atom   27 type  1   force =     0.00000000    0.00000000    0.00000000
     atom   28 type  1   force =     0.00000000    0.00000000    0.00000000
     atom   29 type  1   force =     0.00000000    0.00000000    0.00000000
     atom   30 type  1   force =     0.00000000    0.00000000    0.00000000
     atom   31 type  1   force =     0.00000000    0.00000000    0.00000000
     atom   32 type  1   force =     0.00000000    0.00000000    0.00000000
     atom   33 type  1   force =     0.00000000    0.00000000    0.00000000
     atom   34 type  1   force =     0.00000000    0.00000000    0.00000000
     atom   35 type  1   force =     0.00000000    0.00000000    0.00000000
     atom   36 type  1   force =     0.00000000    0.00000000    0.00000000
     atom   37 type  1   force =     0.00000000    0.00000000    0.00000000
     atom   38 type  1   force =     0.00000000    0.00000000    0.00000000
     atom   39 type  1   force =     0.00000000    0.00000000    0.00000000
     atom   40 type  1   force =     0.00000000    0.00000000    0.00000000
     atom   41 type  1   force =     0.00000000    0.00000000    0.00000000
     atom   42 type  1   force =     0.00000000    0.00000000    0.00000000
     atom   43 type  1   force =     0.00000000    0.00000000    0.00000000
     atom   44 type  1   force =     0.00000000    0.00000000    0.00000000
     atom   45 type  1   force =     0.00000000    0.00000000    0.00000000
     atom   46 type  1   force =     0.00000000    0.00000000    0.00000000
     atom   47 type  1   force =     0.00000000    0.00000000    0.00000000
     atom   48 type  1   force =     0.00000000    0.00000000    0.00000000
     atom   49 type  1   force =     0.00000000    0.00000000    0.00000000
     atom   50 type  1   force =     0.00000000    0.00000000    0.00000000
     atom   51 type  1   force =     0.00000000    0.00000000    0.00000000
     atom   52 type  1   force =     0.00000000    0.00000000    0.00000000
     atom   53 type  1   force =     0.00000000    0.00000000    0.00000000
     atom   54 type  1   force =     0.00000000    0.00000000    0.00000000
     atom   55 type  1   force =     0.00000000    0.00000000    0.00000000
     atom   56 type  1   force =     0.00000000    0.00000000    0.00000000
     atom   57 type  1   force =     0.00000000    0.00000000    0.00000000
     atom   58 type  1   force =     0.00000000    0.00000000    0.00000000
     atom   59 type  1   force =     0.00000000    0.00000000    0.00000000
     atom   60 type  1   force =     0.00000000    0.00000000    0.00000000
     atom   61 type  1   force =     0.00000000    0.00000000    0.00000000
     atom   62 type  1   force =     0.00000000    0.00000000    0.00000000
     atom   63 type  1   force =     0.00000000    0.00000000    0.00000000
     atom   64 type  1   force =     0.00000000    0.00000000    0.00000000
     The SCF correction term to forces
     atom    1 type  1   force =    -0.00001625   -0.00004055   -0.00105172
     atom    2 type  1   force =    -0.00001414    0.00003509   -0.00114376
     atom    3 type  1   force =    -0.00003122    0.00015951   -0.00157018
     atom    4 type  1   force =    -0.00003073   -0.00015679   -0.00116185
     atom    5 type  1   force =    -0.00005990   -0.00017741    0.00102531
     atom    6 type  1   force =    -0.00005186    0.00017408    0.00116631
     atom    7 type  1   force =    -0.00005513   -0.00040370    0.00145108
     atom    8 type  1   force =    -0.00005236    0.00039793    0.00142323
     atom    9 type  1   force =    -0.00000881   -0.00026630   -0.00108059
     atom   10 type  1   force =    -0.00002085    0.00027021   -0.00112108
     atom   11 type  1   force =    -0.00002839   -0.00009987   -0.00142682
     atom   12 type  1   force =    -0.00003176    0.00009642   -0.00130342
     atom   13 type  1   force =    -0.00005449    0.00019872    0.00088675
     atom   14 type  1   force =    -0.00005434   -0.00019504    0.00130502
     atom   15 type  1   force =    -0.00005457   -0.00007562    0.00150726
     atom   16 type  1   force =    -0.00005150    0.00008221    0.00136796
     atom   17 type  1   force =     0.00001872   -0.00004714   -0.00127674
     atom   18 type  1   force =     0.00001708    0.00004215   -0.00137196
     atom   19 type  1   force =     0.00004106    0.00015690   -0.00137447
     atom   20 type  1   force =     0.00003118   -0.00014716   -0.00098180
     atom   21 type  1   force =     0.00005604   -0.00017039    0.00134649
     atom   22 type  1   force =     0.00003851    0.00016957    0.00149726
     atom   23 type  1   force =     0.00005681   -0.00038009    0.00153876
     atom   24 type  1   force =     0.00004705    0.00036665    0.00154423
     atom   25 type  1   force =     0.00001327   -0.00026935   -0.00131372
     atom   26 type  1   force =     0.00002181    0.00027049   -0.00133508
     atom   27 type  1   force =     0.00003205   -0.00012070   -0.00124937
     atom   28 type  1   force =     0.00004369    0.00011039   -0.00110635
     atom   29 type  1   force =     0.00004594    0.00015729    0.00121723
     atom   30 type  1   force =     0.00004440   -0.00015563    0.00163095
     atom   31 type  1   force =     0.00005544   -0.00009038    0.00159679
     atom   32 type  1   force =     0.00004685    0.00010302    0.00148771
     atom   33 type  1   force =    -0.00042194    0.00017425   -0.00158830
     atom   34 type  1   force =    -0.00044685   -0.00018444   -0.00148100
     atom   35 type  1   force =    -0.00037489    0.00008129   -0.00049316
     atom   36 type  1   force =    -0.00036309   -0.00008483   -0.00027835
     atom   37 type  1   force =    -0.00013307   -0.00031311    0.00156166
     atom   38 type  1   force =    -0.00012724    0.00030354    0.00137619
     atom   39 type  1   force =     0.00000641   -0.00020902    0.00130761
     atom   40 type  1   force =     0.00001631    0.00020870    0.00142414
     atom   41 type  1   force =    -0.00043941   -0.00021054   -0.00151329
     atom   42 type  1   force =    -0.00042614    0.00022263   -0.00155666
     atom   43 type  1   force =    -0.00037867    0.00009226   -0.00060738
     atom   44 type  1   force =    -0.00037839   -0.00008925   -0.00015613
     atom   45 type  1   force =    -0.00012911   -0.00001479    0.00128444
     atom   46 type  1   force =    -0.00013161    0.00002496    0.00165300
     atom   47 type  1   force =     0.00002217   -0.00034161    0.00142342
     atom   48 type  1   force =     0.00000531    0.00034067    0.00131709
     atom   49 type  1   force =     0.00042125    0.00016668   -0.00155852
     atom   50 type  1   force =     0.00044110   -0.00016944   -0.00146360
     atom   51 type  1   force =     0.00037193    0.00008280   -0.00047023
     atom   52 type  1   force =     0.00037370   -0.00008185   -0.00025709
     atom   53 type  1   force =     0.00012949   -0.00030937    0.00158759
     atom   54 type  1   force =     0.00013882    0.00030243    0.00140275
     atom   55 type  1   force =    -0.00001027   -0.00020677    0.00128228
     atom   56 type  1   force =    -0.00001428    0.00020798    0.00139828
     atom   57 type  1   force =     0.00043149   -0.00022643   -0.00149697
     atom   58 type  1   force =     0.00041968    0.00023277   -0.00152787
     atom   59 type  1   force =     0.00037187    0.00008548   -0.00058004
     atom   60 type  1   force =     0.00037368   -0.00008768   -0.00012741
     atom   61 type  1   force =     0.00012790   -0.00001945    0.00131043
     atom   62 type  1   force =     0.00014175    0.00002553    0.00167548
     atom   63 type  1   force =    -0.00002040   -0.00034035    0.00139199
     atom   64 type  1   force =    -0.00000840    0.00033814    0.00128516

     Total force =     0.121842     Total SCF correction =     0.010667


     Computing stress (Cartesian axis) and pressure

          total   stress  (Ry/bohr**3)                   (kbar)     P=     -299.53
  -0.00216116  -0.00000000  -0.00000000         -317.92       -0.00       -0.00
  -0.00000000  -0.00201021  -0.00000032           -0.00     -295.71       -0.05
  -0.00000000  -0.00000032  -0.00193715           -0.00       -0.05     -284.97

     kinetic stress (kbar)  16017.98      0.00     -0.00
                                0.00  15991.06     -0.00
                               -0.00     -0.00  16051.27

     local   stress (kbar)**********     -0.00     -0.04
                               -0.00**********     -0.15
                               -0.04     -0.151322859.28

     nonloc. stress (kbar)  -1976.94     -0.00      0.00
                               -0.00  -1937.60     -0.04
                                0.00     -0.04  -1989.24

     hartree stress (kbar) 688796.64      0.00      0.02
                                0.00 696065.07      0.06
                                0.02      0.06-617398.47

     exc-cor stress (kbar)  -8012.73     -0.00      0.00
                               -0.00  -8008.23      0.00
                                0.00      0.00  -8016.23

     corecor stress (kbar)      0.00      0.00      0.00
                                0.00      0.00      0.00
                                0.00      0.00      0.00

     ewald   stress (kbar) 610469.72      0.00      0.02
                                0.00 620124.16      0.08
                                0.02      0.08-711791.59

     hubbard stress (kbar)      0.00      0.00      0.00
                                0.00      0.00      0.00
                                0.00      0.00      0.00

     DFT-D   stress (kbar)      0.00      0.00      0.00
                                0.00      0.00      0.00
                                0.00      0.00      0.00

     XDM     stress (kbar)      0.00      0.00      0.00
                                0.00      0.00      0.00
                                0.00      0.00      0.00

     dft-nl  stress (kbar)      0.00      0.00      0.00
                                0.00      0.00      0.00
                                0.00      0.00      0.00

     TS-vdW  stress (kbar)      0.00      0.00      0.00
                                0.00      0.00      0.00
                                0.00      0.00      0.00

     MDB     stress (kbar)      0.00      0.00      0.00
                                0.00      0.00      0.00
                                0.00      0.00      0.00

     3D-RISM stress (kbar)      0.00      0.00      0.00
                                0.00      0.00      0.00
                                0.00      0.00      0.00


     Writing all to output data dir ./tmp/Zn100_2x2x4_scf.save/ :
     XML data file, charge density, pseudopotentials, collected wavefunctions

     init_run     :    132.08s CPU    133.24s WALL (       1 calls)
     electrons    :   7613.98s CPU   7678.07s WALL (       1 calls)
     forces       :     95.85s CPU     96.25s WALL (       1 calls)
     stress       :    313.89s CPU    314.92s WALL (       1 calls)

     Called by init_run:
     wfcinit      :    131.27s CPU    132.41s WALL (       1 calls)
     wfcinit:atom :      0.05s CPU      0.09s WALL (       5 calls)
     wfcinit:wfcr :    130.28s CPU    131.31s WALL (       5 calls)
     potinit      :      0.04s CPU      0.05s WALL (       1 calls)
     hinit0       :      0.03s CPU      0.03s WALL (       1 calls)

     Called by electrons:
     c_bands      :   7123.76s CPU   7182.07s WALL (      16 calls)
     sum_band     :    479.43s CPU    484.91s WALL (      16 calls)
     v_of_rho     :      0.63s CPU      0.67s WALL (      16 calls)
     v_h          :      0.03s CPU      0.03s WALL (      16 calls)
     v_xc         :      0.60s CPU      0.63s WALL (      16 calls)
     newd         :     10.75s CPU     10.99s WALL (      16 calls)
     mix_rho      :      0.09s CPU      0.09s WALL (      16 calls)

     Called by c_bands:
     init_us_2    :      3.85s CPU      3.88s WALL (     175 calls)
     cegterg      :   7113.33s CPU   7171.56s WALL (      80 calls)

     Called by sum_band:
     sum_band:wei :      0.05s CPU      0.05s WALL (      16 calls)
     sum_band:loo :    471.04s CPU    476.29s WALL (      16 calls)
     sum_band:buf :      0.81s CPU      0.81s WALL (      80 calls)
     sum_band:ini :      1.78s CPU      1.78s WALL (      80 calls)
     sum_band:cal :    423.68s CPU    425.16s WALL (      80 calls)
     sum_band:bec :      3.04s CPU      3.05s WALL (      80 calls)
     addusdens    :      8.01s CPU      8.24s WALL (      16 calls)
                                        0.00s GPU  (      16 calls)
     addusd:skk   :      0.08s CPU      0.08s WALL (      16 calls)
                                        0.00s GPU  (      16 calls)

     Called by *egterg:
     cdiaghg      :    633.36s CPU    650.80s WALL (     489 calls)
     cegterg:over :   1200.61s CPU   1203.89s WALL (     414 calls)
     cegterg:upda :    555.46s CPU    557.66s WALL (     414 calls)
     cegterg:last :   1577.52s CPU   1582.89s WALL (     150 calls)
     cdiaghg:chol :     47.37s CPU     47.49s WALL (     489 calls)
     cdiaghg:inve :     10.51s CPU     10.54s WALL (     489 calls)
     cdiaghg:para :    227.25s CPU    231.18s WALL (     978 calls)
     h_psi        :   2044.07s CPU   2069.98s WALL (     499 calls)
     s_psi        :    842.72s CPU    844.75s WALL (     499 calls)
     g_psi        :      0.72s CPU      0.72s WALL (     414 calls)

     Called by h_psi:
     h_psi:calbec :    997.36s CPU   1000.89s WALL (     499 calls)
     vloc_psi     :    195.66s CPU    214.88s WALL (     499 calls)
     add_vuspsi   :    849.72s CPU    851.78s WALL (     499 calls)

     General routines
     calbec       :   1539.10s CPU   1544.55s WALL (     604 calls)
     fft          :      0.47s CPU      0.52s WALL (     185 calls)
     ffts         :      0.03s CPU      0.03s WALL (      16 calls)
     fftw         :    214.93s CPU    236.04s WALL (  348280 calls)

     Parallel routines

     PWSCF        :      2h15m CPU      2h17m WALL


   This run was terminated on:  18: 2:57  22Mar2025            

=------------------------------------------------------------------------------=
   JOB DONE.
=------------------------------------------------------------------------------=
Note: The following floating-point exceptions are signalling: IEEE_DENORMAL
Note: The following floating-point exceptions are signalling: IEEE_DENORMAL
Note: The following floating-point exceptions are signalling: IEEE_DENORMAL
Note: The following floating-point exceptions are signalling: IEEE_DENORMAL
Note: The following floating-point exceptions are signalling: IEEE_DENORMAL
Note: The following floating-point exceptions are signalling: IEEE_DENORMAL
Note: The following floating-point exceptions are signalling: IEEE_DENORMAL
