--------------------------------------------------------------------------
By default, for Open MPI 4.0 and later, infiniband ports on a device
are not used by default.  The intent is to use UCX for these devices.
You can override this policy by setting the btl_openib_allow_ib MCA parameter
to true.

  Local host:              psid02
  Local adapter:           mlx5_0
  Local port:              1

--------------------------------------------------------------------------
--------------------------------------------------------------------------
WARNING: There was an error initializing an OpenFabrics device.

  Local host:   psid02
  Local device: mlx5_0
--------------------------------------------------------------------------

     Program PWSCF v.7.3.1 starts on 22Mar2025 at 15:32:44 

     This program is part of the open-source Quantum ESPRESSO suite
     for quantum simulation of materials; please cite
         "P. Giannozzi et al., J. Phys.:Condens. Matter 21 395502 (2009);
         "P. Giannozzi et al., J. Phys.:Condens. Matter 29 465901 (2017);
         "P. Giannozzi et al., J. Chem. Phys. 152 154105 (2020);
          URL http://www.quantum-espresso.org", 
     in publications or presentations arising from this work. More details at
     http://www.quantum-espresso.org/quote

     Parallel version (MPI), running on    16 processors

     MPI processes distributed on     1 nodes
     67905 MiB available memory on the printing compute node when the environment starts

     Waiting for input...
     Reading input from standard input
Warning: card &CELL ignored
Warning: card   CELL_DOFREE = 'ALL' ignored
Warning: card / ignored

     Current dimensions of program PWSCF are:
     Max number of different atomic species (ntypx) = 10
     Max number of k-points (npk) =  40000
     Max angular momentum in pseudopotentials (lmaxx) =  4

     R & G space division:  proc/nbgrp/npool/nimage =      16
     Subspace diagonalization in iterative solution of the eigenvalue problem:
     one sub-group per band group will be used
     custom distributed-memory algorithm (size of sub-group:  4*  4 procs)


     Parallelization info
     --------------------
     sticks:   dense  smooth     PW     G-vecs:    dense   smooth      PW
     Min         239     239     67                23374    23374    3471
     Max         240     240     68                23379    23379    3477
     Sum        3835    3835   1083               374027   374027   55577

     Using Slab Decomposition



     bravais-lattice index     =            0
     lattice parameter (alat)  =      20.9009  a.u.
     unit-cell volume          =   16846.7507 (a.u.)^3
     number of atoms/cell      =           64
     number of atomic types    =            1
     number of electrons       =      1280.00
     number of Kohn-Sham states=          768
     kinetic-energy cutoff     =      30.0000  Ry
     charge density cutoff     =     120.0000  Ry
     scf convergence threshold =      7.3E-07
     mixing beta               =       0.7000
     number of iterations used =            8  plain     mixing
     Exchange-correlation= SLA  PW   PBE  PBE
                           (   1   4   3   4   0   0   0)

     celldm(1)=  20.900943  celldm(2)=   0.000000  celldm(3)=   0.000000
     celldm(4)=   0.000000  celldm(5)=   0.000000  celldm(6)=   0.000000

     crystal axes: (cart. coord. in units of alat)
               a(1) = (   1.000000   0.000000   0.000000 )  
               a(2) = (  -0.223489   0.918700   0.000000 )  
               a(3) = (  -4.200249  -1.021781   2.008375 )  

     reciprocal axes: (cart. coord. in units 2 pi/alat)
               b(1) = (  1.000000  0.243267  2.215131 )  
               b(2) = ( -0.000000  1.088495  0.553783 )  
               b(3) = (  0.000000 -0.000000  0.497915 )  


     PseudoPot. # 1 for Zn read from file:
     /home/ys/qepseudo/SSSP_1.3.0_PBE_efficiency/Zn_pbe_v1.uspp.F.UPF
     MD5 check sum: df62231357ef9e81f77b2b3087fa5675
     Pseudo is Ultrasoft, Zval = 20.0
     Generated by new atomic code, or converted to UPF format
     Using radial grid of  943 points,  6 beta functions with: 
                l(1) =   0
                l(2) =   0
                l(3) =   1
                l(4) =   1
                l(5) =   2
                l(6) =   2
     Q(r) pseudized with  8 coefficients,  rinner =    1.100   1.100   1.100
                                                       1.100   1.100

     atomic species   valence    mass     pseudopotential
     Zn               20.00    65.38000     Zn( 1.00)

     No symmetry found


                                    s                        frac. trans.

      isym =  1     identity                                     

 cryst.   s( 1) = (     1          0          0      )
                  (     0          1          0      )
                  (     0          0          1      )

 cart.    s( 1) = (  1.0000000  0.0000000  0.0000000 )
                  (  0.0000000  1.0000000  0.0000000 )
                  (  0.0000000  0.0000000  1.0000000 )


   Cartesian axes

     site n.     atom                  positions (alat units)
         1        Zn     tau(   1) = (  -0.0970639   0.0980210   0.1082939  )
         2        Zn     tau(   2) = (  -0.2088085   0.5573710   0.1082939  )
         3        Zn     tau(   3) = (  -0.4853192   0.0035714   0.2939406  )
         4        Zn     tau(   4) = (  -0.5970639   0.4629214   0.2939406  )
         5        Zn     tau(   5) = (  -0.8778168  -0.0917986   0.5024637  )
         6        Zn     tau(   6) = (  -0.9895264   0.3675466   0.5024137  )
         7        Zn     tau(   7) = (  -1.2406027  -0.1798552   0.6910406  )
         8        Zn     tau(   8) = (  -1.3522669   0.2794611   0.6910199  )
         9        Zn     tau(   9) = (  -0.1529362   0.3276960   0.1082939  )
        10        Zn     tau(  10) = (  -0.2646808   0.7870460   0.1082939  )
        11        Zn     tau(  11) = (  -0.5411915   0.2332464   0.2939406  )
        12        Zn     tau(  12) = (  -0.6529362   0.6925964   0.2939406  )
        13        Zn     tau(  13) = (  -0.9336469   0.1378867   0.5024624  )
        14        Zn     tau(  14) = (  -1.0454415   0.5972109   0.5024147  )
        15        Zn     tau(  15) = (  -1.2963824   0.0498229   0.6909782  )
        16        Zn     tau(  16) = (  -1.4082339   0.5091311   0.6910822  )
        17        Zn     tau(  17) = (   0.4029361   0.0980210   0.1082939  )
        18        Zn     tau(  18) = (   0.2911915   0.5573710   0.1082939  )
        19        Zn     tau(  19) = (   0.0146808   0.0035714   0.2939406  )
        20        Zn     tau(  20) = (  -0.0970639   0.4629214   0.2939406  )
        21        Zn     tau(  21) = (  -0.3778584  -0.0918024   0.5025944  )
        22        Zn     tau(  22) = (  -0.4896087   0.3675192   0.5025659  )
        23        Zn     tau(  23) = (  -0.7409254  -0.1799822   0.6911262  )
        24        Zn     tau(  24) = (  -0.8527216   0.2793980   0.6911899  )
        25        Zn     tau(  25) = (   0.3470638   0.3276960   0.1082939  )
        26        Zn     tau(  26) = (   0.2353192   0.7870460   0.1082939  )
        27        Zn     tau(  27) = (  -0.0411915   0.2332464   0.2939406  )
        28        Zn     tau(  28) = (  -0.1529362   0.6925964   0.2939406  )
        29        Zn     tau(  29) = (  -0.4337391   0.1378295   0.5025928  )
        30        Zn     tau(  30) = (  -0.5454721   0.5972380   0.5025679  )
        31        Zn     tau(  31) = (  -0.7968526   0.0496773   0.6911857  )
        32        Zn     tau(  32) = (  -0.9085381   0.5090884   0.6911313  )
        33        Zn     tau(  33) = (   0.1529362   0.0372043   0.0773528  )
        34        Zn     tau(  34) = (   0.0411915   0.4965543   0.0773528  )
        35        Zn     tau(  35) = (  -0.2353192  -0.0572454   0.2629995  )
        36        Zn     tau(  36) = (  -0.3470638   0.4021046   0.2629995  )
        37        Zn     tau(  37) = (  -0.6280951  -0.1529585   0.4553783  )
        38        Zn     tau(  38) = (  -0.7398296   0.3064181   0.4553934  )
        39        Zn     tau(  39) = (  -1.0052352  -0.2442836   0.6603749  )
        40        Zn     tau(  40) = (  -1.1168712   0.2151081   0.6603799  )
        41        Zn     tau(  41) = (   0.0970639   0.2668793   0.0773528  )
        42        Zn     tau(  42) = (  -0.0146808   0.7262293   0.0773528  )
        43        Zn     tau(  43) = (  -0.2911915   0.1724296   0.2629995  )
        44        Zn     tau(  44) = (  -0.4029361   0.6317796   0.2629995  )
        45        Zn     tau(  45) = (  -0.6839755   0.0767104   0.4553893  )
        46        Zn     tau(  46) = (  -0.7956904   0.5360988   0.4553814  )
        47        Zn     tau(  47) = (  -1.0610488  -0.0145857   0.6603978  )
        48        Zn     tau(  48) = (  -1.1728037   0.4447627   0.6603571  )
        49        Zn     tau(  49) = (   0.6529362   0.0372043   0.0773528  )
        50        Zn     tau(  50) = (   0.5411915   0.4965543   0.0773528  )
        51        Zn     tau(  51) = (   0.2646808  -0.0572454   0.2629995  )
        52        Zn     tau(  52) = (   0.1529362   0.4021046   0.2629995  )
        53        Zn     tau(  53) = (  -0.1280445  -0.1528982   0.4553743  )
        54        Zn     tau(  54) = (  -0.2397657   0.3063891   0.4553297  )
        55        Zn     tau(  55) = (  -0.5055002  -0.2443167   0.6603316  )
        56        Zn     tau(  56) = (  -0.6173111   0.2149623   0.6603566  )
        57        Zn     tau(  57) = (   0.5970639   0.2668793   0.0773528  )
        58        Zn     tau(  58) = (   0.4853192   0.7262293   0.0773528  )
        59        Zn     tau(  59) = (   0.2088085   0.1724296   0.2629995  )
        60        Zn     tau(  60) = (   0.0970639   0.6317796   0.2629995  )
        61        Zn     tau(  61) = (  -0.1838756   0.0767547   0.4553744  )
        62        Zn     tau(  62) = (  -0.2956772   0.5360837   0.4553280  )
        63        Zn     tau(  63) = (  -0.5614277  -0.0146977   0.6603020  )
        64        Zn     tau(  64) = (  -0.6731294   0.4446946   0.6603871  )

   Crystallographic axes

     site n.     atom                  positions (cryst. coord.)
         1        Zn     tau(   1) = (  0.1666667  0.1666667  0.0539212  )
         2        Zn     tau(   2) = (  0.1666667  0.6666667  0.0539212  )
         3        Zn     tau(   3) = (  0.1666667  0.1666667  0.1463574  )
         4        Zn     tau(   4) = (  0.1666667  0.6666667  0.1463574  )
         5        Zn     tau(   5) = (  0.2128747  0.1783335  0.2501842  )
         6        Zn     tau(   6) = (  0.2127978  0.6783005  0.2501593  )
         7        Zn     tau(   7) = (  0.2463902  0.1869149  0.3440795  )
         8        Zn     tau(   8) = (  0.2464166  0.6868668  0.3440692  )
         9        Zn     tau(   9) = (  0.1666667  0.4166667  0.0539212  )
        10        Zn     tau(  10) = (  0.1666667  0.9166667  0.0539212  )
        11        Zn     tau(  11) = (  0.1666667  0.4166667  0.1463574  )
        12        Zn     tau(  12) = (  0.1666667  0.9166667  0.1463574  )
        13        Zn     tau(  13) = (  0.2129167  0.4283440  0.2501836  )
        14        Zn     tau(  14) = (  0.2127547  0.9282895  0.2501598  )
        15        Zn     tau(  15) = (  0.2463452  0.4368838  0.3440484  )
        16        Zn     tau(  16) = (  0.2464587  0.9368959  0.3441002  )
        17        Zn     tau(  17) = (  0.6666667  0.1666667  0.0539212  )
        18        Zn     tau(  18) = (  0.6666667  0.6666667  0.0539212  )
        19        Zn     tau(  19) = (  0.6666667  0.1666667  0.1463574  )
        20        Zn     tau(  20) = (  0.6666667  0.6666667  0.1463574  )
        21        Zn     tau(  21) = (  0.7131217  0.1784017  0.2502493  )
        22        Zn     tau(  22) = (  0.7130461  0.6783550  0.2502351  )
        23        Zn     tau(  23) = (  0.7462263  0.1868242  0.3441221  )
        24        Zn     tau(  24) = (  0.7463231  0.6868923  0.3441538  )
        25        Zn     tau(  25) = (  0.6666667  0.4166667  0.0539212  )
        26        Zn     tau(  26) = (  0.6666667  0.9166667  0.0539212  )
        27        Zn     tau(  27) = (  0.6666667  0.4166667  0.1463574  )
        28        Zn     tau(  28) = (  0.6666667  0.9166667  0.1463574  )
        29        Zn     tau(  29) = (  0.7130994  0.4283539  0.2502485  )
        30        Zn     tau(  30) = (  0.7130701  0.9284039  0.2502361  )
        31        Zn     tau(  31) = (  0.7462994  0.4368403  0.3441517  )
        32        Zn     tau(  32) = (  0.7462528  0.9368766  0.3441246  )
        33        Zn     tau(  33) = (  0.3333333  0.0833333  0.0385151  )
        34        Zn     tau(  34) = (  0.3333333  0.5833333  0.0385151  )
        35        Zn     tau(  35) = (  0.3333333  0.0833333  0.1309514  )
        36        Zn     tau(  36) = (  0.3333333  0.5833333  0.1309514  )
        37        Zn     tau(  37) = (  0.3434179  0.0856861  0.2267397  )
        38        Zn     tau(  38) = (  0.3434679  0.5857235  0.2267472  )
        39        Zn     tau(  39) = (  0.3981557  0.0998028  0.3288105  )
        40        Zn     tau(  40) = (  0.3982858  0.5998511  0.3288131  )
        41        Zn     tau(  41) = (  0.3333333  0.3333333  0.0385151  )
        42        Zn     tau(  42) = (  0.3333333  0.8333333  0.0385151  )
        43        Zn     tau(  43) = (  0.3333333  0.3333333  0.1309514  )
        44        Zn     tau(  44) = (  0.3333333  0.8333333  0.1309514  )
        45        Zn     tau(  45) = (  0.3434327  0.3356857  0.2267452  )
        46        Zn     tau(  46) = (  0.3434542  0.8357230  0.2267412  )
        47        Zn     tau(  47) = (  0.3982709  0.3498405  0.3288220  )
        48        Zn     tau(  48) = (  0.3981701  0.8498162  0.3288017  )
        49        Zn     tau(  49) = (  0.8333333  0.0833333  0.0385151  )
        50        Zn     tau(  50) = (  0.8333333  0.5833333  0.0385151  )
        51        Zn     tau(  51) = (  0.8333333  0.0833333  0.1309514  )
        52        Zn     tau(  52) = (  0.8333333  0.5833333  0.1309514  )
        53        Zn     tau(  53) = (  0.8434743  0.0857495  0.2267377  )
        54        Zn     tau(  54) = (  0.8433836  0.5856566  0.2267155  )
        55        Zn     tau(  55) = (  0.8977868  0.0997428  0.3287890  )
        56        Zn     tau(  56) = (  0.8977586  0.5996794  0.3288014  )
        57        Zn     tau(  57) = (  0.8333333  0.3333333  0.0385151  )
        58        Zn     tau(  58) = (  0.8333333  0.8333333  0.0385151  )
        59        Zn     tau(  59) = (  0.8333333  0.3333333  0.1309514  )
        60        Zn     tau(  60) = (  0.8333333  0.8333333  0.1309514  )
        61        Zn     tau(  61) = (  0.8435104  0.3357256  0.2267377  )
        62        Zn     tau(  62) = (  0.8433456  0.8356770  0.2267147  )
        63        Zn     tau(  63) = (  0.8976524  0.3496655  0.3287743  )
        64        Zn     tau(  64) = (  0.8978942  0.8497587  0.3288166  )

     number of k points=     5  Marzari-Vanderbilt smearing, width (Ry)=  0.0200
                       cart. coord. in units 2pi/alat
        k(    1) = (   0.0000000   0.0000000   0.0000000), wk =   0.2222222
        k(    2) = (   0.0000000   0.3628315   0.1845943), wk =   0.4444444
        k(    3) = (   0.3333333   0.0810890   0.7383771), wk =   0.4444444
        k(    4) = (   0.3333333   0.4439205   0.9229714), wk =   0.4444444
        k(    5) = (   0.3333333  -0.2817426   0.5537829), wk =   0.4444444

                       cryst. coord.
        k(    1) = (   0.0000000   0.0000000   0.0000000), wk =   0.2222222
        k(    2) = (   0.0000000   0.3333333   0.0000000), wk =   0.4444444
        k(    3) = (   0.3333333   0.0000000   0.0000000), wk =   0.4444444
        k(    4) = (   0.3333333   0.3333333   0.0000000), wk =   0.4444444
        k(    5) = (   0.3333333  -0.3333333   0.0000000), wk =   0.4444444

     Dense  grid:   374027 G-vectors     FFT dimensions: (  75,  72, 360)

     Dynamical RAM for                 wfc:      34.23 MB

     Dynamical RAM for     wfc (w. buffer):     205.38 MB

     Dynamical RAM for           str. fact:       0.36 MB

     Dynamical RAM for           local pot:       0.00 MB

     Dynamical RAM for          nlocal pot:      51.35 MB

     Dynamical RAM for                qrad:       0.88 MB

     Dynamical RAM for          rho,v,vnew:       3.91 MB

     Dynamical RAM for               rhoin:       1.30 MB

     Dynamical RAM for            rho*nmix:       5.71 MB

     Dynamical RAM for           G-vectors:       1.52 MB

     Dynamical RAM for          h,s,v(r/c):       6.75 MB

     Dynamical RAM for          <psi|beta>:      13.50 MB

     Dynamical RAM for                 psi:      68.46 MB

     Dynamical RAM for                hpsi:      68.46 MB

     Dynamical RAM for                spsi:      68.46 MB

     Dynamical RAM for      wfcinit/wfcrot:      90.02 MB

     Dynamical RAM for           addusdens:      89.18 MB

     Dynamical RAM for          addusforce:     134.56 MB

     Dynamical RAM for         addusstress:      71.70 MB

     Estimated static dynamical RAM per process >     270.15 MB

     Estimated max dynamical RAM per process >     501.49 MB

     Estimated total dynamical RAM >       7.84 GB

     Initial potential from superposition of free atoms

     starting charge    1279.9910, renormalised to    1280.0000

     negative rho (up, down):  1.808E-03 0.000E+00
     Starting wfcs are  832 randomized atomic wfcs
[psid02:64938] 15 more processes have sent help message help-mpi-btl-openib.txt / ib port not selected
[psid02:64938] Set MCA parameter "orte_base_help_aggregate" to 0 to see all help / error messages
[psid02:64938] 15 more processes have sent help message help-mpi-btl-openib.txt / error in device init

     total cpu time spent up to now is      143.9 secs

     Self-consistent Calculation

     iteration #  1     ecut=    30.00 Ry     beta= 0.70
     Davidson diagonalization with overlap

---- Real-time Memory Report at c_bands before calling an iterative solver
           369 MiB given to the printing process from OS
             0 MiB allocation reported by mallinfo(arena+hblkhd)
         58098 MiB available memory on the node where the printing process lives
------------------
     ethr =  1.00E-02,  avg # of iterations =  7.8

     Threshold (ethr) on eigenvalues was too large:
     Diagonalizing with lowered threshold

     Davidson diagonalization with overlap

---- Real-time Memory Report at c_bands before calling an iterative solver
           540 MiB given to the printing process from OS
             0 MiB allocation reported by mallinfo(arena+hblkhd)
         55006 MiB available memory on the node where the printing process lives
------------------
     ethr =  1.80E-04,  avg # of iterations =  6.6

     negative rho (up, down):  6.397E-03 0.000E+00

     total cpu time spent up to now is     1262.6 secs

     total energy              =  -29533.66347072 Ry
     estimated scf accuracy    <       2.49993378 Ry

     iteration #  2     ecut=    30.00 Ry     beta= 0.70
     Davidson diagonalization with overlap

---- Real-time Memory Report at c_bands before calling an iterative solver
           541 MiB given to the printing process from OS
             0 MiB allocation reported by mallinfo(arena+hblkhd)
         54993 MiB available memory on the node where the printing process lives
------------------
     ethr =  1.95E-04,  avg # of iterations =  4.0

     negative rho (up, down):  7.725E-03 0.000E+00

     total cpu time spent up to now is     1967.0 secs

     total energy              =  -29534.04541833 Ry
     estimated scf accuracy    <       4.75253519 Ry

     iteration #  3     ecut=    30.00 Ry     beta= 0.70
     Davidson diagonalization with overlap

---- Real-time Memory Report at c_bands before calling an iterative solver
           547 MiB given to the printing process from OS
             0 MiB allocation reported by mallinfo(arena+hblkhd)
         54860 MiB available memory on the node where the printing process lives
------------------
     ethr =  1.95E-04,  avg # of iterations =  8.4

     negative rho (up, down):  7.940E-03 0.000E+00

     total cpu time spent up to now is     2640.2 secs

     total energy              =  -29534.12794752 Ry
     estimated scf accuracy    <      17.29315892 Ry

     iteration #  4     ecut=    30.00 Ry     beta= 0.70
     Davidson diagonalization with overlap

---- Real-time Memory Report at c_bands before calling an iterative solver
           547 MiB given to the printing process from OS
             0 MiB allocation reported by mallinfo(arena+hblkhd)
         56269 MiB available memory on the node where the printing process lives
------------------
     ethr =  1.95E-04,  avg # of iterations =  6.8

     negative rho (up, down):  8.791E-03 0.000E+00

     total cpu time spent up to now is     3164.4 secs

     total energy              =  -29534.93251313 Ry
     estimated scf accuracy    <       0.31557348 Ry

     iteration #  5     ecut=    30.00 Ry     beta= 0.70
     Davidson diagonalization with overlap

---- Real-time Memory Report at c_bands before calling an iterative solver
           547 MiB given to the printing process from OS
             0 MiB allocation reported by mallinfo(arena+hblkhd)
         57827 MiB available memory on the node where the printing process lives
------------------
     ethr =  2.47E-05,  avg # of iterations = 14.0

     negative rho (up, down):  1.031E-02 0.000E+00

     total cpu time spent up to now is     3745.6 secs

     total energy              =  -29534.95542849 Ry
     estimated scf accuracy    <       0.48628756 Ry

     iteration #  6     ecut=    30.00 Ry     beta= 0.70
     Davidson diagonalization with overlap

---- Real-time Memory Report at c_bands before calling an iterative solver
           548 MiB given to the printing process from OS
             0 MiB allocation reported by mallinfo(arena+hblkhd)
         54816 MiB available memory on the node where the printing process lives
------------------
     ethr =  2.47E-05,  avg # of iterations =  5.8

     negative rho (up, down):  1.064E-02 0.000E+00

     total cpu time spent up to now is     4260.1 secs

     total energy              =  -29534.99901814 Ry
     estimated scf accuracy    <       0.00433594 Ry

     iteration #  7     ecut=    30.00 Ry     beta= 0.70
     Davidson diagonalization with overlap

---- Real-time Memory Report at c_bands before calling an iterative solver
           549 MiB given to the printing process from OS
             0 MiB allocation reported by mallinfo(arena+hblkhd)
         54800 MiB available memory on the node where the printing process lives
------------------
     ethr =  3.39E-07,  avg # of iterations = 14.0

     negative rho (up, down):  1.072E-02 0.000E+00

     total cpu time spent up to now is     4904.6 secs

     total energy              =  -29534.99991230 Ry
     estimated scf accuracy    <       0.00026570 Ry

     iteration #  8     ecut=    30.00 Ry     beta= 0.70
     Davidson diagonalization with overlap

---- Real-time Memory Report at c_bands before calling an iterative solver
           549 MiB given to the printing process from OS
             0 MiB allocation reported by mallinfo(arena+hblkhd)
         57784 MiB available memory on the node where the printing process lives
------------------
     ethr =  2.08E-08,  avg # of iterations =  2.0

     negative rho (up, down):  1.074E-02 0.000E+00

     total cpu time spent up to now is     5495.8 secs

     total energy              =  -29534.99993936 Ry
     estimated scf accuracy    <       0.00014351 Ry

     iteration #  9     ecut=    30.00 Ry     beta= 0.70
     Davidson diagonalization with overlap

---- Real-time Memory Report at c_bands before calling an iterative solver
           549 MiB given to the printing process from OS
             0 MiB allocation reported by mallinfo(arena+hblkhd)
         54758 MiB available memory on the node where the printing process lives
------------------
     ethr =  1.12E-08,  avg # of iterations =  2.0

     negative rho (up, down):  1.075E-02 0.000E+00

     total cpu time spent up to now is     5985.5 secs

     total energy              =  -29534.99994526 Ry
     estimated scf accuracy    <       0.00025343 Ry

     iteration # 10     ecut=    30.00 Ry     beta= 0.70
     Davidson diagonalization with overlap

---- Real-time Memory Report at c_bands before calling an iterative solver
           549 MiB given to the printing process from OS
             0 MiB allocation reported by mallinfo(arena+hblkhd)
         56669 MiB available memory on the node where the printing process lives
------------------
     ethr =  1.12E-08,  avg # of iterations =  2.0

     negative rho (up, down):  1.074E-02 0.000E+00

     total cpu time spent up to now is     6468.6 secs

     total energy              =  -29534.99997165 Ry
     estimated scf accuracy    <       0.00000975 Ry

     iteration # 11     ecut=    30.00 Ry     beta= 0.70
     Davidson diagonalization with overlap

---- Real-time Memory Report at c_bands before calling an iterative solver
           550 MiB given to the printing process from OS
             0 MiB allocation reported by mallinfo(arena+hblkhd)
         54731 MiB available memory on the node where the printing process lives
------------------
     ethr =  7.61E-10,  avg # of iterations =  2.0

     negative rho (up, down):  1.074E-02 0.000E+00

     total cpu time spent up to now is     6961.1 secs

     total energy              =  -29534.99997237 Ry
     estimated scf accuracy    <       0.00001066 Ry

     iteration # 12     ecut=    30.00 Ry     beta= 0.70
     Davidson diagonalization with overlap

---- Real-time Memory Report at c_bands before calling an iterative solver
           550 MiB given to the printing process from OS
             0 MiB allocation reported by mallinfo(arena+hblkhd)
         56151 MiB available memory on the node where the printing process lives
------------------
     ethr =  7.61E-10,  avg # of iterations =  2.0

     negative rho (up, down):  1.074E-02 0.000E+00

     total cpu time spent up to now is     7435.8 secs

     total energy              =  -29534.99997363 Ry
     estimated scf accuracy    <       0.00000171 Ry

     iteration # 13     ecut=    30.00 Ry     beta= 0.70
     Davidson diagonalization with overlap

---- Real-time Memory Report at c_bands before calling an iterative solver
           550 MiB given to the printing process from OS
             0 MiB allocation reported by mallinfo(arena+hblkhd)
         57956 MiB available memory on the node where the printing process lives
------------------
     ethr =  1.33E-10,  avg # of iterations =  2.0

     negative rho (up, down):  1.074E-02 0.000E+00

     total cpu time spent up to now is     7867.6 secs

     total energy              =  -29534.99997381 Ry
     estimated scf accuracy    <       0.00000109 Ry

     iteration # 14     ecut=    30.00 Ry     beta= 0.70
     Davidson diagonalization with overlap

---- Real-time Memory Report at c_bands before calling an iterative solver
           550 MiB given to the printing process from OS
             0 MiB allocation reported by mallinfo(arena+hblkhd)
         60194 MiB available memory on the node where the printing process lives
------------------
     ethr =  8.52E-11,  avg # of iterations =  2.0

     negative rho (up, down):  1.074E-02 0.000E+00

     total cpu time spent up to now is     8284.6 secs

     total energy              =  -29534.99997384 Ry
     estimated scf accuracy    <       0.00000130 Ry

     iteration # 15     ecut=    30.00 Ry     beta= 0.70
     Davidson diagonalization with overlap

---- Real-time Memory Report at c_bands before calling an iterative solver
           550 MiB given to the printing process from OS
             0 MiB allocation reported by mallinfo(arena+hblkhd)
         60194 MiB available memory on the node where the printing process lives
------------------
     ethr =  8.52E-11,  avg # of iterations =  1.0

     negative rho (up, down):  1.074E-02 0.000E+00

     total cpu time spent up to now is     8628.7 secs

     total energy              =  -29534.99997389 Ry
     estimated scf accuracy    <       0.00000114 Ry

     iteration # 16     ecut=    30.00 Ry     beta= 0.70
     Davidson diagonalization with overlap

---- Real-time Memory Report at c_bands before calling an iterative solver
           550 MiB given to the printing process from OS
             0 MiB allocation reported by mallinfo(arena+hblkhd)
         60196 MiB available memory on the node where the printing process lives
------------------
     ethr =  8.52E-11,  avg # of iterations =  1.0

     negative rho (up, down):  1.074E-02 0.000E+00

     total cpu time spent up to now is     8972.8 secs

     End of self-consistent calculation

          k = 0.0000 0.0000 0.0000 ( 46769 PWs)   bands (ev):

  -124.1218-124.1211-124.1207-124.1206-124.1206-124.1204-124.1201-124.1201
  -124.0807-124.0799-124.0797-124.0795-124.0795-124.0792-124.0790-124.0790
  -124.0188-124.0178-124.0178-124.0176-124.0175-124.0170-124.0168-124.0167
  -123.9751-123.9741-123.9740-123.9739-123.9738-123.9730-123.9727-123.9725
  -123.9469-123.9463-123.9457-123.9457-123.9457-123.9456-123.9454-123.9454
  -123.8507-123.8500-123.8498-123.8496-123.8495-123.8494-123.8489-123.8487
  -123.8208-123.8202-123.8197-123.8196-123.8196-123.8195-123.8193-123.8193
  -123.7375-123.7368-123.7366-123.7364-123.7363-123.7361-123.7357-123.7355
   -78.2271 -78.2268 -78.2143 -78.2117 -78.2112 -78.2112 -78.2107 -78.2107
   -78.2105 -78.2102 -78.2079 -78.2079 -78.2068 -78.2045 -78.2045 -78.2035
   -78.2032 -78.2028 -78.2028 -78.2027 -78.2025 -78.2025 -78.1949 -78.1945
   -78.1878 -78.1873 -78.1749 -78.1702 -78.1701 -78.1700 -78.1697 -78.1697
   -78.1692 -78.1687 -78.1685 -78.1685 -78.1657 -78.1642 -78.1642 -78.1637
   -78.1635 -78.1635 -78.1633 -78.1631 -78.1627 -78.1627 -78.1551 -78.1547
   -78.1235 -78.1227 -78.1116 -78.1081 -78.1076 -78.1076 -78.1069 -78.1067
   -78.1067 -78.1061 -78.1058 -78.1051 -78.1051 -78.1044 -78.1044 -78.1038
   -78.1031 -78.1023 -78.1022 -78.1022 -78.0997 -78.0997 -78.0918 -78.0909
   -78.0785 -78.0773 -78.0702 -78.0646 -78.0646 -78.0633 -78.0629 -78.0628
   -78.0624 -78.0621 -78.0606 -78.0605 -78.0605 -78.0599 -78.0591 -78.0589
   -78.0589 -78.0587 -78.0585 -78.0584 -78.0545 -78.0545 -78.0473 -78.0472
   -78.0469 -78.0469 -78.0465 -78.0464 -78.0463 -78.0457 -78.0457 -78.0455
   -78.0454 -78.0452 -78.0334 -78.0294 -78.0294 -78.0283 -78.0283 -78.0280
   -78.0279 -78.0268 -78.0260 -78.0260 -78.0222 -78.0222 -78.0136 -78.0135
   -77.9526 -77.9520 -77.9481 -77.9478 -77.9474 -77.9473 -77.9468 -77.9466
   -77.9463 -77.9461 -77.9390 -77.9355 -77.9355 -77.9348 -77.9347 -77.9346
   -77.9342 -77.9328 -77.9321 -77.9321 -77.9286 -77.9286 -77.9214 -77.9204
   -77.9200 -77.9198 -77.9198 -77.9196 -77.9194 -77.9193 -77.9192 -77.9191
   -77.9191 -77.9190 -77.9103 -77.9057 -77.9057 -77.9047 -77.9047 -77.9045
   -77.9043 -77.9027 -77.9000 -77.9000 -77.8958 -77.8958 -77.8870 -77.8869
   -77.8422 -77.8410 -77.8402 -77.8401 -77.8399 -77.8398 -77.8396 -77.8393
   -77.8335 -77.8329 -77.8257 -77.8223 -77.8223 -77.8216 -77.8215 -77.8210
   -77.8204 -77.8200 -77.8141 -77.8141 -77.8098 -77.8098 -77.8012 -77.8005
    -7.2869  -6.2733  -6.2164  -6.1648  -5.9609  -5.9609  -5.7722  -5.7396
    -5.6759  -5.6712  -5.6513  -5.6456  -5.6454  -5.6399  -5.6399  -5.6243
    -5.5929  -5.5925  -5.5536  -5.5534  -5.5065  -5.4961  -5.4960  -5.4940
    -5.4828  -5.4828  -5.4715  -5.4686  -5.4682  -5.4549  -5.4406  -5.4406
    -5.4152  -5.4151  -5.4049  -5.4004  -5.4004  -5.3900  -5.3879  -5.3877
    -5.3577  -5.3577  -5.3526  -5.3526  -5.3399  -5.3394  -5.3380  -5.3332
    -5.3332  -5.3186  -5.3186  -5.3133  -5.2968  -5.2943  -5.2943  -5.2812
    -5.2808  -5.2805  -5.2805  -5.2668  -5.2668  -5.2503  -5.2494  -5.2457
    -5.2457  -5.2138  -5.2138  -5.2126  -5.2126  -5.2120  -5.2116  -5.1965
    -5.1957  -5.1944  -5.1731  -5.1681  -5.1681  -5.1498  -5.1497  -5.1492
    -5.1492  -5.1431  -5.1431  -5.1297  -5.1297  -5.1228  -5.1149  -5.1051
    -5.1051  -5.1014  -5.1014  -5.1007  -5.0843  -5.0790  -5.0790  -5.0753
    -5.0686  -5.0682  -5.0611  -5.0611  -5.0503  -5.0386  -5.0386  -5.0345
    -5.0341  -5.0249  -5.0240  -5.0240  -5.0222  -5.0030  -5.0030  -4.9867
    -4.9867  -4.9864  -4.9864  -4.9767  -4.9685  -4.9680  -4.9610  -4.9610
    -4.9373  -4.9327  -4.9324  -4.9310  -4.9310  -4.9256  -4.9165  -4.9108
    -4.9108  -4.8907  -4.8905  -4.8815  -4.8812  -4.8749  -4.8727  -4.8727
    -4.8716  -4.8716  -4.8493  -4.8485  -4.8408  -4.8408  -4.8393  -4.8367
    -4.8282  -4.8281  -4.8209  -4.8208  -4.8169  -4.8169  -4.8079  -4.8045
    -4.7954  -4.7954  -4.7943  -4.7943  -4.7826  -4.7825  -4.7722  -4.7722
    -4.7649  -4.7649  -4.7634  -4.7633  -4.7465  -4.7465  -4.7439  -4.7439
    -4.7434  -4.7434  -4.7280  -4.7280  -4.7209  -4.7209  -4.7158  -4.7158
    -4.7134  -4.7043  -4.7023  -4.6983  -4.6983  -4.6821  -4.6820  -4.6745
    -4.6742  -4.6700  -4.6679  -4.6679  -4.6553  -4.6496  -4.6473  -4.6473
    -4.6400  -4.6395  -4.6276  -4.6187  -4.6187  -4.6143  -4.6143  -4.6118
    -4.6072  -4.6072  -4.5981  -4.5980  -4.5979  -4.5976  -4.5937  -4.5936
    -4.5936  -4.5821  -4.5735  -4.5735  -4.5723  -4.5723  -4.5640  -4.5636
    -4.5574  -4.5566  -4.5564  -4.5554  -4.5538  -4.5518  -4.5518  -4.5508
    -4.5508  -4.5390  -4.5390  -4.5383  -4.5300  -4.5265  -4.5222  -4.5221
    -4.5158  -4.5158  -4.5127  -4.5127  -4.5059  -4.5059  -4.5001  -4.4964
    -4.4927  -4.4927  -4.4890  -4.4890  -4.4851  -4.4845  -4.4757  -4.4648
    -4.4641  -4.4597  -4.4565  -4.4555  -4.4555  -4.4464  -4.4461  -4.4457
    -4.4309  -4.4309  -4.4308  -4.4277  -4.4277  -4.4267  -4.4263  -4.4235
    -4.4233  -4.4156  -4.3958  -4.3958  -4.3942  -4.3942  -4.3934  -4.3934
    -4.3928  -4.3924  -4.3804  -4.3800  -4.3757  -4.3757  -4.3748  -4.3711
    -4.3662  -4.3662  -4.3631  -4.3461  -4.3459  -4.3404  -4.3388  -4.3388
    -4.3302  -4.3244  -4.3244  -4.3240  -4.3240  -4.3160  -4.3009  -4.3009
    -4.2998  -4.2962  -4.2962  -4.2958  -4.2955  -4.2930  -4.2837  -4.2819
    -4.2817  -4.2707  -4.2707  -4.2628  -4.2628  -4.2505  -4.2503  -4.2485
    -4.2355  -4.2352  -4.2084  -4.2044  -4.1935  -4.1822  -4.1661  -4.1656
    -4.1494  -4.1494  -4.1305  -4.1304  -4.1262  -4.1172  -4.0601  -4.0600
    -4.0232  -3.8833  -3.8770  -3.8770  -3.4124  -3.2917  -3.2917  -3.0571
    -3.0571  -2.2633  -1.9955  -1.9955  -1.9858  -1.9858  -1.9321  -1.3000
    -1.2921  -1.2921  -1.2106  -1.1040  -1.1040  -0.7338  -0.6876  -0.6868
    -0.5667  -0.5659  -0.1824  -0.0793   0.0266   0.0266   0.0346   0.0346
     0.3602   0.3773   0.3786   0.4640   0.4662   0.6101   0.6105   0.6107
     1.2879   1.2879   1.3659   1.3932   1.3944   1.4746   1.4746   1.8108
     2.0622   2.0636   2.1988   2.2008   2.2447   2.2447   2.2768   2.5732
     2.5732   2.6124   2.6139   2.7031   2.7031   2.7780   3.2201   3.2938
     3.2938   3.4244   3.4271   3.7497   3.7518   3.9115   3.9115   3.9590
     4.5594   4.5594   4.8122   4.8122   4.8493   4.8522   4.8810   4.8810
     4.9434   4.9680   4.9821   4.9833   5.0203   5.0204   5.3841   5.4132
     5.4132   5.4925   5.6334   5.7593   5.7632   6.1077   6.1077   6.1218
     6.1494   6.2788   6.2788   6.3949   6.3950   6.6376   6.6884   6.7797
     6.7826   6.7975   6.7975   7.0119   7.0119   7.0164   7.0766   7.2269
     7.2269   7.3224   7.3789   7.3789   7.5000   7.5010   7.5320   7.5320
     7.5666   7.5679   7.6417   7.6433   7.6666   7.6796   7.6877   7.6877
     7.7065   7.8797   7.9429   7.9447   7.9583   8.0101   8.0101   8.2077
     8.2077   8.2659   8.2659   8.3125   8.3151   8.3509   8.3509   8.3662
     8.3662   8.3827   8.3827   8.7363   8.7363   8.7593   8.7647   8.7694
     8.7696   8.7696   8.8609   8.8609   9.0880   9.1623   9.1829   9.2508
     9.4354   9.4354   9.4857   9.4857   9.5075   9.5643   9.5668   9.5850
     9.6839   9.7125   9.7125   9.8179   9.8179   9.8272   9.8738   9.8738
     9.9983   9.9992  10.0174  10.0174  10.0494  10.0494  10.1543  10.1543

     occupation numbers 
     1.0000   1.0000   1.0000   1.0000   1.0000   1.0000   1.0000   1.0000
     1.0000   1.0000   1.0000   1.0000   1.0000   1.0000   1.0000   1.0000
     1.0000   1.0000   1.0000   1.0000   1.0000   1.0000   1.0000   1.0000
     1.0000   1.0000   1.0000   1.0000   1.0000   1.0000   1.0000   1.0000
     1.0000   1.0000   1.0000   1.0000   1.0000   1.0000   1.0000   1.0000
     1.0000   1.0000   1.0000   1.0000   1.0000   1.0000   1.0000   1.0000
     1.0000   1.0000   1.0000   1.0000   1.0000   1.0000   1.0000   1.0000
     1.0000   1.0000   1.0000   1.0000   1.0000   1.0000   1.0000   1.0000
     1.0000   1.0000   1.0000   1.0000   1.0000   1.0000   1.0000   1.0000
     1.0000   1.0000   1.0000   1.0000   1.0000   1.0000   1.0000   1.0000
     1.0000   1.0000   1.0000   1.0000   1.0000   1.0000   1.0000   1.0000
     1.0000   1.0000   1.0000   1.0000   1.0000   1.0000   1.0000   1.0000
     1.0000   1.0000   1.0000   1.0000   1.0000   1.0000   1.0000   1.0000
     1.0000   1.0000   1.0000   1.0000   1.0000   1.0000   1.0000   1.0000
     1.0000   1.0000   1.0000   1.0000   1.0000   1.0000   1.0000   1.0000
     1.0000   1.0000   1.0000   1.0000   1.0000   1.0000   1.0000   1.0000
     1.0000   1.0000   1.0000   1.0000   1.0000   1.0000   1.0000   1.0000
     1.0000   1.0000   1.0000   1.0000   1.0000   1.0000   1.0000   1.0000
     1.0000   1.0000   1.0000   1.0000   1.0000   1.0000   1.0000   1.0000
     1.0000   1.0000   1.0000   1.0000   1.0000   1.0000   1.0000   1.0000
     1.0000   1.0000   1.0000   1.0000   1.0000   1.0000   1.0000   1.0000
     1.0000   1.0000   1.0000   1.0000   1.0000   1.0000   1.0000   1.0000
     1.0000   1.0000   1.0000   1.0000   1.0000   1.0000   1.0000   1.0000
     1.0000   1.0000   1.0000   1.0000   1.0000   1.0000   1.0000   1.0000
     1.0000   1.0000   1.0000   1.0000   1.0000   1.0000   1.0000   1.0000
     1.0000   1.0000   1.0000   1.0000   1.0000   1.0000   1.0000   1.0000
     1.0000   1.0000   1.0000   1.0000   1.0000   1.0000   1.0000   1.0000
     1.0000   1.0000   1.0000   1.0000   1.0000   1.0000   1.0000   1.0000
     1.0000   1.0000   1.0000   1.0000   1.0000   1.0000   1.0000   1.0000
     1.0000   1.0000   1.0000   1.0000   1.0000   1.0000   1.0000   1.0000
     1.0000   1.0000   1.0000   1.0000   1.0000   1.0000   1.0000   1.0000
     1.0000   1.0000   1.0000   1.0000   1.0000   1.0000   1.0000   1.0000
     1.0000   1.0000   1.0000   1.0000   1.0000   1.0000   1.0000   1.0000
     1.0000   1.0000   1.0000   1.0000   1.0000   1.0000   1.0000   1.0000
     1.0000   1.0000   1.0000   1.0000   1.0000   1.0000   1.0000   1.0000
     1.0000   1.0000   1.0000   1.0000   1.0000   1.0000   1.0000   1.0000
     1.0000   1.0000   1.0000   1.0000   1.0000   1.0000   1.0000   1.0000
     1.0000   1.0000   1.0000   1.0000   1.0000   1.0000   1.0000   1.0000
     1.0000   1.0000   1.0000   1.0000   1.0000   1.0000   1.0000   1.0000
     1.0000   1.0000   1.0000   1.0000   1.0000   1.0000   1.0000   1.0000
     1.0000   1.0000   1.0000   1.0000   1.0000   1.0000   1.0000   1.0000
     1.0000   1.0000   1.0000   1.0000   1.0000   1.0000   1.0000   1.0000
     1.0000   1.0000   1.0000   1.0000   1.0000   1.0000   1.0000   1.0000
     1.0000   1.0000   1.0000   1.0000   1.0000   1.0000   1.0000   1.0000
     1.0000   1.0000   1.0000   1.0000   1.0000   1.0000   1.0000   1.0000
     1.0000   1.0000   1.0000   1.0000   1.0000   1.0000   1.0000   1.0000
     1.0000   1.0000   1.0000   1.0000   1.0000   1.0000   1.0000   1.0000
     1.0000   1.0000   1.0000   1.0000   1.0000   1.0000   1.0000   1.0000
     1.0000   1.0000   1.0000   1.0000   1.0000   1.0000   1.0000   1.0000
     1.0000   1.0000   1.0000   1.0000   1.0000   1.0000   1.0000   1.0000
     1.0000   1.0000   1.0000   1.0000   1.0000   1.0000   1.0000   1.0000
     1.0000   1.0000   1.0000   1.0000   1.0000   1.0000   1.0000   1.0000
     1.0000   1.0000   1.0000   1.0000   1.0000   1.0000   1.0000   1.0000
     1.0000   1.0000   1.0000   1.0000   1.0000   1.0000   1.0000   1.0000
     1.0000   1.0000   1.0000   1.0000   1.0000   1.0000   1.0000   1.0000
     1.0000   1.0000   1.0000   1.0000   1.0000   1.0000   1.0000   1.0000
     1.0000   1.0000   1.0000   1.0000   1.0000   1.0000   1.0000   1.0000
     1.0000   1.0000   1.0000   1.0000   1.0000   1.0000   1.0000   1.0000
     1.0000   1.0000   1.0000   1.0000   1.0000   1.0000   1.0000   1.0000
     1.0000   1.0000   1.0000   1.0000   1.0000   1.0000   1.0000   1.0000
     1.0000   1.0000   1.0000   1.0000   1.0000   1.0000   1.0000   1.0000
     1.0000   1.0000   1.0000   1.0000   1.0000   1.0000   1.0000   1.0000
     1.0000   1.0000   1.0000   1.0000   1.0000   1.0000   1.0000   1.0000
     1.0000   1.0000   1.0000   1.0000   1.0000   1.0000   1.0000   1.0000
     1.0000   1.0000   1.0000   1.0000   1.0000   1.0000   1.0000   1.0000
     1.0000   1.0000   1.0000   1.0000   1.0000   1.0000   1.0000   1.0000
     1.0000   1.0000   1.0000   1.0000   1.0000   1.0000   1.0000   1.0000
     1.0000   1.0000   1.0000   1.0000   1.0000   1.0000   1.0000   1.0000
     1.0000   1.0000   1.0000   1.0000   1.0000   1.0000   1.0000   1.0000
     1.0000   1.0000   1.0000   1.0000   1.0000   1.0000   1.0000   1.0000
     1.0000   1.0000   1.0000   1.0000   1.0000   1.0000   1.0000   1.0000
     1.0000   1.0000   1.0000   1.0000   1.0000   1.0000   1.0000   1.0000
     1.0000   1.0000   1.0000   1.0000   1.0000   1.0000   1.0000   1.0000
     1.0000   1.0000   1.0000   1.0000   1.0000   1.0000   1.0000   1.0000
     1.0000   1.0000   1.0000   1.0000   1.0000   1.0000   1.0000   1.0000
     1.0000   1.0000   1.0000   1.0000   1.0000   1.0000   1.0000   1.0000
     1.0000   1.0000   1.0000   1.0000   1.0000   1.0000   1.0000   1.0000
     1.0000   1.0000   1.0000   1.0000   1.0000   1.0000   1.0000   1.0000
     1.0000   1.0000   1.0000   1.0000   1.0000   1.0000   1.0000   1.0023
     1.0432   1.0437   1.0825   1.0826   1.0803   1.0803   1.0685   0.4711
     0.4711   0.3708   0.3672   0.1855   0.1855   0.0900   0.0001   0.0000
     0.0000   0.0000   0.0000   0.0000   0.0000   0.0000   0.0000   0.0000
     0.0000   0.0000   0.0000   0.0000   0.0000   0.0000   0.0000   0.0000
     0.0000   0.0000   0.0000   0.0000   0.0000   0.0000   0.0000   0.0000
     0.0000   0.0000   0.0000   0.0000   0.0000   0.0000   0.0000   0.0000
     0.0000   0.0000   0.0000   0.0000   0.0000   0.0000   0.0000   0.0000
     0.0000   0.0000   0.0000   0.0000   0.0000   0.0000   0.0000   0.0000
     0.0000   0.0000   0.0000   0.0000   0.0000   0.0000   0.0000   0.0000
     0.0000   0.0000   0.0000   0.0000   0.0000   0.0000   0.0000   0.0000
     0.0000   0.0000   0.0000   0.0000   0.0000   0.0000   0.0000   0.0000
     0.0000   0.0000   0.0000   0.0000   0.0000   0.0000   0.0000   0.0000
     0.0000   0.0000   0.0000   0.0000   0.0000   0.0000   0.0000   0.0000
     0.0000   0.0000   0.0000   0.0000   0.0000   0.0000   0.0000   0.0000
     0.0000   0.0000   0.0000   0.0000   0.0000   0.0000   0.0000   0.0000
     0.0000   0.0000   0.0000   0.0000   0.0000   0.0000   0.0000   0.0000
     0.0000   0.0000   0.0000   0.0000   0.0000   0.0000   0.0000   0.0000

          k = 0.0000 0.3628 0.1846 ( 46763 PWs)   bands (ev):

  -124.1220-124.1211-124.1206-124.1206-124.1204-124.1203-124.1202-124.1200
  -124.0809-124.0801-124.0796-124.0794-124.0793-124.0792-124.0791-124.0788
  -124.0189-124.0181-124.0177-124.0174-124.0173-124.0170-124.0169-124.0166
  -123.9751-123.9744-123.9740-123.9738-123.9733-123.9730-123.9728-123.9724
  -123.9471-123.9463-123.9457-123.9457-123.9456-123.9455-123.9455-123.9452
  -123.8509-123.8501-123.8497-123.8496-123.8494-123.8493-123.8489-123.8486
  -123.8210-123.8202-123.8196-123.8196-123.8195-123.8194-123.8194-123.8191
  -123.7377-123.7369-123.7364-123.7363-123.7362-123.7360-123.7358-123.7354
   -78.2248 -78.2240 -78.2151 -78.2144 -78.2140 -78.2129 -78.2115 -78.2112
   -78.2100 -78.2099 -78.2098 -78.2094 -78.2068 -78.2059 -78.2039 -78.2031
   -78.2026 -78.2023 -78.2021 -78.2000 -78.1998 -78.1991 -78.1983 -78.1945
   -78.1856 -78.1847 -78.1753 -78.1753 -78.1748 -78.1726 -78.1700 -78.1698
   -78.1688 -78.1684 -78.1683 -78.1683 -78.1660 -78.1651 -78.1638 -78.1634
   -78.1628 -78.1623 -78.1622 -78.1605 -78.1601 -78.1594 -78.1592 -78.1542
   -78.1210 -78.1199 -78.1117 -78.1110 -78.1102 -78.1094 -78.1078 -78.1073
   -78.1065 -78.1062 -78.1061 -78.1058 -78.1053 -78.1051 -78.1043 -78.1034
   -78.1026 -78.1025 -78.1017 -78.0995 -78.0968 -78.0959 -78.0951 -78.0914
   -78.0763 -78.0749 -78.0700 -78.0676 -78.0664 -78.0652 -78.0637 -78.0633
   -78.0621 -78.0616 -78.0613 -78.0606 -78.0600 -78.0598 -78.0598 -78.0595
   -78.0584 -78.0584 -78.0582 -78.0576 -78.0518 -78.0507 -78.0505 -78.0483
   -78.0473 -78.0465 -78.0464 -78.0461 -78.0460 -78.0454 -78.0452 -78.0447
   -78.0432 -78.0423 -78.0332 -78.0330 -78.0329 -78.0319 -78.0289 -78.0278
   -78.0277 -78.0271 -78.0259 -78.0240 -78.0190 -78.0188 -78.0175 -78.0139
   -77.9501 -77.9494 -77.9491 -77.9478 -77.9474 -77.9472 -77.9464 -77.9461
   -77.9457 -77.9452 -77.9399 -77.9393 -77.9388 -77.9377 -77.9351 -77.9343
   -77.9338 -77.9332 -77.9320 -77.9300 -77.9255 -77.9250 -77.9236 -77.9203
   -77.9201 -77.9198 -77.9196 -77.9196 -77.9195 -77.9187 -77.9185 -77.9179
   -77.9170 -77.9161 -77.9110 -77.9086 -77.9072 -77.9066 -77.9050 -77.9044
   -77.9038 -77.9038 -77.9022 -77.9007 -77.8925 -77.8923 -77.8911 -77.8870
   -77.8420 -77.8412 -77.8402 -77.8398 -77.8391 -77.8388 -77.8385 -77.8382
   -77.8312 -77.8302 -77.8269 -77.8246 -77.8227 -77.8209 -77.8207 -77.8205
   -77.8202 -77.8200 -77.8193 -77.8188 -77.8067 -77.8061 -77.8051 -77.8009
    -7.1196  -6.6374  -6.2219  -6.0659  -5.9649  -5.9600  -5.7007  -5.6857
    -5.6688  -5.6161  -5.6148  -5.6068  -5.6050  -5.6022  -5.5867  -5.5707
    -5.5704  -5.5696  -5.5574  -5.5461  -5.5337  -5.5332  -5.5284  -5.5245
    -5.5140  -5.4874  -5.4851  -5.4789  -5.4675  -5.4595  -5.4556  -5.4396
    -5.4395  -5.4375  -5.4361  -5.4341  -5.4325  -5.4324  -5.4264  -5.4159
    -5.3971  -5.3846  -5.3659  -5.3634  -5.3614  -5.3608  -5.3502  -5.3491
    -5.3288  -5.3257  -5.3228  -5.3209  -5.3043  -5.3041  -5.2947  -5.2917
    -5.2832  -5.2832  -5.2826  -5.2716  -5.2632  -5.2548  -5.2515  -5.2396
    -5.2365  -5.2363  -5.2359  -5.2348  -5.2315  -5.2154  -5.1957  -5.1941
    -5.1881  -5.1847  -5.1823  -5.1786  -5.1756  -5.1738  -5.1716  -5.1578
    -5.1529  -5.1491  -5.1453  -5.1377  -5.1364  -5.1329  -5.1323  -5.1277
    -5.1253  -5.1205  -5.1164  -5.1113  -5.1009  -5.0987  -5.0871  -5.0869
    -5.0805  -5.0547  -5.0547  -5.0529  -5.0498  -5.0464  -5.0447  -5.0375
    -5.0281  -5.0276  -5.0272  -5.0254  -5.0250  -5.0060  -5.0041  -5.0035
    -5.0033  -4.9896  -4.9869  -4.9816  -4.9798  -4.9768  -4.9759  -4.9704
    -4.9556  -4.9535  -4.9521  -4.9517  -4.9492  -4.9238  -4.9231  -4.9206
    -4.9141  -4.9129  -4.9075  -4.9057  -4.8893  -4.8802  -4.8766  -4.8756
    -4.8736  -4.8728  -4.8721  -4.8646  -4.8566  -4.8542  -4.8504  -4.8385
    -4.8372  -4.8370  -4.8301  -4.8286  -4.8271  -4.8215  -4.8204  -4.8200
    -4.8125  -4.8059  -4.7979  -4.7912  -4.7897  -4.7871  -4.7861  -4.7717
    -4.7713  -4.7663  -4.7585  -4.7548  -4.7491  -4.7480  -4.7416  -4.7366
    -4.7336  -4.7286  -4.7196  -4.7181  -4.7136  -4.7130  -4.7100  -4.7001
    -4.6978  -4.6947  -4.6936  -4.6886  -4.6862  -4.6830  -4.6803  -4.6788
    -4.6720  -4.6666  -4.6648  -4.6542  -4.6540  -4.6478  -4.6478  -4.6450
    -4.6430  -4.6427  -4.6387  -4.6270  -4.6235  -4.6231  -4.6210  -4.6163
    -4.6111  -4.6090  -4.6039  -4.6030  -4.6011  -4.5972  -4.5969  -4.5906
    -4.5814  -4.5807  -4.5792  -4.5788  -4.5742  -4.5684  -4.5625  -4.5601
    -4.5575  -4.5534  -4.5502  -4.5437  -4.5435  -4.5430  -4.5383  -4.5315
    -4.5276  -4.5219  -4.5200  -4.5135  -4.5115  -4.5057  -4.4954  -4.4945
    -4.4924  -4.4919  -4.4905  -4.4896  -4.4779  -4.4774  -4.4772  -4.4763
    -4.4678  -4.4656  -4.4622  -4.4599  -4.4570  -4.4489  -4.4485  -4.4473
    -4.4462  -4.4425  -4.4407  -4.4379  -4.4342  -4.4295  -4.4247  -4.4233
    -4.4184  -4.4166  -4.4146  -4.4095  -4.4084  -4.4074  -4.4054  -4.4023
    -4.4021  -4.3919  -4.3919  -4.3904  -4.3865  -4.3864  -4.3859  -4.3781
    -4.3777  -4.3734  -4.3712  -4.3667  -4.3642  -4.3642  -4.3494  -4.3481
    -4.3480  -4.3420  -4.3420  -4.3370  -4.3339  -4.3326  -4.3304  -4.3253
    -4.3250  -4.3235  -4.3186  -4.3174  -4.3113  -4.3101  -4.3061  -4.3050
    -4.3040  -4.3014  -4.3006  -4.2955  -4.2886  -4.2859  -4.2858  -4.2843
    -4.2799  -4.2734  -4.2711  -4.2701  -4.2646  -4.2635  -4.2563  -4.2562
    -4.2517  -4.2442  -4.2329  -4.2279  -4.2254  -4.2093  -4.2090  -4.2064
    -4.2057  -4.1862  -4.1826  -4.1817  -4.1636  -4.1196  -4.1073  -3.9270
    -3.8692  -3.8424  -3.6993  -3.6049  -3.5133  -3.2295  -2.9606  -2.8966
    -2.7511  -2.4606  -2.4543  -2.2677  -2.1913  -1.8842  -1.8020  -1.6580
    -1.5058  -1.4453  -1.4053  -1.1888  -0.9751  -0.8854  -0.7559  -0.7077
    -0.5017  -0.4632  -0.3777  -0.3584  -0.3457  -0.1526  -0.1089   0.3467
     0.4096   0.4635   0.4659   0.5573   0.7006   0.7037   0.7039   0.8885
     1.0508   1.3179   1.3619   1.3887   1.5067   1.5340   1.5682   1.6353
     1.6426   1.7824   1.8361   2.1707   2.3406   2.4331   2.5333   2.5884
     2.6719   2.8341   2.8704   2.9798   3.2373   3.3235   3.4975   3.5581
     3.6150   3.6726   3.7702   3.8741   3.8897   3.9779   4.1494   4.1918
     4.2654   4.5251   4.5944   4.6260   4.6903   4.7406   4.7911   4.8974
     4.9996   5.0263   5.0579   5.0655   5.2718   5.3102   5.3403   5.3762
     5.4612   5.5154   5.5429   5.7437   5.9028   5.9121   5.9378   5.9943
     6.0310   6.0941   6.1102   6.1672   6.2069   6.3132   6.3659   6.3740
     6.3877   6.5028   6.5298   6.6464   6.7733   6.7829   6.8142   6.8335
     6.9043   6.9447   6.9740   7.0536   7.1053   7.2160   7.2438   7.2728
     7.3511   7.3654   7.3943   7.4468   7.4927   7.5192   7.6095   7.7010
     7.7934   7.8160   7.8600   7.9375   8.0182   8.1691   8.2069   8.2101
     8.2335   8.2517   8.2749   8.3595   8.3875   8.4501   8.5083   8.5630
     8.6362   8.6432   8.6547   8.6915   8.7277   8.9265   8.9364   8.9946
     8.9974   9.0293   9.0650   9.1051   9.1620   9.1923   9.2074   9.2641
     9.2696   9.2710   9.3478   9.3811   9.5520   9.6063   9.6827   9.7107
     9.7664   9.8036   9.8249   9.8795   9.9380  10.0128  10.0642  10.0911
    10.1172  10.1652  10.1921  10.2045  10.2836  10.3027  10.3404  10.4114

     occupation numbers 
     1.0000   1.0000   1.0000   1.0000   1.0000   1.0000   1.0000   1.0000
     1.0000   1.0000   1.0000   1.0000   1.0000   1.0000   1.0000   1.0000
     1.0000   1.0000   1.0000   1.0000   1.0000   1.0000   1.0000   1.0000
     1.0000   1.0000   1.0000   1.0000   1.0000   1.0000   1.0000   1.0000
     1.0000   1.0000   1.0000   1.0000   1.0000   1.0000   1.0000   1.0000
     1.0000   1.0000   1.0000   1.0000   1.0000   1.0000   1.0000   1.0000
     1.0000   1.0000   1.0000   1.0000   1.0000   1.0000   1.0000   1.0000
     1.0000   1.0000   1.0000   1.0000   1.0000   1.0000   1.0000   1.0000
     1.0000   1.0000   1.0000   1.0000   1.0000   1.0000   1.0000   1.0000
     1.0000   1.0000   1.0000   1.0000   1.0000   1.0000   1.0000   1.0000
     1.0000   1.0000   1.0000   1.0000   1.0000   1.0000   1.0000   1.0000
     1.0000   1.0000   1.0000   1.0000   1.0000   1.0000   1.0000   1.0000
     1.0000   1.0000   1.0000   1.0000   1.0000   1.0000   1.0000   1.0000
     1.0000   1.0000   1.0000   1.0000   1.0000   1.0000   1.0000   1.0000
     1.0000   1.0000   1.0000   1.0000   1.0000   1.0000   1.0000   1.0000
     1.0000   1.0000   1.0000   1.0000   1.0000   1.0000   1.0000   1.0000
     1.0000   1.0000   1.0000   1.0000   1.0000   1.0000   1.0000   1.0000
     1.0000   1.0000   1.0000   1.0000   1.0000   1.0000   1.0000   1.0000
     1.0000   1.0000   1.0000   1.0000   1.0000   1.0000   1.0000   1.0000
     1.0000   1.0000   1.0000   1.0000   1.0000   1.0000   1.0000   1.0000
     1.0000   1.0000   1.0000   1.0000   1.0000   1.0000   1.0000   1.0000
     1.0000   1.0000   1.0000   1.0000   1.0000   1.0000   1.0000   1.0000
     1.0000   1.0000   1.0000   1.0000   1.0000   1.0000   1.0000   1.0000
     1.0000   1.0000   1.0000   1.0000   1.0000   1.0000   1.0000   1.0000
     1.0000   1.0000   1.0000   1.0000   1.0000   1.0000   1.0000   1.0000
     1.0000   1.0000   1.0000   1.0000   1.0000   1.0000   1.0000   1.0000
     1.0000   1.0000   1.0000   1.0000   1.0000   1.0000   1.0000   1.0000
     1.0000   1.0000   1.0000   1.0000   1.0000   1.0000   1.0000   1.0000
     1.0000   1.0000   1.0000   1.0000   1.0000   1.0000   1.0000   1.0000
     1.0000   1.0000   1.0000   1.0000   1.0000   1.0000   1.0000   1.0000
     1.0000   1.0000   1.0000   1.0000   1.0000   1.0000   1.0000   1.0000
     1.0000   1.0000   1.0000   1.0000   1.0000   1.0000   1.0000   1.0000
     1.0000   1.0000   1.0000   1.0000   1.0000   1.0000   1.0000   1.0000
     1.0000   1.0000   1.0000   1.0000   1.0000   1.0000   1.0000   1.0000
     1.0000   1.0000   1.0000   1.0000   1.0000   1.0000   1.0000   1.0000
     1.0000   1.0000   1.0000   1.0000   1.0000   1.0000   1.0000   1.0000
     1.0000   1.0000   1.0000   1.0000   1.0000   1.0000   1.0000   1.0000
     1.0000   1.0000   1.0000   1.0000   1.0000   1.0000   1.0000   1.0000
     1.0000   1.0000   1.0000   1.0000   1.0000   1.0000   1.0000   1.0000
     1.0000   1.0000   1.0000   1.0000   1.0000   1.0000   1.0000   1.0000
     1.0000   1.0000   1.0000   1.0000   1.0000   1.0000   1.0000   1.0000
     1.0000   1.0000   1.0000   1.0000   1.0000   1.0000   1.0000   1.0000
     1.0000   1.0000   1.0000   1.0000   1.0000   1.0000   1.0000   1.0000
     1.0000   1.0000   1.0000   1.0000   1.0000   1.0000   1.0000   1.0000
     1.0000   1.0000   1.0000   1.0000   1.0000   1.0000   1.0000   1.0000
     1.0000   1.0000   1.0000   1.0000   1.0000   1.0000   1.0000   1.0000
     1.0000   1.0000   1.0000   1.0000   1.0000   1.0000   1.0000   1.0000
     1.0000   1.0000   1.0000   1.0000   1.0000   1.0000   1.0000   1.0000
     1.0000   1.0000   1.0000   1.0000   1.0000   1.0000   1.0000   1.0000
     1.0000   1.0000   1.0000   1.0000   1.0000   1.0000   1.0000   1.0000
     1.0000   1.0000   1.0000   1.0000   1.0000   1.0000   1.0000   1.0000
     1.0000   1.0000   1.0000   1.0000   1.0000   1.0000   1.0000   1.0000
     1.0000   1.0000   1.0000   1.0000   1.0000   1.0000   1.0000   1.0000
     1.0000   1.0000   1.0000   1.0000   1.0000   1.0000   1.0000   1.0000
     1.0000   1.0000   1.0000   1.0000   1.0000   1.0000   1.0000   1.0000
     1.0000   1.0000   1.0000   1.0000   1.0000   1.0000   1.0000   1.0000
     1.0000   1.0000   1.0000   1.0000   1.0000   1.0000   1.0000   1.0000
     1.0000   1.0000   1.0000   1.0000   1.0000   1.0000   1.0000   1.0000
     1.0000   1.0000   1.0000   1.0000   1.0000   1.0000   1.0000   1.0000
     1.0000   1.0000   1.0000   1.0000   1.0000   1.0000   1.0000   1.0000
     1.0000   1.0000   1.0000   1.0000   1.0000   1.0000   1.0000   1.0000
     1.0000   1.0000   1.0000   1.0000   1.0000   1.0000   1.0000   1.0000
     1.0000   1.0000   1.0000   1.0000   1.0000   1.0000   1.0000   1.0000
     1.0000   1.0000   1.0000   1.0000   1.0000   1.0000   1.0000   1.0000
     1.0000   1.0000   1.0000   1.0000   1.0000   1.0000   1.0000   1.0000
     1.0000   1.0000   1.0000   1.0000   1.0000   1.0000   1.0000   1.0000
     1.0000   1.0000   1.0000   1.0000   1.0000   1.0000   1.0000   1.0000
     1.0000   1.0000   1.0000   1.0000   1.0000   1.0000   1.0000   1.0000
     1.0000   1.0000   1.0000   1.0000   1.0000   1.0000   1.0000   1.0000
     1.0000   1.0000   1.0000   1.0000   1.0000   1.0000   1.0000   1.0000
     1.0000   1.0000   1.0000   1.0000   1.0000   1.0000   1.0000   1.0000
     1.0000   1.0000   1.0000   1.0000   1.0000   1.0000   1.0000   1.0000
     1.0000   1.0000   1.0000   1.0000   1.0000   1.0000   1.0000   1.0000
     1.0000   1.0000   1.0000   1.0000   1.0000   1.0000   1.0000   1.0000
     1.0000   1.0000   1.0000   1.0000   1.0000   1.0000   1.0000   1.0000
     1.0000   1.0000   1.0000   1.0000   1.0000   1.0000   1.0000   1.0000
     1.0000   1.0000   1.0000   1.0000   1.0000   1.0000   1.0000   1.0000
     1.0000   1.0000   1.0000   1.0000   1.0000   1.0000   1.0000   1.0000
     1.0000   1.0000   1.0000   1.0000   1.0000   1.0000   1.0000   1.0001
     1.0001   1.0014   1.0033   1.0777   1.0120   0.8434   0.5800   0.4311
     0.2408   0.0477   0.0303   0.0063   0.0000   0.0000   0.0000   0.0000
     0.0000   0.0000   0.0000   0.0000   0.0000   0.0000   0.0000   0.0000
     0.0000   0.0000   0.0000   0.0000   0.0000   0.0000   0.0000   0.0000
     0.0000   0.0000   0.0000   0.0000   0.0000   0.0000   0.0000   0.0000
     0.0000   0.0000   0.0000   0.0000   0.0000   0.0000   0.0000   0.0000
     0.0000   0.0000   0.0000   0.0000   0.0000   0.0000   0.0000   0.0000
     0.0000   0.0000   0.0000   0.0000   0.0000   0.0000   0.0000   0.0000
     0.0000   0.0000   0.0000   0.0000   0.0000   0.0000   0.0000   0.0000
     0.0000   0.0000   0.0000   0.0000   0.0000   0.0000   0.0000   0.0000
     0.0000   0.0000   0.0000   0.0000   0.0000   0.0000   0.0000   0.0000
     0.0000   0.0000   0.0000   0.0000   0.0000   0.0000   0.0000   0.0000
     0.0000   0.0000   0.0000   0.0000   0.0000   0.0000   0.0000   0.0000
     0.0000   0.0000   0.0000   0.0000   0.0000   0.0000   0.0000   0.0000
     0.0000   0.0000   0.0000   0.0000   0.0000   0.0000   0.0000   0.0000
     0.0000   0.0000   0.0000   0.0000   0.0000   0.0000   0.0000   0.0000
     0.0000   0.0000   0.0000   0.0000   0.0000   0.0000   0.0000   0.0000

          k = 0.3333 0.0811 0.7384 ( 46775 PWs)   bands (ev):

  -124.1217-124.1209-124.1207-124.1207-124.1206-124.1204-124.1203-124.1201
  -124.0806-124.0798-124.0797-124.0797-124.0796-124.0793-124.0792-124.0790
  -124.0186-124.0179-124.0177-124.0176-124.0176-124.0171-124.0169-124.0168
  -123.9749-123.9742-123.9741-123.9740-123.9736-123.9731-123.9728-123.9726
  -123.9468-123.9461-123.9458-123.9458-123.9457-123.9457-123.9456-123.9453
  -123.8507-123.8499-123.8498-123.8497-123.8496-123.8494-123.8490-123.8488
  -123.8207-123.8199-123.8198-123.8197-123.8197-123.8196-123.8195-123.8192
  -123.7374-123.7367-123.7366-123.7365-123.7363-123.7362-123.7358-123.7355
   -78.2276 -78.2273 -78.2134 -78.2120 -78.2117 -78.2114 -78.2113 -78.2110
   -78.2102 -78.2100 -78.2082 -78.2071 -78.2065 -78.2063 -78.2044 -78.2036
   -78.2034 -78.2032 -78.2030 -78.2029 -78.2023 -78.2010 -78.1951 -78.1948
   -78.1884 -78.1880 -78.1733 -78.1709 -78.1705 -78.1704 -78.1699 -78.1698
   -78.1694 -78.1692 -78.1689 -78.1678 -78.1669 -78.1657 -78.1646 -78.1640
   -78.1637 -78.1631 -78.1630 -78.1627 -78.1626 -78.1610 -78.1556 -78.1551
   -78.1239 -78.1231 -78.1098 -78.1082 -78.1078 -78.1076 -78.1073 -78.1068
   -78.1067 -78.1061 -78.1059 -78.1050 -78.1050 -78.1044 -78.1043 -78.1036
   -78.1036 -78.1030 -78.1029 -78.1012 -78.1002 -78.0992 -78.0920 -78.0912
   -78.0792 -78.0781 -78.0678 -78.0650 -78.0646 -78.0640 -78.0637 -78.0633
   -78.0628 -78.0616 -78.0611 -78.0606 -78.0599 -78.0596 -78.0593 -78.0590
   -78.0589 -78.0588 -78.0585 -78.0577 -78.0565 -78.0541 -78.0477 -78.0474
   -78.0470 -78.0467 -78.0467 -78.0465 -78.0461 -78.0460 -78.0458 -78.0456
   -78.0455 -78.0454 -78.0320 -78.0295 -78.0289 -78.0287 -78.0283 -78.0283
   -78.0282 -78.0274 -78.0259 -78.0246 -78.0241 -78.0217 -78.0141 -78.0140
   -77.9529 -77.9523 -77.9483 -77.9480 -77.9477 -77.9473 -77.9470 -77.9467
   -77.9462 -77.9458 -77.9380 -77.9357 -77.9352 -77.9349 -77.9346 -77.9346
   -77.9340 -77.9337 -77.9322 -77.9307 -77.9305 -77.9282 -77.9205 -77.9204
   -77.9203 -77.9200 -77.9199 -77.9198 -77.9197 -77.9197 -77.9193 -77.9191
   -77.9185 -77.9184 -77.9089 -77.9062 -77.9058 -77.9054 -77.9051 -77.9050
   -77.9049 -77.9010 -77.9006 -77.8996 -77.8978 -77.8953 -77.8875 -77.8873
   -77.8416 -77.8406 -77.8402 -77.8401 -77.8398 -77.8396 -77.8391 -77.8386
   -77.8340 -77.8334 -77.8252 -77.8229 -77.8226 -77.8223 -77.8218 -77.8217
   -77.8210 -77.8186 -77.8149 -77.8137 -77.8120 -77.8093 -77.8015 -77.8009
    -7.1479  -6.7541  -6.1109  -6.0098  -5.8831  -5.8712  -5.8583  -5.7833
    -5.7561  -5.6676  -5.6662  -5.6527  -5.6519  -5.6518  -5.6383  -5.5894
    -5.5892  -5.5684  -5.5679  -5.5517  -5.5263  -5.5261  -5.4969  -5.4962
    -5.4926  -5.4699  -5.4615  -5.4500  -5.4456  -5.4407  -5.4177  -5.4123
    -5.4123  -5.4099  -5.4064  -5.3999  -5.3963  -5.3890  -5.3734  -5.3732
    -5.3690  -5.3642  -5.3477  -5.3455  -5.3387  -5.3384  -5.3351  -5.3290
    -5.3289  -5.3229  -5.3157  -5.3135  -5.2974  -5.2871  -5.2838  -5.2837
    -5.2836  -5.2828  -5.2811  -5.2717  -5.2603  -5.2517  -5.2481  -5.2479
    -5.2474  -5.2240  -5.2237  -5.2214  -5.2185  -5.2117  -5.2039  -5.1996
    -5.1868  -5.1867  -5.1784  -5.1777  -5.1671  -5.1582  -5.1581  -5.1541
    -5.1523  -5.1469  -5.1429  -5.1423  -5.1411  -5.1343  -5.1312  -5.1263
    -5.1182  -5.1096  -5.1017  -5.0952  -5.0948  -5.0856  -5.0843  -5.0701
    -5.0638  -5.0589  -5.0536  -5.0523  -5.0498  -5.0381  -5.0317  -5.0246
    -5.0245  -5.0240  -5.0232  -5.0169  -5.0165  -5.0146  -5.0011  -4.9940
    -4.9865  -4.9840  -4.9826  -4.9786  -4.9777  -4.9768  -4.9764  -4.9590
    -4.9495  -4.9393  -4.9245  -4.9206  -4.9185  -4.9146  -4.9143  -4.8917
    -4.8914  -4.8908  -4.8868  -4.8794  -4.8776  -4.8708  -4.8698  -4.8661
    -4.8537  -4.8515  -4.8514  -4.8474  -4.8463  -4.8314  -4.8299  -4.8255
    -4.8251  -4.8217  -4.8211  -4.8206  -4.8203  -4.8199  -4.8120  -4.8115
    -4.7990  -4.7972  -4.7932  -4.7868  -4.7853  -4.7832  -4.7819  -4.7716
    -4.7677  -4.7626  -4.7605  -4.7602  -4.7508  -4.7492  -4.7469  -4.7455
    -4.7455  -4.7401  -4.7395  -4.7394  -4.7392  -4.7328  -4.7308  -4.7287
    -4.7273  -4.7249  -4.7184  -4.7075  -4.7024  -4.7009  -4.6910  -4.6909
    -4.6760  -4.6702  -4.6657  -4.6555  -4.6554  -4.6520  -4.6500  -4.6468
    -4.6420  -4.6404  -4.6389  -4.6242  -4.6214  -4.6150  -4.6115  -4.6101
    -4.6098  -4.6079  -4.6070  -4.6053  -4.5977  -4.5956  -4.5946  -4.5885
    -4.5882  -4.5880  -4.5874  -4.5870  -4.5828  -4.5741  -4.5739  -4.5701
    -4.5692  -4.5664  -4.5615  -4.5609  -4.5541  -4.5519  -4.5507  -4.5467
    -4.5417  -4.5415  -4.5375  -4.5329  -4.5249  -4.5249  -4.5206  -4.5186
    -4.5118  -4.5107  -4.5067  -4.5065  -4.5063  -4.5061  -4.4944  -4.4923
    -4.4910  -4.4899  -4.4879  -4.4874  -4.4871  -4.4867  -4.4834  -4.4819
    -4.4642  -4.4612  -4.4580  -4.4576  -4.4501  -4.4500  -4.4422  -4.4362
    -4.4351  -4.4350  -4.4345  -4.4343  -4.4278  -4.4233  -4.4230  -4.4135
    -4.3974  -4.3967  -4.3965  -4.3964  -4.3921  -4.3882  -4.3808  -4.3769
    -4.3767  -4.3755  -4.3750  -4.3736  -4.3736  -4.3732  -4.3707  -4.3634
    -4.3633  -4.3590  -4.3496  -4.3426  -4.3425  -4.3403  -4.3371  -4.3247
    -4.3232  -4.3231  -4.3173  -4.3168  -4.3144  -4.3095  -4.3069  -4.2975
    -4.2972  -4.2969  -4.2959  -4.2947  -4.2943  -4.2943  -4.2898  -4.2881
    -4.2879  -4.2720  -4.2707  -4.2644  -4.2595  -4.2584  -4.2568  -4.2496
    -4.2495  -4.2316  -4.2314  -4.2079  -4.2064  -4.1913  -4.1852  -4.1705
    -4.1700  -4.1252  -4.1251  -4.1238  -4.1207  -4.0525  -4.0525  -3.9775
    -3.9361  -3.9038  -3.7528  -3.5565  -3.5385  -3.2816  -3.1623  -2.9294
    -2.8238  -2.7477  -2.5000  -2.4874  -2.0548  -1.8901  -1.7989  -1.7616
    -1.6789  -1.3000  -1.1012  -0.9796  -0.8918  -0.8917  -0.6840  -0.6498
    -0.4357  -0.3004  -0.1700  -0.1150  -0.1148   0.1759   0.1762   0.2240
     0.4291   0.5297   0.6500   0.6894   0.7103   0.7107   0.7653   0.9254
     0.9372   0.9378   1.0933   1.3524   1.3583   1.4259   1.5700   1.6680
     1.6682   1.8196   2.0547   2.1469   2.2370   2.2374   2.2495   2.7066
     2.8250   2.8575   2.9383   3.0565   3.1244   3.1254   3.2314   3.2590
     3.5330   3.5354   3.5971   3.7329   3.8424   3.8785   3.9157   3.9458
     4.0905   4.2228   4.2609   4.2630   4.3353   4.6696   4.6719   4.8335
     4.8344   4.8737   4.9419   5.0166   5.2227   5.3448   5.3569   5.3575
     5.5996   5.6011   5.6715   5.6958   5.9060   6.1615   6.1794   6.2152
     6.3083   6.3538   6.3618   6.3655   6.3967   6.4518   6.4836   6.5686
     6.5757   6.5767   6.5887   6.6512   6.7230   6.7505   6.8279   6.9760
     7.0706   7.0732   7.1073   7.1702   7.2176   7.3929   7.4606   7.5271
     7.6028   7.6032   7.6152   7.6195   7.6823   7.7610   7.8112   7.8318
     7.8358   7.8928   7.9570   8.0326   8.0840   8.1005   8.1746   8.3036
     8.3218   8.3351   8.4516   8.4745   8.5389   8.5688   8.5747   8.5762
     8.6907   8.6929   8.6975   8.7040   8.7308   8.8636   8.9203   8.9313
     8.9644   9.0628   9.1331   9.1361   9.1747   9.2980   9.3144   9.3411
     9.3425   9.3468   9.4340   9.4901   9.4920   9.4942   9.5416   9.5435
     9.6281   9.6602   9.6903   9.7097   9.7539   9.8131   9.8309   9.8686
     9.8981   9.9493  10.0607  10.0625  10.1062  10.1293  10.1315  10.2106

     occupation numbers 
     1.0000   1.0000   1.0000   1.0000   1.0000   1.0000   1.0000   1.0000
     1.0000   1.0000   1.0000   1.0000   1.0000   1.0000   1.0000   1.0000
     1.0000   1.0000   1.0000   1.0000   1.0000   1.0000   1.0000   1.0000
     1.0000   1.0000   1.0000   1.0000   1.0000   1.0000   1.0000   1.0000
     1.0000   1.0000   1.0000   1.0000   1.0000   1.0000   1.0000   1.0000
     1.0000   1.0000   1.0000   1.0000   1.0000   1.0000   1.0000   1.0000
     1.0000   1.0000   1.0000   1.0000   1.0000   1.0000   1.0000   1.0000
     1.0000   1.0000   1.0000   1.0000   1.0000   1.0000   1.0000   1.0000
     1.0000   1.0000   1.0000   1.0000   1.0000   1.0000   1.0000   1.0000
     1.0000   1.0000   1.0000   1.0000   1.0000   1.0000   1.0000   1.0000
     1.0000   1.0000   1.0000   1.0000   1.0000   1.0000   1.0000   1.0000
     1.0000   1.0000   1.0000   1.0000   1.0000   1.0000   1.0000   1.0000
     1.0000   1.0000   1.0000   1.0000   1.0000   1.0000   1.0000   1.0000
     1.0000   1.0000   1.0000   1.0000   1.0000   1.0000   1.0000   1.0000
     1.0000   1.0000   1.0000   1.0000   1.0000   1.0000   1.0000   1.0000
     1.0000   1.0000   1.0000   1.0000   1.0000   1.0000   1.0000   1.0000
     1.0000   1.0000   1.0000   1.0000   1.0000   1.0000   1.0000   1.0000
     1.0000   1.0000   1.0000   1.0000   1.0000   1.0000   1.0000   1.0000
     1.0000   1.0000   1.0000   1.0000   1.0000   1.0000   1.0000   1.0000
     1.0000   1.0000   1.0000   1.0000   1.0000   1.0000   1.0000   1.0000
     1.0000   1.0000   1.0000   1.0000   1.0000   1.0000   1.0000   1.0000
     1.0000   1.0000   1.0000   1.0000   1.0000   1.0000   1.0000   1.0000
     1.0000   1.0000   1.0000   1.0000   1.0000   1.0000   1.0000   1.0000
     1.0000   1.0000   1.0000   1.0000   1.0000   1.0000   1.0000   1.0000
     1.0000   1.0000   1.0000   1.0000   1.0000   1.0000   1.0000   1.0000
     1.0000   1.0000   1.0000   1.0000   1.0000   1.0000   1.0000   1.0000
     1.0000   1.0000   1.0000   1.0000   1.0000   1.0000   1.0000   1.0000
     1.0000   1.0000   1.0000   1.0000   1.0000   1.0000   1.0000   1.0000
     1.0000   1.0000   1.0000   1.0000   1.0000   1.0000   1.0000   1.0000
     1.0000   1.0000   1.0000   1.0000   1.0000   1.0000   1.0000   1.0000
     1.0000   1.0000   1.0000   1.0000   1.0000   1.0000   1.0000   1.0000
     1.0000   1.0000   1.0000   1.0000   1.0000   1.0000   1.0000   1.0000
     1.0000   1.0000   1.0000   1.0000   1.0000   1.0000   1.0000   1.0000
     1.0000   1.0000   1.0000   1.0000   1.0000   1.0000   1.0000   1.0000
     1.0000   1.0000   1.0000   1.0000   1.0000   1.0000   1.0000   1.0000
     1.0000   1.0000   1.0000   1.0000   1.0000   1.0000   1.0000   1.0000
     1.0000   1.0000   1.0000   1.0000   1.0000   1.0000   1.0000   1.0000
     1.0000   1.0000   1.0000   1.0000   1.0000   1.0000   1.0000   1.0000
     1.0000   1.0000   1.0000   1.0000   1.0000   1.0000   1.0000   1.0000
     1.0000   1.0000   1.0000   1.0000   1.0000   1.0000   1.0000   1.0000
     1.0000   1.0000   1.0000   1.0000   1.0000   1.0000   1.0000   1.0000
     1.0000   1.0000   1.0000   1.0000   1.0000   1.0000   1.0000   1.0000
     1.0000   1.0000   1.0000   1.0000   1.0000   1.0000   1.0000   1.0000
     1.0000   1.0000   1.0000   1.0000   1.0000   1.0000   1.0000   1.0000
     1.0000   1.0000   1.0000   1.0000   1.0000   1.0000   1.0000   1.0000
     1.0000   1.0000   1.0000   1.0000   1.0000   1.0000   1.0000   1.0000
     1.0000   1.0000   1.0000   1.0000   1.0000   1.0000   1.0000   1.0000
     1.0000   1.0000   1.0000   1.0000   1.0000   1.0000   1.0000   1.0000
     1.0000   1.0000   1.0000   1.0000   1.0000   1.0000   1.0000   1.0000
     1.0000   1.0000   1.0000   1.0000   1.0000   1.0000   1.0000   1.0000
     1.0000   1.0000   1.0000   1.0000   1.0000   1.0000   1.0000   1.0000
     1.0000   1.0000   1.0000   1.0000   1.0000   1.0000   1.0000   1.0000
     1.0000   1.0000   1.0000   1.0000   1.0000   1.0000   1.0000   1.0000
     1.0000   1.0000   1.0000   1.0000   1.0000   1.0000   1.0000   1.0000
     1.0000   1.0000   1.0000   1.0000   1.0000   1.0000   1.0000   1.0000
     1.0000   1.0000   1.0000   1.0000   1.0000   1.0000   1.0000   1.0000
     1.0000   1.0000   1.0000   1.0000   1.0000   1.0000   1.0000   1.0000
     1.0000   1.0000   1.0000   1.0000   1.0000   1.0000   1.0000   1.0000
     1.0000   1.0000   1.0000   1.0000   1.0000   1.0000   1.0000   1.0000
     1.0000   1.0000   1.0000   1.0000   1.0000   1.0000   1.0000   1.0000
     1.0000   1.0000   1.0000   1.0000   1.0000   1.0000   1.0000   1.0000
     1.0000   1.0000   1.0000   1.0000   1.0000   1.0000   1.0000   1.0000
     1.0000   1.0000   1.0000   1.0000   1.0000   1.0000   1.0000   1.0000
     1.0000   1.0000   1.0000   1.0000   1.0000   1.0000   1.0000   1.0000
     1.0000   1.0000   1.0000   1.0000   1.0000   1.0000   1.0000   1.0000
     1.0000   1.0000   1.0000   1.0000   1.0000   1.0000   1.0000   1.0000
     1.0000   1.0000   1.0000   1.0000   1.0000   1.0000   1.0000   1.0000
     1.0000   1.0000   1.0000   1.0000   1.0000   1.0000   1.0000   1.0000
     1.0000   1.0000   1.0000   1.0000   1.0000   1.0000   1.0000   1.0000
     1.0000   1.0000   1.0000   1.0000   1.0000   1.0000   1.0000   1.0000
     1.0000   1.0000   1.0000   1.0000   1.0000   1.0000   1.0000   1.0000
     1.0000   1.0000   1.0000   1.0000   1.0000   1.0000   1.0000   1.0000
     1.0000   1.0000   1.0000   1.0000   1.0000   1.0000   1.0000   1.0000
     1.0000   1.0000   1.0000   1.0000   1.0000   1.0000   1.0000   1.0000
     1.0000   1.0000   1.0000   1.0000   1.0000   1.0000   1.0000   1.0000
     1.0000   1.0000   1.0000   1.0000   1.0000   1.0000   1.0000   1.0000
     1.0000   1.0000   1.0000   1.0000   1.0000   1.0000   1.0000   1.0000
     1.0000   1.0000   1.0000   1.0000   1.0000   1.0000   1.0000   1.0000
     1.0000   1.0000   1.0000   1.0000   1.0000   1.0000   1.0000   1.0002
     1.0002   1.0026   1.0408   1.0715   1.0817   1.0816   1.0791   0.1800
     0.0532   0.0358   0.0119   0.0017   0.0005   0.0005   0.0001   0.0000
     0.0000   0.0000   0.0000   0.0000   0.0000   0.0000   0.0000   0.0000
     0.0000   0.0000   0.0000   0.0000   0.0000   0.0000   0.0000   0.0000
     0.0000   0.0000   0.0000   0.0000   0.0000   0.0000   0.0000   0.0000
     0.0000   0.0000   0.0000   0.0000   0.0000   0.0000   0.0000   0.0000
     0.0000   0.0000   0.0000   0.0000   0.0000   0.0000   0.0000   0.0000
     0.0000   0.0000   0.0000   0.0000   0.0000   0.0000   0.0000   0.0000
     0.0000   0.0000   0.0000   0.0000   0.0000   0.0000   0.0000   0.0000
     0.0000   0.0000   0.0000   0.0000   0.0000   0.0000   0.0000   0.0000
     0.0000   0.0000   0.0000   0.0000   0.0000   0.0000   0.0000   0.0000
     0.0000   0.0000   0.0000   0.0000   0.0000   0.0000   0.0000   0.0000
     0.0000   0.0000   0.0000   0.0000   0.0000   0.0000   0.0000   0.0000
     0.0000   0.0000   0.0000   0.0000   0.0000   0.0000   0.0000   0.0000
     0.0000   0.0000   0.0000   0.0000   0.0000   0.0000   0.0000   0.0000
     0.0000   0.0000   0.0000   0.0000   0.0000   0.0000   0.0000   0.0000
     0.0000   0.0000   0.0000   0.0000   0.0000   0.0000   0.0000   0.0000

          k = 0.3333 0.4439 0.9230 ( 46734 PWs)   bands (ev):

  -124.1213-124.1211-124.1207-124.1207-124.1204-124.1203-124.1202-124.1200
  -124.0802-124.0801-124.0797-124.0795-124.0794-124.0792-124.0791-124.0788
  -124.0183-124.0181-124.0177-124.0175-124.0174-124.0170-124.0169-124.0166
  -123.9746-123.9744-123.9741-123.9738-123.9734-123.9730-123.9728-123.9724
  -123.9464-123.9463-123.9459-123.9458-123.9456-123.9455-123.9454-123.9452
  -123.8503-123.8501-123.8497-123.8497-123.8494-123.8493-123.8489-123.8486
  -123.8203-123.8202-123.8198-123.8198-123.8195-123.8194-123.8193-123.8191
  -123.7371-123.7369-123.7365-123.7364-123.7362-123.7360-123.7358-123.7354
   -78.2247 -78.2223 -78.2144 -78.2140 -78.2128 -78.2123 -78.2111 -78.2104
   -78.2102 -78.2099 -78.2098 -78.2098 -78.2060 -78.2048 -78.2042 -78.2039
   -78.2028 -78.2026 -78.2023 -78.2016 -78.1999 -78.1996 -78.1957 -78.1950
   -78.1856 -78.1831 -78.1752 -78.1747 -78.1726 -78.1718 -78.1700 -78.1693
   -78.1691 -78.1686 -78.1684 -78.1684 -78.1652 -78.1642 -78.1639 -78.1639
   -78.1628 -78.1624 -78.1622 -78.1620 -78.1604 -78.1600 -78.1563 -78.1552
   -78.1210 -78.1185 -78.1110 -78.1102 -78.1094 -78.1083 -78.1073 -78.1066
   -78.1061 -78.1059 -78.1058 -78.1058 -78.1052 -78.1047 -78.1046 -78.1044
   -78.1030 -78.1026 -78.1025 -78.1014 -78.0968 -78.0961 -78.0927 -78.0917
   -78.0762 -78.0734 -78.0677 -78.0662 -78.0659 -78.0652 -78.0643 -78.0639
   -78.0625 -78.0620 -78.0616 -78.0604 -78.0599 -78.0598 -78.0597 -78.0594
   -78.0585 -78.0583 -78.0582 -78.0579 -78.0519 -78.0508 -78.0476 -78.0466
   -78.0465 -78.0464 -78.0461 -78.0460 -78.0458 -78.0456 -78.0452 -78.0451
   -78.0432 -78.0410 -78.0330 -78.0329 -78.0319 -78.0302 -78.0294 -78.0289
   -78.0278 -78.0271 -78.0270 -78.0259 -78.0190 -78.0188 -78.0148 -78.0143
   -77.9500 -77.9478 -77.9475 -77.9473 -77.9471 -77.9463 -77.9462 -77.9460
   -77.9457 -77.9455 -77.9398 -77.9393 -77.9377 -77.9360 -77.9356 -77.9351
   -77.9341 -77.9333 -77.9329 -77.9319 -77.9255 -77.9250 -77.9211 -77.9206
   -77.9198 -77.9196 -77.9193 -77.9190 -77.9189 -77.9187 -77.9185 -77.9178
   -77.9170 -77.9147 -77.9087 -77.9073 -77.9069 -77.9066 -77.9053 -77.9053
   -77.9043 -77.9037 -77.9036 -77.9021 -77.8926 -77.8923 -77.8883 -77.8876
   -77.8413 -77.8402 -77.8401 -77.8399 -77.8391 -77.8387 -77.8385 -77.8382
   -77.8312 -77.8285 -77.8246 -77.8238 -77.8226 -77.8217 -77.8209 -77.8207
   -77.8206 -77.8203 -77.8201 -77.8193 -77.8068 -77.8061 -77.8023 -77.8015
    -6.9148  -6.7191  -6.6374  -5.9600  -5.9193  -5.8059  -5.7467  -5.7156
    -5.6857  -5.6299  -5.6217  -5.6077  -5.6068  -5.6027  -5.5871  -5.5782
    -5.5695  -5.5695  -5.5630  -5.5574  -5.5442  -5.5410  -5.5336  -5.5332
    -5.5141  -5.5079  -5.4976  -5.4874  -5.4674  -5.4596  -5.4557  -5.4395
    -5.4394  -5.4324  -5.4265  -5.4211  -5.4205  -5.3854  -5.3847  -5.3830
    -5.3792  -5.3755  -5.3661  -5.3588  -5.3578  -5.3497  -5.3491  -5.3403
    -5.3289  -5.3278  -5.3208  -5.3044  -5.3042  -5.2979  -5.2916  -5.2834
    -5.2833  -5.2832  -5.2823  -5.2713  -5.2696  -5.2532  -5.2515  -5.2433
    -5.2362  -5.2356  -5.2348  -5.2345  -5.2343  -5.2180  -5.2154  -5.2094
    -5.2059  -5.1940  -5.1847  -5.1824  -5.1787  -5.1647  -5.1581  -5.1571
    -5.1571  -5.1551  -5.1529  -5.1493  -5.1452  -5.1380  -5.1363  -5.1340
    -5.1322  -5.1212  -5.1207  -5.1165  -5.1114  -5.1096  -5.0986  -5.0870
    -5.0808  -5.0693  -5.0528  -5.0505  -5.0500  -5.0447  -5.0350  -5.0275
    -5.0274  -5.0250  -5.0188  -5.0165  -5.0149  -5.0058  -5.0036  -5.0030
    -4.9991  -4.9979  -4.9910  -4.9819  -4.9768  -4.9702  -4.9648  -4.9582
    -4.9534  -4.9519  -4.9517  -4.9445  -4.9426  -4.9340  -4.9209  -4.9142
    -4.9131  -4.9130  -4.9055  -4.8892  -4.8889  -4.8804  -4.8782  -4.8731
    -4.8727  -4.8723  -4.8709  -4.8644  -4.8567  -4.8542  -4.8541  -4.8374
    -4.8303  -4.8287  -4.8217  -4.8215  -4.8205  -4.8201  -4.8092  -4.8054
    -4.8053  -4.8029  -4.8008  -4.7978  -4.7977  -4.7900  -4.7864  -4.7772
    -4.7656  -4.7611  -4.7584  -4.7582  -4.7550  -4.7544  -4.7493  -4.7417
    -4.7373  -4.7336  -4.7305  -4.7300  -4.7284  -4.7251  -4.7181  -4.7134
    -4.7128  -4.7068  -4.6986  -4.6980  -4.6946  -4.6885  -4.6863  -4.6837
    -4.6832  -4.6788  -4.6745  -4.6664  -4.6650  -4.6567  -4.6542  -4.6456
    -4.6438  -4.6426  -4.6423  -4.6321  -4.6270  -4.6210  -4.6204  -4.6183
    -4.6133  -4.6132  -4.6109  -4.6011  -4.6011  -4.6007  -4.5970  -4.5919
    -4.5790  -4.5789  -4.5784  -4.5686  -4.5631  -4.5604  -4.5595  -4.5574
    -4.5534  -4.5517  -4.5502  -4.5497  -4.5437  -4.5376  -4.5276  -4.5246
    -4.5219  -4.5219  -4.5199  -4.5116  -4.5088  -4.5060  -4.5031  -4.5008
    -4.4943  -4.4936  -4.4908  -4.4900  -4.4848  -4.4782  -4.4775  -4.4771
    -4.4763  -4.4695  -4.4641  -4.4620  -4.4569  -4.4518  -4.4462  -4.4455
    -4.4447  -4.4444  -4.4379  -4.4368  -4.4368  -4.4306  -4.4294  -4.4231
    -4.4168  -4.4147  -4.4095  -4.4073  -4.4057  -4.4055  -4.4024  -4.3918
    -4.3908  -4.3905  -4.3886  -4.3865  -4.3831  -4.3776  -4.3733  -4.3725
    -4.3707  -4.3704  -4.3700  -4.3686  -4.3667  -4.3642  -4.3452  -4.3421
    -4.3399  -4.3372  -4.3370  -4.3362  -4.3338  -4.3300  -4.3289  -4.3254
    -4.3235  -4.3188  -4.3185  -4.3175  -4.3100  -4.3077  -4.3061  -4.3059
    -4.3041  -4.3014  -4.2971  -4.2956  -4.2885  -4.2882  -4.2842  -4.2814
    -4.2797  -4.2724  -4.2711  -4.2681  -4.2681  -4.2647  -4.2563  -4.2563
    -4.2440  -4.2346  -4.2330  -4.2255  -4.2188  -4.2183  -4.2100  -4.2092
    -4.1990  -4.1866  -4.1727  -4.1678  -4.1634  -4.1258  -4.0806  -3.8691
    -3.8425  -3.6996  -3.5894  -3.5134  -3.0701  -2.9662  -2.9603  -2.8965
    -2.8904  -2.7510  -2.6450  -2.5130  -2.4545  -1.9319  -1.8843  -1.8019
    -1.6584  -1.6199  -1.4452  -1.2246  -0.9750  -0.8854  -0.7075  -0.6757
    -0.5324  -0.4631  -0.4595  -0.3777  -0.3585  -0.1090  -0.1086  -0.0888
     0.1111   0.3406   0.3465   0.7005   0.7037   1.1636   1.3179   1.3437
     1.3887   1.4292   1.5682   1.6427   1.7076   1.7398   1.7823   1.8089
     1.8340   1.9880   2.1704   2.3407   2.3457   2.3742   2.4959   2.5334
     2.5748   2.6332   2.6853   2.7491   2.9224   3.2372   3.3235   3.5581
     3.6149   3.6894   3.6933   3.8748   3.8857   3.8900   3.9906   4.1408
     4.1494   4.1919   4.3202   4.4146   4.5153   4.5248   4.5816   4.6249
     4.7509   4.7900   4.8976   5.0663   5.2381   5.2718   5.3305   5.3925
     5.4084   5.4614   5.5155   5.5440   5.6022   5.7758   5.8922   5.9122
     6.0155   6.0312   6.1101   6.1673   6.1937   6.3658   6.5142   6.5296
     6.5503   6.5673   6.7586   6.7732   6.7835   6.8170   6.8800   6.9739
     7.0327   7.0535   7.1049   7.1195   7.2164   7.2365   7.2436   7.2726
     7.2917   7.3511   7.3943   7.4706   7.5192   7.5483   7.5615   7.7005
     7.7201   7.7934   8.0182   8.0496   8.1691   8.1770   8.2101   8.2233
     8.2345   8.3528   8.3880   8.4758   8.4816   8.5630   8.6525   8.7263
     8.8947   8.9267   8.9280   8.9417   8.9947   8.9973   9.0188   9.0227
     9.0295   9.0648   9.1055   9.1922   9.2080   9.2284   9.2621   9.2658
     9.2743   9.3479   9.3812   9.4442   9.5028   9.5673   9.7104   9.7266
     9.8037   9.8249   9.8609   9.9373   9.9708  10.0128  10.0641  10.0802
    10.0910  10.1313  10.1923  10.2092  10.2843  10.3023  10.3148  10.3418

     occupation numbers 
     1.0000   1.0000   1.0000   1.0000   1.0000   1.0000   1.0000   1.0000
     1.0000   1.0000   1.0000   1.0000   1.0000   1.0000   1.0000   1.0000
[...]
     atom   25 type  1   force =     0.00000000    0.00000000    0.00000000
     atom   26 type  1   force =     0.00000000    0.00000000    0.00000000
     atom   27 type  1   force =     0.00000000    0.00000000    0.00000000
     atom   28 type  1   force =     0.00000000    0.00000000    0.00000000
     atom   29 type  1   force =     0.00000000    0.00000000    0.00000000
     atom   30 type  1   force =     0.00000000    0.00000000    0.00000000
     atom   31 type  1   force =     0.00000000    0.00000000    0.00000000
     atom   32 type  1   force =     0.00000000    0.00000000    0.00000000
     atom   33 type  1   force =     0.00000000    0.00000000    0.00000000
     atom   34 type  1   force =     0.00000000    0.00000000    0.00000000
     atom   35 type  1   force =     0.00000000    0.00000000    0.00000000
     atom   36 type  1   force =     0.00000000    0.00000000    0.00000000
     atom   37 type  1   force =     0.00000000    0.00000000    0.00000000
     atom   38 type  1   force =     0.00000000    0.00000000    0.00000000
     atom   39 type  1   force =     0.00000000    0.00000000    0.00000000
     atom   40 type  1   force =     0.00000000    0.00000000    0.00000000
     atom   41 type  1   force =     0.00000000    0.00000000    0.00000000
     atom   42 type  1   force =     0.00000000    0.00000000    0.00000000
     atom   43 type  1   force =     0.00000000    0.00000000    0.00000000
     atom   44 type  1   force =     0.00000000    0.00000000    0.00000000
     atom   45 type  1   force =     0.00000000    0.00000000    0.00000000
     atom   46 type  1   force =     0.00000000    0.00000000    0.00000000
     atom   47 type  1   force =     0.00000000    0.00000000    0.00000000
     atom   48 type  1   force =     0.00000000    0.00000000    0.00000000
     atom   49 type  1   force =     0.00000000    0.00000000    0.00000000
     atom   50 type  1   force =     0.00000000    0.00000000    0.00000000
     atom   51 type  1   force =     0.00000000    0.00000000    0.00000000
     atom   52 type  1   force =     0.00000000    0.00000000    0.00000000
     atom   53 type  1   force =     0.00000000    0.00000000    0.00000000
     atom   54 type  1   force =     0.00000000    0.00000000    0.00000000
     atom   55 type  1   force =     0.00000000    0.00000000    0.00000000
     atom   56 type  1   force =     0.00000000    0.00000000    0.00000000
     atom   57 type  1   force =     0.00000000    0.00000000    0.00000000
     atom   58 type  1   force =     0.00000000    0.00000000    0.00000000
     atom   59 type  1   force =     0.00000000    0.00000000    0.00000000
     atom   60 type  1   force =     0.00000000    0.00000000    0.00000000
     atom   61 type  1   force =     0.00000000    0.00000000    0.00000000
     atom   62 type  1   force =     0.00000000    0.00000000    0.00000000
     atom   63 type  1   force =     0.00000000    0.00000000    0.00000000
     atom   64 type  1   force =     0.00000000    0.00000000    0.00000000
     The Hubbard contrib.    to forces
     atom    1 type  1   force =     0.00000000    0.00000000    0.00000000
     atom    2 type  1   force =     0.00000000    0.00000000    0.00000000
     atom    3 type  1   force =     0.00000000    0.00000000    0.00000000
     atom    4 type  1   force =     0.00000000    0.00000000    0.00000000
     atom    5 type  1   force =     0.00000000    0.00000000    0.00000000
     atom    6 type  1   force =     0.00000000    0.00000000    0.00000000
     atom    7 type  1   force =     0.00000000    0.00000000    0.00000000
     atom    8 type  1   force =     0.00000000    0.00000000    0.00000000
     atom    9 type  1   force =     0.00000000    0.00000000    0.00000000
     atom   10 type  1   force =     0.00000000    0.00000000    0.00000000
     atom   11 type  1   force =     0.00000000    0.00000000    0.00000000
     atom   12 type  1   force =     0.00000000    0.00000000    0.00000000
     atom   13 type  1   force =     0.00000000    0.00000000    0.00000000
     atom   14 type  1   force =     0.00000000    0.00000000    0.00000000
     atom   15 type  1   force =     0.00000000    0.00000000    0.00000000
     atom   16 type  1   force =     0.00000000    0.00000000    0.00000000
     atom   17 type  1   force =     0.00000000    0.00000000    0.00000000
     atom   18 type  1   force =     0.00000000    0.00000000    0.00000000
     atom   19 type  1   force =     0.00000000    0.00000000    0.00000000
     atom   20 type  1   force =     0.00000000    0.00000000    0.00000000
     atom   21 type  1   force =     0.00000000    0.00000000    0.00000000
     atom   22 type  1   force =     0.00000000    0.00000000    0.00000000
     atom   23 type  1   force =     0.00000000    0.00000000    0.00000000
     atom   24 type  1   force =     0.00000000    0.00000000    0.00000000
     atom   25 type  1   force =     0.00000000    0.00000000    0.00000000
     atom   26 type  1   force =     0.00000000    0.00000000    0.00000000
     atom   27 type  1   force =     0.00000000    0.00000000    0.00000000
     atom   28 type  1   force =     0.00000000    0.00000000    0.00000000
     atom   29 type  1   force =     0.00000000    0.00000000    0.00000000
     atom   30 type  1   force =     0.00000000    0.00000000    0.00000000
     atom   31 type  1   force =     0.00000000    0.00000000    0.00000000
     atom   32 type  1   force =     0.00000000    0.00000000    0.00000000
     atom   33 type  1   force =     0.00000000    0.00000000    0.00000000
     atom   34 type  1   force =     0.00000000    0.00000000    0.00000000
     atom   35 type  1   force =     0.00000000    0.00000000    0.00000000
     atom   36 type  1   force =     0.00000000    0.00000000    0.00000000
     atom   37 type  1   force =     0.00000000    0.00000000    0.00000000
     atom   38 type  1   force =     0.00000000    0.00000000    0.00000000
     atom   39 type  1   force =     0.00000000    0.00000000    0.00000000
     atom   40 type  1   force =     0.00000000    0.00000000    0.00000000
     atom   41 type  1   force =     0.00000000    0.00000000    0.00000000
     atom   42 type  1   force =     0.00000000    0.00000000    0.00000000
     atom   43 type  1   force =     0.00000000    0.00000000    0.00000000
     atom   44 type  1   force =     0.00000000    0.00000000    0.00000000
     atom   45 type  1   force =     0.00000000    0.00000000    0.00000000
     atom   46 type  1   force =     0.00000000    0.00000000    0.00000000
     atom   47 type  1   force =     0.00000000    0.00000000    0.00000000
     atom   48 type  1   force =     0.00000000    0.00000000    0.00000000
     atom   49 type  1   force =     0.00000000    0.00000000    0.00000000
     atom   50 type  1   force =     0.00000000    0.00000000    0.00000000
     atom   51 type  1   force =     0.00000000    0.00000000    0.00000000
     atom   52 type  1   force =     0.00000000    0.00000000    0.00000000
     atom   53 type  1   force =     0.00000000    0.00000000    0.00000000
     atom   54 type  1   force =     0.00000000    0.00000000    0.00000000
     atom   55 type  1   force =     0.00000000    0.00000000    0.00000000
     atom   56 type  1   force =     0.00000000    0.00000000    0.00000000
     atom   57 type  1   force =     0.00000000    0.00000000    0.00000000
     atom   58 type  1   force =     0.00000000    0.00000000    0.00000000
     atom   59 type  1   force =     0.00000000    0.00000000    0.00000000
     atom   60 type  1   force =     0.00000000    0.00000000    0.00000000
     atom   61 type  1   force =     0.00000000    0.00000000    0.00000000
     atom   62 type  1   force =     0.00000000    0.00000000    0.00000000
     atom   63 type  1   force =     0.00000000    0.00000000    0.00000000
     atom   64 type  1   force =     0.00000000    0.00000000    0.00000000
     The SCF correction term to forces
     atom    1 type  1   force =     0.00014048    0.00005836    0.00033487
     atom    2 type  1   force =     0.00014964    0.00001184    0.00032614
     atom    3 type  1   force =    -0.00015873    0.00000835    0.00021650
     atom    4 type  1   force =    -0.00016820   -0.00008768    0.00021104
     atom    5 type  1   force =    -0.00011981   -0.00003832   -0.00028478
     atom    6 type  1   force =    -0.00017408   -0.00003362   -0.00026903
     atom    7 type  1   force =     0.00002806    0.00002891   -0.00029267
     atom    8 type  1   force =     0.00008582   -0.00000105   -0.00033957
     atom    9 type  1   force =     0.00014468    0.00000369    0.00035095
     atom   10 type  1   force =     0.00014584    0.00006545    0.00031029
     atom   11 type  1   force =    -0.00014473   -0.00005406    0.00021173
     atom   12 type  1   force =    -0.00018156   -0.00002503    0.00021486
     atom   13 type  1   force =    -0.00017392    0.00002529   -0.00029291
     atom   14 type  1   force =    -0.00012005   -0.00009690   -0.00026105
     atom   15 type  1   force =     0.00003540    0.00006788   -0.00032725
     atom   16 type  1   force =     0.00007820   -0.00004030   -0.00030493
     atom   17 type  1   force =    -0.00015330   -0.00001176    0.00031664
     atom   18 type  1   force =    -0.00015519   -0.00006287    0.00030251
     atom   19 type  1   force =    -0.00001517    0.00004840    0.00012706
     atom   20 type  1   force =    -0.00000459   -0.00005365    0.00018432
     atom   21 type  1   force =    -0.00002253    0.00005404   -0.00013585
     atom   22 type  1   force =     0.00003518   -0.00005165   -0.00014464
     atom   23 type  1   force =     0.00003876   -0.00003556   -0.00025249
     atom   24 type  1   force =    -0.00001624    0.00003913   -0.00026619
     atom   25 type  1   force =    -0.00015385   -0.00006853    0.00031564
     atom   26 type  1   force =    -0.00015463   -0.00000506    0.00030343
     atom   27 type  1   force =    -0.00002723    0.00001177    0.00016275
     atom   28 type  1   force =     0.00000668   -0.00001647    0.00014812
     atom   29 type  1   force =     0.00003143    0.00002222   -0.00014649
     atom   30 type  1   force =    -0.00001818   -0.00001997   -0.00013372
     atom   31 type  1   force =     0.00003387    0.00001954   -0.00025232
     atom   32 type  1   force =    -0.00001243   -0.00001479   -0.00026603
     atom   33 type  1   force =     0.00007807    0.00005082    0.00024721
     atom   34 type  1   force =     0.00007870   -0.00001254    0.00025659
     atom   35 type  1   force =     0.00005836    0.00007661    0.00031415
     atom   36 type  1   force =     0.00008377   -0.00004317    0.00034223
     atom   37 type  1   force =     0.00016370    0.00003755   -0.00026526
     atom   38 type  1   force =     0.00013931    0.00003600   -0.00028989
     atom   39 type  1   force =    -0.00016358   -0.00009469   -0.00030991
     atom   40 type  1   force =    -0.00022023    0.00000214   -0.00034799
     atom   41 type  1   force =     0.00007867   -0.00000055    0.00026396
     atom   42 type  1   force =     0.00007824    0.00003871    0.00023985
     atom   43 type  1   force =     0.00007006    0.00003468    0.00034489
     atom   44 type  1   force =     0.00007241    0.00000075    0.00031133
     atom   45 type  1   force =     0.00018509    0.00005872   -0.00029532
     atom   46 type  1   force =     0.00011806    0.00001503   -0.00025953
     atom   47 type  1   force =    -0.00021652    0.00000198   -0.00031905
     atom   48 type  1   force =    -0.00016784   -0.00009448   -0.00033924
     atom   49 type  1   force =    -0.00010962    0.00000775    0.00024563
     atom   50 type  1   force =    -0.00011302   -0.00006031    0.00023143
     atom   51 type  1   force =     0.00010468    0.00005399    0.00006607
     atom   52 type  1   force =     0.00007400   -0.00001018    0.00009147
     atom   53 type  1   force =     0.00000781    0.00002664   -0.00004268
     atom   54 type  1   force =     0.00002873   -0.00001759   -0.00001573
     atom   55 type  1   force =     0.00013443    0.00003994   -0.00033730
     atom   56 type  1   force =     0.00019548    0.00003987   -0.00035658
     atom   57 type  1   force =    -0.00011067   -0.00004947    0.00025520
     atom   58 type  1   force =    -0.00011152   -0.00000335    0.00022234
     atom   59 type  1   force =     0.00009025    0.00003863    0.00006214
     atom   60 type  1   force =     0.00008863    0.00000542    0.00009615
     atom   61 type  1   force =    -0.00001597    0.00007911   -0.00003744
     atom   62 type  1   force =     0.00005238   -0.00007063   -0.00002119
     atom   63 type  1   force =     0.00018916    0.00004929   -0.00035006
     atom   64 type  1   force =     0.00014066    0.00002990   -0.00034315

     Total force =     0.103110     Total SCF correction =     0.002312


     Computing stress (Cartesian axis) and pressure

          total   stress  (Ry/bohr**3)                   (kbar)     P=     -282.04
  -0.00199132  -0.00002330   0.00002702         -292.93       -3.43        3.97
  -0.00002330  -0.00192332   0.00000428           -3.43     -282.93        0.63
   0.00002702   0.00000428  -0.00183718            3.97        0.63     -270.26

     kinetic stress (kbar)  15082.56      6.25     -5.86
                                6.25  15053.69     -1.33
                               -5.86     -1.33  15108.22

     local   stress (kbar)**********   3424.25  -2315.86
                             3424.25**********   -559.00
                            -2315.86   -559.001207901.49

     nonloc. stress (kbar)  -1861.70     -6.81      4.48
                               -6.81  -1835.47      0.89
                                4.48      0.89  -1870.50

     hartree stress (kbar) 630437.28  -1471.35    970.73
                            -1471.35 636126.80    234.37
                              970.73    234.37-562370.66

     exc-cor stress (kbar)  -7542.39     -0.91      0.64
                               -0.91  -7538.92      0.16
                                0.64      0.16  -7545.64

     corecor stress (kbar)      0.00      0.00      0.00
                                0.00      0.00      0.00
                                0.00      0.00      0.00

     ewald   stress (kbar) 557232.83  -1954.86   1349.83
                            -1954.86 564795.07    325.54
                             1349.83    325.54-651493.18

     hubbard stress (kbar)      0.00      0.00      0.00
                                0.00      0.00      0.00
                                0.00      0.00      0.00

     DFT-D   stress (kbar)      0.00      0.00      0.00
                                0.00      0.00      0.00
                                0.00      0.00      0.00

     XDM     stress (kbar)      0.00      0.00      0.00
                                0.00      0.00      0.00
                                0.00      0.00      0.00

     dft-nl  stress (kbar)      0.00      0.00      0.00
                                0.00      0.00      0.00
                                0.00      0.00      0.00

     TS-vdW  stress (kbar)      0.00      0.00      0.00
                                0.00      0.00      0.00
                                0.00      0.00      0.00

     MDB     stress (kbar)      0.00      0.00      0.00
                                0.00      0.00      0.00
                                0.00      0.00      0.00

     3D-RISM stress (kbar)      0.00      0.00      0.00
                                0.00      0.00      0.00
                                0.00      0.00      0.00


     Writing all to output data dir ./tmp/Zn002_2x2x4_scf.save/ :
     XML data file, charge density, pseudopotentials, collected wavefunctions

     init_run     :    142.11s CPU    143.68s WALL (       1 calls)
     electrons    :   8741.38s CPU   8828.98s WALL (       1 calls)
     forces       :    100.85s CPU    101.25s WALL (       1 calls)
     stress       :    331.71s CPU    332.80s WALL (       1 calls)

     Called by init_run:
     wfcinit      :    141.22s CPU    142.75s WALL (       1 calls)
     wfcinit:atom :      0.05s CPU      0.09s WALL (       5 calls)
     wfcinit:wfcr :    140.21s CPU    141.63s WALL (       5 calls)
     potinit      :      0.09s CPU      0.10s WALL (       1 calls)
     hinit0       :      0.03s CPU      0.04s WALL (       1 calls)

     Called by electrons:
     c_bands      :   8123.47s CPU   8201.64s WALL (      17 calls)
     sum_band     :    604.90s CPU    613.98s WALL (      17 calls)
     v_of_rho     :      1.48s CPU      1.53s WALL (      17 calls)
     v_h          :      0.08s CPU      0.09s WALL (      17 calls)
     v_xc         :      1.40s CPU      1.45s WALL (      17 calls)
     newd         :     12.13s CPU     12.41s WALL (      17 calls)
     mix_rho      :      0.14s CPU      0.15s WALL (      17 calls)

     Called by c_bands:
     init_us_2    :      4.31s CPU      4.33s WALL (     185 calls)
     cegterg      :   8112.22s CPU   8190.29s WALL (      85 calls)

     Called by sum_band:
     sum_band:wei :      0.05s CPU      0.05s WALL (      17 calls)
     sum_band:loo :    595.39s CPU    604.21s WALL (      17 calls)
     sum_band:buf :      0.93s CPU      0.93s WALL (      85 calls)
     sum_band:ini :      2.00s CPU      2.00s WALL (      85 calls)
     sum_band:cal :    470.89s CPU    472.52s WALL (      85 calls)
     sum_band:bec :      3.23s CPU      3.23s WALL (      85 calls)
     addusdens    :      9.25s CPU      9.50s WALL (      17 calls)
                                        0.00s GPU  (      17 calls)
     addusd:skk   :      0.09s CPU      0.09s WALL (      17 calls)
                                        0.00s GPU  (      17 calls)

     Called by *egterg:
     cdiaghg      :    620.06s CPU    638.03s WALL (     497 calls)
     cegterg:over :   1312.85s CPU   1316.41s WALL (     417 calls)
     cegterg:upda :    618.74s CPU    621.31s WALL (     417 calls)
     cegterg:last :   1785.69s CPU   1791.70s WALL (     160 calls)
     cdiaghg:chol :     46.71s CPU     46.83s WALL (     497 calls)
     cdiaghg:inve :     10.14s CPU     10.17s WALL (     497 calls)
     cdiaghg:para :    223.26s CPU    227.01s WALL (     994 calls)
     h_psi        :   2551.85s CPU   2595.69s WALL (     507 calls)
     s_psi        :    935.70s CPU    937.95s WALL (     507 calls)
     g_psi        :      0.79s CPU      0.80s WALL (     417 calls)

     Called by h_psi:
     h_psi:calbec :   1093.01s CPU   1096.85s WALL (     507 calls)
     vloc_psi     :    521.01s CPU    557.49s WALL (     507 calls)
     add_vuspsi   :    936.36s CPU    938.62s WALL (     507 calls)

     General routines
     calbec       :   1685.41s CPU   1691.32s WALL (     617 calls)
     fft          :      0.71s CPU      0.78s WALL (     196 calls)
     ffts         :      0.06s CPU      0.07s WALL (      17 calls)
     fftw         :    575.33s CPU    616.37s WALL (  364662 calls)

     Parallel routines

     PWSCF        :      2h35m CPU      2h36m WALL


   This run was terminated on:  18: 9:36  22Mar2025            

=------------------------------------------------------------------------------=
   JOB DONE.
=------------------------------------------------------------------------------=
Note: The following floating-point exceptions are signalling: IEEE_DENORMAL
Note: The following floating-point exceptions are signalling: IEEE_DENORMAL
Note: The following floating-point exceptions are signalling: IEEE_DENORMAL
Note: The following floating-point exceptions are signalling: IEEE_DENORMAL
Note: The following floating-point exceptions are signalling: IEEE_DENORMAL
Note: The following floating-point exceptions are signalling: IEEE_DENORMAL
Note: The following floating-point exceptions are signalling: IEEE_DENORMAL
