--------------------------------------------------------------------------
WARNING: There was an error initializing an OpenFabrics device.

  Local host:   ga00
  Local device: mlx5_0
--------------------------------------------------------------------------

     Program PWSCF v.7.3.1 starts on  5Apr2025 at  1:43: 8 

     This program is part of the open-source Quantum ESPRESSO suite
     for quantum simulation of materials; please cite
         "P. Giannozzi et al., J. Phys.:Condens. Matter 21 395502 (2009);
         "P. Giannozzi et al., J. Phys.:Condens. Matter 29 465901 (2017);
         "P. Giannozzi et al., J. Chem. Phys. 152 154105 (2020);
          URL http://www.quantum-espresso.org", 
     in publications or presentations arising from this work. More details at
     http://www.quantum-espresso.org/quote

     Parallel version (MPI), running on    31 processors

     MPI processes distributed on     1 nodes
     116232 MiB available memory on the printing compute node when the environment starts

     Waiting for input...
     Reading input from standard input
Warning: card &CELL ignored
Warning: card   CELL_DOFREE = 'ALL' ignored
Warning: card / ignored

     Current dimensions of program PWSCF are:
     Max number of different atomic species (ntypx) = 10
     Max number of k-points (npk) =  40000
     Max angular momentum in pseudopotentials (lmaxx) =  4
     Presently stress not available with electric field and gates


     File ./tmp/01_Zn002_topsite_upright.update deleted, as requested

     File ./tmp/01_Zn002_topsite_upright.bfgs deleted, as requested
     file C.pbe-n-kjpaw_psl.1.0.0.UPF: wavefunction(s)  2S 2P renormalized

     R & G space division:  proc/nbgrp/npool/nimage =      31
     Subspace diagonalization in iterative solution of the eigenvalue problem:
     one sub-group per band group will be used
     custom distributed-memory algorithm (size of sub-group:  5*  5 procs)


     Parallelization info
     --------------------
     sticks:   dense  smooth     PW     G-vecs:    dense   smooth      PW
     Min         243     138     37                38743    16729    2309
     Max         246     140     38                38746    16740    2312
     Sum        7555    4303   1159              1201061   518755   71619

     Using Slab Decomposition



     bravais-lattice index     =            0
     lattice parameter (alat)  =      19.7617  a.u.
     unit-cell volume          =   15176.5939 (a.u.)^3
     number of atoms/cell      =           63
     number of atomic types    =            4
     number of electrons       =       996.00
     number of Kohn-Sham states=          598
     kinetic-energy cutoff     =      40.0000  Ry
     charge density cutoff     =     280.0000  Ry
     scf convergence threshold =      1.0E-06
     mixing beta               =       0.4000
     number of iterations used =            8  plain     mixing
     Exchange-correlation= PBE
                           (   1   4   3   4   0   0   0)

     celldm(1)=  19.761696  celldm(2)=   0.000000  celldm(3)=   0.000000
     celldm(4)=   0.000000  celldm(5)=   0.000000  celldm(6)=   0.000000

     crystal axes: (cart. coord. in units of alat)
               a(1) = (   1.000000   0.000000   0.000000 )  
               a(2) = (  -0.500000   0.866025   0.000000 )  
               a(3) = (   0.000000   0.000000   2.270759 )  

     reciprocal axes: (cart. coord. in units 2 pi/alat)
               b(1) = (  1.000000  0.577350 -0.000000 )  
               b(2) = (  0.000000  1.154701  0.000000 )  
               b(3) = (  0.000000 -0.000000  0.440381 )  


     PseudoPot. # 1 for Zn read from file:
     /home/yongsang/Research/PSID_server_room/qe/[00]QE/qepseudo/SSSP_1.3.0_PBE_efficiency/Zn_pbe_v1.uspp.F.UPF
     MD5 check sum: df62231357ef9e81f77b2b3087fa5675
     Pseudo is Ultrasoft, Zval = 20.0
     Generated by new atomic code, or converted to UPF format
     Using radial grid of  943 points,  6 beta functions with: 
                l(1) =   0
                l(2) =   0
                l(3) =   1
                l(4) =   1
                l(5) =   2
                l(6) =   2
     Q(r) pseudized with  8 coefficients,  rinner =    1.100   1.100   1.100
                                                       1.100   1.100

     PseudoPot. # 2 for N  read from file:
     /home/yongsang/Research/PSID_server_room/qe/[00]QE/qepseudo/SSSP_1.3.0_PBE_efficiency/N.pbe-n-radius_5.UPF
     MD5 check sum: 16739722b17309cd8fe442a2ace49922
     Pseudo is Ultrasoft + core correction, Zval =  5.0
     Generated using "atomic" code by A. Dal Corso  v.5.1
     Using radial grid of 1085 points,  4 beta functions with: 
                l(1) =   0
                l(2) =   0
                l(3) =   1
                l(4) =   1
     Q(r) pseudized with 0 coefficients 


     PseudoPot. # 3 for C  read from file:
     /home/yongsang/Research/PSID_server_room/qe/[00]QE/qepseudo/SSSP_1.3.0_PBE_efficiency/C.pbe-n-kjpaw_psl.1.0.0.UPF
     MD5 check sum: 5d2aebdfa2cae82b50a7e79e9516da0f
     Pseudo is Projector augmented-wave + core cor, Zval =  4.0
     Generated using "atomic" code by A. Dal Corso  v.5.1
     Shape of augmentation charge: PSQ
     Using radial grid of 1073 points,  4 beta functions with: 
                l(1) =   0
                l(2) =   0
                l(3) =   1
                l(4) =   1
     Q(r) pseudized with 0 coefficients 


     PseudoPot. # 4 for H  read from file:
     /home/yongsang/Research/PSID_server_room/qe/[00]QE/qepseudo/SSSP_1.3.0_PBE_efficiency/H.pbe-rrkjus_psl.1.0.0.UPF
     MD5 check sum: f52b6d4d1c606e5624b1dc7b2218f220
     Pseudo is Ultrasoft, Zval =  1.0
     Generated using "atomic" code by A. Dal Corso  v.5.1
     Using radial grid of  929 points,  2 beta functions with: 
                l(1) =   0
                l(2) =   0
     Q(r) pseudized with 0 coefficients 


     atomic species   valence    mass     pseudopotential
     Zn               20.00    65.38000     Zn( 1.00)
     N                 5.00    14.00674     N ( 1.00)
     C                 4.00    12.01070     C ( 1.00)
     H                 1.00     1.00794     H ( 1.00)

     No symmetry found


                                    s                        frac. trans.

      isym =  1     identity                                     

 cryst.   s( 1) = (     1          0          0      )
                  (     0          1          0      )
                  (     0          0          1      )

 cart.    s( 1) = (  1.0000000  0.0000000  0.0000000 )
                  (  0.0000000  1.0000000  0.0000000 )
                  (  0.0000000  0.0000000  1.0000000 )


   Cartesian axes

     site n.     atom                  positions (alat units)
         1        Zn     tau(   1) = (   0.0000000   0.1443375   0.1164998  )
         2        Zn     tau(   2) = (   0.5000000   0.1443375   0.1164998  )
         3        Zn     tau(   3) = (  -0.0000499   0.1441562   0.5930126  )
         4        Zn     tau(   4) = (   0.4999768   0.1440598   0.5929798  )
         5        Zn     tau(   5) = (  -0.1250000   0.3608439   0.1164998  )
         6        Zn     tau(   6) = (   0.3750000   0.3608439   0.1164998  )
         7        Zn     tau(   7) = (  -0.1250128   0.3606880   0.5938622  )
         8        Zn     tau(   8) = (   0.3750816   0.3605818   0.5901549  )
         9        Zn     tau(   9) = (  -0.2500000   0.5773502   0.1164998  )
        10        Zn     tau(  10) = (   0.2500000   0.5773502   0.1164998  )
        11        Zn     tau(  11) = (  -0.2500557   0.5773010   0.5930873  )
        12        Zn     tau(  12) = (   0.2498461   0.5777611   0.5690006  )
        13        Zn     tau(  13) = (  -0.3750000   0.7938567   0.1164998  )
        14        Zn     tau(  14) = (   0.1250000   0.7938567   0.1164998  )
        15        Zn     tau(  15) = (  -0.3750956   0.7937092   0.5938035  )
        16        Zn     tau(  16) = (   0.1250071   0.7937671   0.5927657  )
        17        Zn     tau(  17) = (   0.2500000   0.1443375   0.1164998  )
        18        Zn     tau(  18) = (   0.7500000   0.1443375   0.1164998  )
        19        Zn     tau(  19) = (   0.2499675   0.1442893   0.5938620  )
        20        Zn     tau(  20) = (   0.7498989   0.1441620   0.5935777  )
        21        Zn     tau(  21) = (   0.1250000   0.3608439   0.1164998  )
        22        Zn     tau(  22) = (   0.6250000   0.3608439   0.1164998  )
        23        Zn     tau(  23) = (   0.1247759   0.3605782   0.5900454  )
        24        Zn     tau(  24) = (   0.6249342   0.3606883   0.5938306  )
        25        Zn     tau(  25) = (   0.0000000   0.5773502   0.1164998  )
        26        Zn     tau(  26) = (   0.5000000   0.5773502   0.1164998  )
        27        Zn     tau(  27) = (  -0.0001966   0.5771600   0.5914390  )
        28        Zn     tau(  28) = (   0.5000085   0.5771320   0.5913888  )
        29        Zn     tau(  29) = (  -0.1250000   0.7938567   0.1164998  )
        30        Zn     tau(  30) = (   0.3750000   0.7938567   0.1164998  )
        31        Zn     tau(  31) = (  -0.1249754   0.7937326   0.5936214  )
        32        Zn     tau(  32) = (   0.3749417   0.7939463   0.5919976  )
        33        Zn     tau(  33) = (   0.1250863   0.0719987   0.3549329  )
        34        Zn     tau(  34) = (   0.6247109   0.0724305   0.3553400  )
        35        Zn     tau(  35) = (  -0.0003023   0.2881651   0.3553511  )
        36        Zn     tau(  36) = (   0.5002824   0.2881015   0.3550122  )
        37        Zn     tau(  37) = (  -0.1255661   0.5051525   0.3550786  )
        38        Zn     tau(  38) = (   0.3762916   0.5044008   0.3518535  )
        39        Zn     tau(  39) = (  -0.2499926   0.7218306   0.3549053  )
        40        Zn     tau(  40) = (   0.2499333   0.7233675   0.3519747  )
        41        Zn     tau(  41) = (   0.3748060   0.0719867   0.3548153  )
        42        Zn     tau(  42) = (   0.8752270   0.0725633   0.3550895  )
        43        Zn     tau(  43) = (   0.2498815   0.2877851   0.3545638  )
        44        Zn     tau(  44) = (   0.7499983   0.2885973   0.3543649  )
        45        Zn     tau(  45) = (   0.1235184   0.5044439   0.3519742  )
        46        Zn     tau(  46) = (   0.6254711   0.5051794   0.3554334  )
        47        Zn     tau(  47) = (  -0.0006204   0.7220845   0.3549759  )
        48        Zn     tau(  48) = (   0.5006051   0.7220501   0.3549344  )
        49        C      tau(  49) = (   0.3533534   0.6053919   1.2094210  )
        50        C      tau(  50) = (   0.2536770   0.5440368   1.2739583  )
        51        C      tau(  51) = (   0.3537061   0.6106061   1.0759586  )
        52        C      tau(  52) = (   0.1535193   0.4875022   1.2059398  )
        53        C      tau(  53) = (   0.2528989   0.5532374   1.0106343  )
        54        C      tau(  54) = (   0.1523317   0.4917175   1.0724313  )
        55        N      tau(  55) = (   0.2519762   0.5592294   0.8696514  )
        56        H      tau(  56) = (   0.4312722   0.6489776   1.2631997  )
        57        H      tau(  57) = (   0.2543173   0.5398253   1.3781548  )
        58        H      tau(  58) = (   0.3425633   0.5572280   0.8288693  )
        59        H      tau(  59) = (   0.4309347   0.6581191   1.0240146  )
        60        H      tau(  60) = (   0.0763124   0.4396297   1.2570234  )
        61        H      tau(  61) = (   0.2038114   0.4837605   0.8265985  )
        62        H      tau(  62) = (   0.0748468   0.4477119   1.0177891  )
        63        H      tau(  63) = (   0.2092607   0.6408513   0.8320093  )

     --------------------------------------------
     DFT-D3 Dispersion Correction (3-body terms):
     --------------------------------------------
       Reference C6 values for interpolation: 

         atom   Coordination number   C6
         H          0.912             6.05
         H          0.000            15.18
         C          0.000            98.23
         C          0.987            86.49
         C          1.998            58.72
         C          2.999            51.56
         C          3.984            36.41
         N          0.000            50.54
         N          0.994            44.25
         N          2.014            39.35
         N          2.990            31.16
         Zn         0.000           681.04
         Zn         1.942           306.91

       Values used:

         atom   Coordination number  R0_AB[au]  C6      C8
         Zn         6.705            3.053    306.91  23930.67
         Zn         6.707            3.053    306.91  23930.67
         Zn         6.735            3.053    306.91  23930.67
         Zn         6.733            3.053    306.91  23930.67
         Zn         6.707            3.053    306.91  23930.67
         Zn         6.745            3.053    306.91  23930.67
         Zn         6.688            3.053    306.91  23930.67
         Zn         6.773            3.053    306.91  23930.67
         Zn         6.704            3.053    306.91  23930.67
         Zn         6.779            3.053    306.91  23930.67
         Zn         6.730            3.053    306.91  23930.67
         Zn         7.441            3.053    306.91  23930.67
         Zn         6.713            3.053    306.91  23930.67
         Zn         6.739            3.053    306.91  23930.67
         Zn         6.695            3.053    306.91  23930.67
         Zn         6.698            3.053    306.91  23930.67
         Zn         6.719            3.053    306.91  23930.67
         Zn         6.707            3.053    306.91  23930.67
         Zn         6.688            3.053    306.91  23930.67
         Zn         6.700            3.053    306.91  23930.67
         Zn         6.741            3.053    306.91  23930.67
         Zn         6.706            3.053    306.91  23930.67
         Zn         6.787            3.053    306.91  23930.67
         Zn         6.688            3.053    306.91  23930.67
         Zn         6.740            3.053    306.91  23930.67
         Zn         6.737            3.053    306.91  23930.67
         Zn         6.738            3.053    306.91  23930.67
         Zn         6.741            3.053    306.91  23930.67
         Zn         6.714            3.053    306.91  23930.67
         Zn         6.741            3.053    306.91  23930.67
         Zn         6.703            3.053    306.91  23930.67
         Zn         6.720            3.053    306.91  23930.67
         Zn         8.245            3.053    306.91  23930.67
         Zn         8.258            3.053    306.91  23930.67
         Zn         8.285            3.053    306.91  23930.67
         Zn         8.280            3.053    306.91  23930.67
         Zn         8.266            3.053    306.91  23930.67
         Zn         8.532            3.053    306.91  23930.67
         Zn         8.246            3.053    306.91  23930.67
         Zn         8.506            3.053    306.91  23930.67
         Zn         8.247            3.053    306.91  23930.67
         Zn         8.266            3.053    306.91  23930.67
         Zn         8.306            3.053    306.91  23930.67
         Zn         8.230            3.053    306.91  23930.67
         Zn         8.535            3.053    306.91  23930.67
         Zn         8.265            3.053    306.91  23930.67
         Zn         8.267            3.053    306.91  23930.67
         Zn         8.271            3.053    306.91  23930.67
         C          3.136            2.750     50.64   1464.61
         C          3.130            2.750     50.69   1465.92
         C          3.152            2.750     50.52   1461.04
         C          3.136            2.750     50.64   1464.62
         C          3.169            2.750     50.37   1456.86
         C          3.152            2.750     50.52   1461.05
         N          4.083            2.478     31.16    687.49
         H          1.003            2.062      6.18     74.69
         H          1.003            2.062      6.18     74.69
         H          1.012            2.062      6.17     74.60
         H          1.003            2.062      6.18     74.69
         H          1.003            2.062      6.18     74.69
         H          1.012            2.062      6.17     74.59
         H          1.003            2.062      6.18     74.69
         H          1.010            2.062      6.17     74.61

         Molecular C6 ( Ry / a.u.^6 ) =    824367.86


   Crystallographic axes

     site n.     atom                  positions (cryst. coord.)
         1        Zn     tau(   1) = (  0.0833333  0.1666666  0.0513044  )
         2        Zn     tau(   2) = (  0.5833333  0.1666666  0.0513044  )
         3        Zn     tau(   3) = (  0.0831787  0.1664572  0.2611517  )
         4        Zn     tau(   4) = (  0.5831498  0.1663459  0.2611373  )
         5        Zn     tau(   5) = (  0.0833333  0.4166666  0.0513044  )
         6        Zn     tau(   6) = (  0.5833333  0.4166666  0.0513044  )
         7        Zn     tau(   7) = (  0.0832305  0.4164866  0.2615259  )
         8        Zn     tau(   8) = (  0.5832636  0.4163640  0.2598932  )
         9        Zn     tau(   9) = (  0.0833333  0.6666666  0.0513044  )
        10        Zn     tau(  10) = (  0.5833333  0.6666666  0.0513044  )
        11        Zn     tau(  11) = (  0.0832492  0.6666098  0.2611846  )
        12        Zn     tau(  12) = (  0.5834166  0.6671410  0.2505773  )
        13        Zn     tau(  13) = (  0.0833333  0.9166667  0.0513044  )
        14        Zn     tau(  14) = (  0.5833334  0.9166667  0.0513044  )
        15        Zn     tau(  15) = (  0.0831527  0.9164965  0.2615000  )
        16        Zn     tau(  16) = (  0.5832888  0.9165633  0.2610430  )
        17        Zn     tau(  17) = (  0.3333333  0.1666666  0.0513044  )
        18        Zn     tau(  18) = (  0.8333334  0.1666666  0.0513044  )
        19        Zn     tau(  19) = (  0.3332729  0.1666109  0.2615258  )
        20        Zn     tau(  20) = (  0.8331309  0.1664639  0.2614006  )
        21        Zn     tau(  21) = (  0.3333333  0.4166666  0.0513044  )
        22        Zn     tau(  22) = (  0.8333333  0.4166666  0.0513044  )
        23        Zn     tau(  23) = (  0.3329558  0.4163599  0.2598450  )
        24        Zn     tau(  24) = (  0.8331777  0.4164869  0.2615120  )
        25        Zn     tau(  25) = (  0.3333333  0.6666666  0.0513044  )
        26        Zn     tau(  26) = (  0.8333333  0.6666666  0.0513044  )
        27        Zn     tau(  27) = (  0.3330269  0.6664470  0.2604587  )
        28        Zn     tau(  28) = (  0.8332158  0.6664146  0.2604367  )
        29        Zn     tau(  29) = (  0.3333334  0.9166667  0.0513044  )
        30        Zn     tau(  30) = (  0.8333334  0.9166667  0.0513044  )
        31        Zn     tau(  31) = (  0.3332864  0.9165235  0.2614199  )
        32        Zn     tau(  32) = (  0.8333268  0.9167702  0.2607047  )
        33        Zn     tau(  33) = (  0.1666548  0.0831370  0.1563059  )
        34        Zn     tau(  34) = (  0.6665286  0.0836355  0.1564852  )
        35        Zn     tau(  35) = (  0.1660699  0.3327444  0.1564900  )
        36        Zn     tau(  36) = (  0.6666179  0.3326710  0.1563408  )
        37        Zn     tau(  37) = (  0.1660838  0.5832998  0.1563700  )
        38        Zn     tau(  38) = (  0.6675075  0.5824319  0.1549497  )
        39        Zn     tau(  39) = (  0.1667565  0.8334981  0.1562937  )
        40        Zn     tau(  40) = (  0.6675698  0.8352729  0.1550031  )
        41        Zn     tau(  41) = (  0.4163676  0.0831231  0.1562541  )
        42        Zn     tau(  42) = (  0.9171214  0.0837888  0.1563748  )
        43        Zn     tau(  43) = (  0.4160343  0.3323056  0.1561433  )
        44        Zn     tau(  44) = (  0.9166201  0.3332435  0.1560557  )
        45        Zn     tau(  45) = (  0.4147592  0.5824816  0.1550029  )
        46        Zn     tau(  46) = (  0.9171365  0.5833310  0.1565262  )
        47        Zn     tau(  47) = (  0.4162753  0.8337914  0.1563248  )
        48        Zn     tau(  48) = (  0.9174809  0.8337516  0.1563065  )
        49        C      tau(  49) = (  0.7028766  0.6990464  0.5326065  )
        50        C      tau(  50) = (  0.5677767  0.6281995  0.5610276  )
        51        C      tau(  51) = (  0.7062397  0.7050672  0.4738322  )
        52        C      tau(  52) = (  0.4349788  0.5629191  0.5310735  )
        53        C      tau(  53) = (  0.5723107  0.6388236  0.4450646  )
        54        C      tau(  54) = (  0.4362249  0.5677865  0.4722788  )
        55        N      tau(  55) = (  0.5748474  0.6457425  0.3829783  )
        56        H      tau(  56) = (  0.8059596  0.7493748  0.5562897  )
        57        H      tau(  57) = (  0.5659856  0.6233366  0.6069138  )
        58        H      tau(  58) = (  0.6642790  0.6434314  0.3650187  )
        59        H      tau(  59) = (  0.8109000  0.7599305  0.4509570  )
        60        H      tau(  60) = (  0.3301327  0.5076407  0.5535698  )
        61        H      tau(  61) = (  0.4831107  0.5585985  0.3640186  )
        62        H      tau(  62) = (  0.3333334  0.5169732  0.4482154  )
        63        H      tau(  63) = (  0.5792564  0.7399913  0.3664015  )

     number of k points=     5  Marzari-Vanderbilt smearing, width (Ry)=  0.0200
                       cart. coord. in units 2pi/alat
        k(    1) = (   0.0000000   0.0000000   0.0000000), wk =   0.2222222
        k(    2) = (   0.0000000   0.3849002   0.0000000), wk =   0.4444444
        k(    3) = (   0.3333333   0.1924501   0.0000000), wk =   0.4444444
        k(    4) = (   0.3333333   0.5773503   0.0000000), wk =   0.4444444
        k(    5) = (   0.3333333  -0.1924501   0.0000000), wk =   0.4444444

                       cryst. coord.
        k(    1) = (   0.0000000   0.0000000   0.0000000), wk =   0.2222222
        k(    2) = (   0.0000000   0.3333333   0.0000000), wk =   0.4444444
        k(    3) = (   0.3333333   0.0000000   0.0000000), wk =   0.4444444
        k(    4) = (   0.3333333   0.3333333   0.0000000), wk =   0.4444444
        k(    5) = (   0.3333333  -0.3333333   0.0000000), wk =   0.4444444

     Dense  grid:  1201061 G-vectors     FFT dimensions: ( 108, 108, 240)

     Smooth grid:   518755 G-vectors     FFT dimensions: (  80,  80, 192)

     Dynamical RAM for                 wfc:      19.08 MB

     Dynamical RAM for     wfc (w. buffer):     114.48 MB

     Dynamical RAM for           str. fact:       2.36 MB

     Dynamical RAM for           local pot:       0.00 MB

     Dynamical RAM for          nlocal pot:      29.86 MB

     Dynamical RAM for                qrad:       5.37 MB

     Dynamical RAM for          rho,v,vnew:       3.91 MB

     Dynamical RAM for               rhoin:       1.30 MB

     Dynamical RAM for            rho*nmix:       9.46 MB

     Dynamical RAM for           G-vectors:       2.34 MB

     Dynamical RAM for          h,s,v(r/c):       2.61 MB

     Dynamical RAM for          <psi|beta>:       8.54 MB

     Dynamical RAM for                 psi:      38.16 MB

     Dynamical RAM for                hpsi:      38.16 MB

     Dynamical RAM for                spsi:      38.16 MB

     Dynamical RAM for      wfcinit/wfcrot:      52.09 MB

     Dynamical RAM for           addusdens:     138.34 MB

     Dynamical RAM for          addusforce:     194.40 MB

     Estimated static dynamical RAM per process >     166.15 MB

     Estimated max dynamical RAM per process >     370.02 MB

     Estimated total dynamical RAM >      11.20 GB

     Initial potential from superposition of free atoms

     starting charge     996.9929, renormalised to     996.0000

     negative rho (up, down):  2.009E-03 0.000E+00

     Adding external electric field

     Computed dipole along edir(1) : 
        Elec. dipole         -0.3583 Ry au,         -0.9107 Debye
        Ion. dipole          -0.5272 Ry au,         -1.3401 Debye
        Dipole             -204.0280 Ry au,       -518.5873 Debye
        Dipole field         -0.1689 Ry au, 

        Potential amp.        6.0093 Ry
        Total length         17.7855 bohr

     Starting wfcs are  660 randomized atomic wfcs
[ga00:3804580] 30 more processes have sent help message help-mpi-btl-openib.txt / error in device init
[ga00:3804580] Set MCA parameter "orte_base_help_aggregate" to 0 to see all help / error messages
     Checking if some PAW data can be deallocated... 
       PAW data deallocated on   27 nodes for type:  3

     total cpu time spent up to now is       26.7 secs

     Self-consistent Calculation

     iteration #  1     ecut=    40.00 Ry     beta= 0.40
     Davidson diagonalization with overlap

---- Real-time Memory Report at c_bands before calling an iterative solver
           406 MiB given to the printing process from OS
             0 MiB allocation reported by mallinfo(arena+hblkhd)
        110311 MiB available memory on the node where the printing process lives
------------------
     ethr =  1.00E-02,  avg # of iterations = 10.6

     negative rho (up, down):  5.983E-04 0.000E+00

     Adding external electric field

     Computed dipole along edir(1) : 
        Elec. dipole         -1.2428 Ry au,         -3.1589 Debye
        Ion. dipole          -0.5272 Ry au,         -1.3401 Debye
        Dipole              864.2475 Ry au,       2196.6980 Debye
        Dipole field          0.7156 Ry au, 

        Potential amp.      -25.4548 Ry
        Total length         17.7855 bohr


     total cpu time spent up to now is      254.9 secs

     total energy              =  -14603.80432053 Ry
     estimated scf accuracy    <   12897.28119857 Ry

     iteration #  2     ecut=    40.00 Ry     beta= 0.40
     Davidson diagonalization with overlap

---- Real-time Memory Report at c_bands before calling an iterative solver
           511 MiB given to the printing process from OS
             0 MiB allocation reported by mallinfo(arena+hblkhd)
        109151 MiB available memory on the node where the printing process lives
------------------
     ethr =  1.00E-02,  avg # of iterations = 30.2

     negative rho (up, down):  3.409E-03 0.000E+00

     Adding external electric field

     Computed dipole along edir(1) : 
        Elec. dipole         -0.6895 Ry au,         -1.7526 Debye
        Ion. dipole          -0.5272 Ry au,         -1.3401 Debye
        Dipole              196.0270 Ry au,        498.2508 Debye
        Dipole field          0.1623 Ry au, 

        Potential amp.       -5.7736 Ry
        Total length         17.7855 bohr


     total cpu time spent up to now is     1233.0 secs

     total energy              =  -20189.21317906 Ry
     estimated scf accuracy    <   71514.57037224 Ry

     iteration #  3     ecut=    40.00 Ry     beta= 0.40
     Davidson diagonalization with overlap

---- Real-time Memory Report at c_bands before calling an iterative solver
           529 MiB given to the printing process from OS
             0 MiB allocation reported by mallinfo(arena+hblkhd)
        109102 MiB available memory on the node where the printing process lives
------------------
     ethr =  1.00E-02,  avg # of iterations = 12.0

     negative rho (up, down):  3.768E-03 0.000E+00

     Adding external electric field

     Computed dipole along edir(1) : 
        Elec. dipole         -0.6315 Ry au,         -1.6052 Debye
        Ion. dipole          -0.5272 Ry au,         -1.3401 Debye
        Dipole              125.9601 Ry au,        320.1586 Debye
        Dipole field          0.1043 Ry au, 

        Potential amp.       -3.7099 Ry
        Total length         17.7855 bohr


     total cpu time spent up to now is     1613.0 secs

     total energy              =  -22385.95163239 Ry
     estimated scf accuracy    <   11452.17344287 Ry

     iteration #  4     ecut=    40.00 Ry     beta= 0.40
     Davidson diagonalization with overlap

---- Real-time Memory Report at c_bands before calling an iterative solver
           536 MiB given to the printing process from OS
             0 MiB allocation reported by mallinfo(arena+hblkhd)
        109056 MiB available memory on the node where the printing process lives
------------------
     ethr =  1.00E-02,  avg # of iterations =  9.8

     negative rho (up, down):  3.421E-03 0.000E+00

     Adding external electric field

     Computed dipole along edir(1) : 
        Elec. dipole         -0.5925 Ry au,         -1.5060 Debye
        Ion. dipole          -0.5272 Ry au,         -1.3401 Debye
        Dipole               78.8306 Ry au,        200.3674 Debye
        Dipole field          0.0653 Ry au, 

        Potential amp.       -2.3218 Ry
        Total length         17.7855 bohr


     total cpu time spent up to now is     1827.1 secs

     total energy              =  -22553.47164789 Ry
     estimated scf accuracy    <    4341.42016601 Ry

     iteration #  5     ecut=    40.00 Ry     beta= 0.40
     Davidson diagonalization with overlap

---- Real-time Memory Report at c_bands before calling an iterative solver
           542 MiB given to the printing process from OS
             0 MiB allocation reported by mallinfo(arena+hblkhd)
        109034 MiB available memory on the node where the printing process lives
------------------
     ethr =  1.00E-02,  avg # of iterations =  8.2

     negative rho (up, down):  3.450E-03 0.000E+00

     Adding external electric field

     Computed dipole along edir(1) : 
        Elec. dipole         -0.5713 Ry au,         -1.4520 Debye
        Ion. dipole          -0.5272 Ry au,         -1.3401 Debye
        Dipole               53.2018 Ry au,        135.2255 Debye
        Dipole field          0.0441 Ry au, 

        Potential amp.       -1.5670 Ry
        Total length         17.7855 bohr


     total cpu time spent up to now is     1999.4 secs

     total energy              =  -22539.30340979 Ry
     estimated scf accuracy    <    3886.68449881 Ry

     iteration #  6     ecut=    40.00 Ry     beta= 0.40
     Davidson diagonalization with overlap

---- Real-time Memory Report at c_bands before calling an iterative solver
           543 MiB given to the printing process from OS
             0 MiB allocation reported by mallinfo(arena+hblkhd)
        108989 MiB available memory on the node where the printing process lives
------------------
     ethr =  1.00E-02,  avg # of iterations =  6.2

     negative rho (up, down):  3.591E-03 0.000E+00

     Adding external electric field

     Computed dipole along edir(1) : 
        Elec. dipole         -0.5694 Ry au,         -1.4473 Debye
        Ion. dipole          -0.5272 Ry au,         -1.3401 Debye
        Dipole               50.9578 Ry au,        129.5219 Debye
        Dipole field          0.0422 Ry au, 

        Potential amp.       -1.5009 Ry
        Total length         17.7855 bohr


     total cpu time spent up to now is     2117.4 secs

     total energy              =  -22565.86701185 Ry
     estimated scf accuracy    <    1455.44838609 Ry

     iteration #  7     ecut=    40.00 Ry     beta= 0.40
     Davidson diagonalization with overlap

---- Real-time Memory Report at c_bands before calling an iterative solver
           543 MiB given to the printing process from OS
             0 MiB allocation reported by mallinfo(arena+hblkhd)
        108983 MiB available memory on the node where the printing process lives
------------------
     ethr =  1.00E-02,  avg # of iterations =  6.6

     negative rho (up, down):  4.475E-03 0.000E+00

     Adding external electric field

     Computed dipole along edir(1) : 
        Elec. dipole         -0.5530 Ry au,         -1.4055 Debye
        Ion. dipole          -0.5272 Ry au,         -1.3401 Debye
        Dipole               31.0755 Ry au,         78.9862 Debye
        Dipole field          0.0257 Ry au, 

        Potential amp.       -0.9153 Ry
        Total length         17.7855 bohr


     total cpu time spent up to now is     2208.9 secs

     total energy              =  -22495.13429018 Ry
     estimated scf accuracy    <    1765.62978762 Ry

     iteration #  8     ecut=    40.00 Ry     beta= 0.40
     Davidson diagonalization with overlap

---- Real-time Memory Report at c_bands before calling an iterative solver
           544 MiB given to the printing process from OS
             0 MiB allocation reported by mallinfo(arena+hblkhd)
        108955 MiB available memory on the node where the printing process lives
------------------
     ethr =  1.00E-02,  avg # of iterations =  3.8

     negative rho (up, down):  3.734E-03 0.000E+00

     Adding external electric field

     Computed dipole along edir(1) : 
        Elec. dipole         -0.5227 Ry au,         -1.3285 Debye
        Ion. dipole          -0.5272 Ry au,         -1.3401 Debye
        Dipole               -5.4893 Ry au,        -13.9524 Debye
        Dipole field         -0.0045 Ry au, 

        Potential amp.        0.1617 Ry
        Total length         17.7855 bohr


     total cpu time spent up to now is     2290.9 secs

     total energy              =  -22401.99155697 Ry
     estimated scf accuracy    <    1114.83291308 Ry

     iteration #  9     ecut=    40.00 Ry     beta= 0.40
     Davidson diagonalization with overlap

---- Real-time Memory Report at c_bands before calling an iterative solver
           546 MiB given to the printing process from OS
             0 MiB allocation reported by mallinfo(arena+hblkhd)
        108931 MiB available memory on the node where the printing process lives
------------------
     ethr =  1.00E-02,  avg # of iterations =  8.2

     negative rho (up, down):  3.544E-03 0.000E+00

     Adding external electric field

     Computed dipole along edir(1) : 
        Elec. dipole         -0.5160 Ry au,         -1.3114 Debye
        Ion. dipole          -0.5272 Ry au,         -1.3401 Debye
        Dipole              -13.6064 Ry au,        -34.5839 Debye
        Dipole field         -0.0113 Ry au, 

        Potential amp.        0.4008 Ry
        Total length         17.7855 bohr


     total cpu time spent up to now is     2385.3 secs

     total energy              =  -22381.42638711 Ry
     estimated scf accuracy    <     682.86494721 Ry

     iteration # 10     ecut=    40.00 Ry     beta= 0.40
     Davidson diagonalization with overlap

---- Real-time Memory Report at c_bands before calling an iterative solver
           547 MiB given to the printing process from OS
             0 MiB allocation reported by mallinfo(arena+hblkhd)
        108903 MiB available memory on the node where the printing process lives
------------------
     ethr =  1.00E-02,  avg # of iterations =  2.4

     negative rho (up, down):  3.209E-03 0.000E+00

     Adding external electric field

     Computed dipole along edir(1) : 
        Elec. dipole         -0.4365 Ry au,         -1.1095 Debye
        Ion. dipole          -0.5272 Ry au,         -1.3401 Debye
        Dipole             -109.5388 Ry au,       -278.4199 Debye
        Dipole field         -0.0907 Ry au, 

        Potential amp.        3.2263 Ry
        Total length         17.7855 bohr


     total cpu time spent up to now is     2464.3 secs

     total energy              =  -22148.26627440 Ry
     estimated scf accuracy    <     507.72280876 Ry

     iteration # 11     ecut=    40.00 Ry     beta= 0.40
     Davidson diagonalization with overlap

---- Real-time Memory Report at c_bands before calling an iterative solver
           547 MiB given to the printing process from OS
             0 MiB allocation reported by mallinfo(arena+hblkhd)
        108898 MiB available memory on the node where the printing process lives
------------------
     ethr =  1.00E-02,  avg # of iterations = 11.0

     negative rho (up, down):  2.564E-03 0.000E+00

     Adding external electric field

     Computed dipole along edir(1) : 
        Elec. dipole         -0.4661 Ry au,         -1.1846 Debye
        Ion. dipole          -0.5272 Ry au,         -1.3401 Debye
        Dipole              -73.8608 Ry au,       -187.7355 Debye
        Dipole field         -0.0612 Ry au, 

        Potential amp.        2.1754 Ry
        Total length         17.7855 bohr


     total cpu time spent up to now is     2829.5 secs

     total energy              =  -21431.68764771 Ry
     estimated scf accuracy    <   40005.94409970 Ry

     iteration # 12     ecut=    40.00 Ry     beta= 0.40
     Davidson diagonalization with overlap

---- Real-time Memory Report at c_bands before calling an iterative solver
           547 MiB given to the printing process from OS
             0 MiB allocation reported by mallinfo(arena+hblkhd)
        108892 MiB available memory on the node where the printing process lives
------------------
     ethr =  1.00E-02,  avg # of iterations =  7.0

     negative rho (up, down):  2.414E-03 0.000E+00

     Adding external electric field

     Computed dipole along edir(1) : 
        Elec. dipole         -0.4858 Ry au,         -1.2349 Debye
        Ion. dipole          -0.5272 Ry au,         -1.3401 Debye
        Dipole              -49.9702 Ry au,       -127.0117 Debye
        Dipole field         -0.0414 Ry au, 

        Potential amp.        1.4718 Ry
        Total length         17.7855 bohr


     total cpu time spent up to now is     3025.5 secs

     total energy              =  -22253.26299519 Ry
     estimated scf accuracy    <     384.04550262 Ry

     iteration # 13     ecut=    40.00 Ry     beta= 0.40
     Davidson diagonalization with overlap

---- Real-time Memory Report at c_bands before calling an iterative solver
           547 MiB given to the printing process from OS
             0 MiB allocation reported by mallinfo(arena+hblkhd)
        108879 MiB available memory on the node where the printing process lives
------------------
     ethr =  1.00E-02,  avg # of iterations =  3.0

     negative rho (up, down):  1.484E-03 0.000E+00

     Adding external electric field

     Computed dipole along edir(1) : 
        Elec. dipole         -0.4778 Ry au,         -1.2145 Debye
        Ion. dipole          -0.5272 Ry au,         -1.3401 Debye
        Dipole              -59.6785 Ry au,       -151.6876 Debye
        Dipole field         -0.0494 Ry au, 

        Potential amp.        1.7577 Ry
        Total length         17.7855 bohr


     total cpu time spent up to now is     3114.5 secs

     total energy              =  -22287.81208850 Ry
     estimated scf accuracy    <      91.58519588 Ry

     iteration # 14     ecut=    40.00 Ry     beta= 0.40
     Davidson diagonalization with overlap

---- Real-time Memory Report at c_bands before calling an iterative solver
           547 MiB given to the printing process from OS
             0 MiB allocation reported by mallinfo(arena+hblkhd)
        108874 MiB available memory on the node where the printing process lives
------------------
     ethr =  9.20E-03,  avg # of iterations =  2.0

     negative rho (up, down):  1.110E-03 0.000E+00

     Adding external electric field

     Computed dipole along edir(1) : 
        Elec. dipole         -0.4801 Ry au,         -1.2202 Debye
        Ion. dipole          -0.5272 Ry au,         -1.3401 Debye
        Dipole              -56.9434 Ry au,       -144.7357 Debye
        Dipole field         -0.0471 Ry au, 

        Potential amp.        1.6772 Ry
        Total length         17.7855 bohr


     total cpu time spent up to now is     3193.8 secs

     total energy              =  -22290.51264232 Ry
     estimated scf accuracy    <      40.32021051 Ry

     iteration # 15     ecut=    40.00 Ry     beta= 0.40
     Davidson diagonalization with overlap

---- Real-time Memory Report at c_bands before calling an iterative solver
           547 MiB given to the printing process from OS
             0 MiB allocation reported by mallinfo(arena+hblkhd)
        108837 MiB available memory on the node where the printing process lives
------------------
     ethr =  4.05E-03,  avg # of iterations =  4.2

     negative rho (up, down):  8.956E-04 0.000E+00

     Adding external electric field

     Computed dipole along edir(1) : 
        Elec. dipole         -0.4835 Ry au,         -1.2290 Debye
        Ion. dipole          -0.5272 Ry au,         -1.3401 Debye
        Dipole              -52.7559 Ry au,       -134.0922 Debye
        Dipole field         -0.0437 Ry au, 

        Potential amp.        1.5538 Ry
        Total length         17.7855 bohr


     total cpu time spent up to now is     3278.9 secs

     total energy              =  -22290.63180897 Ry
     estimated scf accuracy    <     121.94429657 Ry

     iteration # 16     ecut=    40.00 Ry     beta= 0.40
     Davidson diagonalization with overlap

---- Real-time Memory Report at c_bands before calling an iterative solver
           547 MiB given to the printing process from OS
             0 MiB allocation reported by mallinfo(arena+hblkhd)
        108837 MiB available memory on the node where the printing process lives
------------------
     ethr =  4.05E-03,  avg # of iterations =  4.4

     negative rho (up, down):  8.098E-04 0.000E+00

     Adding external electric field

     Computed dipole along edir(1) : 
        Elec. dipole         -0.4818 Ry au,         -1.2245 Debye
        Ion. dipole          -0.5272 Ry au,         -1.3401 Debye
        Dipole              -54.8865 Ry au,       -139.5076 Debye
        Dipole field         -0.0454 Ry au, 

        Potential amp.        1.6166 Ry
        Total length         17.7855 bohr


     total cpu time spent up to now is     3361.3 secs

     total energy              =  -22294.63060086 Ry
     estimated scf accuracy    <      66.55634383 Ry

     iteration # 17     ecut=    40.00 Ry     beta= 0.40
     Davidson diagonalization with overlap

---- Real-time Memory Report at c_bands before calling an iterative solver
           547 MiB given to the printing process from OS
             0 MiB allocation reported by mallinfo(arena+hblkhd)
        108854 MiB available memory on the node where the printing process lives
------------------
     ethr =  4.05E-03,  avg # of iterations =  1.0

     negative rho (up, down):  8.142E-04 0.000E+00

     Adding external electric field

     Computed dipole along edir(1) : 
        Elec. dipole         -0.4790 Ry au,         -1.2176 Debye
        Ion. dipole          -0.5272 Ry au,         -1.3401 Debye
        Dipole              -58.2055 Ry au,       -147.9436 Debye
        Dipole field         -0.0482 Ry au, 

        Potential amp.        1.7143 Ry
        Total length         17.7855 bohr


     total cpu time spent up to now is     3425.1 secs

     total energy              =  -22292.61029004 Ry
     estimated scf accuracy    <      58.36633883 Ry

     iteration # 18     ecut=    40.00 Ry     beta= 0.40
     Davidson diagonalization with overlap

---- Real-time Memory Report at c_bands before calling an iterative solver
           547 MiB given to the printing process from OS
             0 MiB allocation reported by mallinfo(arena+hblkhd)
        108862 MiB available memory on the node where the printing process lives
------------------
     ethr =  4.05E-03,  avg # of iterations =  1.0

     negative rho (up, down):  8.377E-04 0.000E+00

     Adding external electric field

     Computed dipole along edir(1) : 
        Elec. dipole         -0.4797 Ry au,         -1.2194 Debye
        Ion. dipole          -0.5272 Ry au,         -1.3401 Debye
        Dipole              -57.3488 Ry au,       -145.7662 Debye
        Dipole field         -0.0475 Ry au, 

        Potential amp.        1.6891 Ry
        Total length         17.7855 bohr


     total cpu time spent up to now is     3488.9 secs

     total energy              =  -22291.78047568 Ry
     estimated scf accuracy    <      46.51669531 Ry

     iteration # 19     ecut=    40.00 Ry     beta= 0.40
     Davidson diagonalization with overlap

---- Real-time Memory Report at c_bands before calling an iterative solver
           547 MiB given to the printing process from OS
             0 MiB allocation reported by mallinfo(arena+hblkhd)
        108859 MiB available memory on the node where the printing process lives
------------------
     ethr =  4.05E-03,  avg # of iterations =  1.0

     negative rho (up, down):  8.681E-04 0.000E+00

     Adding external electric field

     Computed dipole along edir(1) : 
        Elec. dipole         -0.4786 Ry au,         -1.2165 Debye
        Ion. dipole          -0.5272 Ry au,         -1.3401 Debye
        Dipole              -58.6978 Ry au,       -149.1948 Debye
        Dipole field         -0.0486 Ry au, 

        Potential amp.        1.7288 Ry
        Total length         17.7855 bohr


     total cpu time spent up to now is     3552.7 secs

     total energy              =  -22291.53745520 Ry
     estimated scf accuracy    <      29.89974623 Ry

     iteration # 20     ecut=    40.00 Ry     beta= 0.40
     Davidson diagonalization with overlap

---- Real-time Memory Report at c_bands before calling an iterative solver
           547 MiB given to the printing process from OS
             0 MiB allocation reported by mallinfo(arena+hblkhd)
        108826 MiB available memory on the node where the printing process lives
------------------
     ethr =  3.00E-03,  avg # of iterations =  1.0

     negative rho (up, down):  6.244E-01 0.000E+00

     Adding external electric field

     Computed dipole along edir(1) : 
        Elec. dipole         -0.4730 Ry au,         -1.2022 Debye
        Ion. dipole          -0.5272 Ry au,         -1.3401 Debye
        Dipole              -65.5059 Ry au,       -166.4994 Debye
        Dipole field         -0.0542 Ry au, 

        Potential amp.        1.9294 Ry
        Total length         17.7855 bohr


     total cpu time spent up to now is     3616.5 secs

     total energy              =  -22281.09942509 Ry
     estimated scf accuracy    <      31.30100983 Ry

     iteration # 21     ecut=    40.00 Ry     beta= 0.40
     Davidson diagonalization with overlap

---- Real-time Memory Report at c_bands before calling an iterative solver
           547 MiB given to the printing process from OS
             0 MiB allocation reported by mallinfo(arena+hblkhd)
        108848 MiB available memory on the node where the printing process lives
------------------
     ethr =  3.00E-03,  avg # of iterations =  6.6

     negative rho (up, down):  1.047E-03 0.000E+00

     Adding external electric field

     Computed dipole along edir(1) : 
        Elec. dipole         -0.4744 Ry au,         -1.2059 Debye
        Ion. dipole          -0.5272 Ry au,         -1.3401 Debye
        Dipole              -63.7679 Ry au,       -162.0819 Debye
        Dipole field         -0.0528 Ry au, 

        Potential amp.        1.8782 Ry
        Total length         17.7855 bohr


     total cpu time spent up to now is     3721.8 secs

     total energy              =  -22281.29126128 Ry
     estimated scf accuracy    <      18.91234067 Ry

     iteration # 22     ecut=    40.00 Ry     beta= 0.40
     Davidson diagonalization with overlap

---- Real-time Memory Report at c_bands before calling an iterative solver
           547 MiB given to the printing process from OS
             0 MiB allocation reported by mallinfo(arena+hblkhd)
        108839 MiB available memory on the node where the printing process lives
------------------
     ethr =  1.90E-03,  avg # of iterations =  3.2

     negative rho (up, down):  2.118E-02 0.000E+00

     Adding external electric field

     Computed dipole along edir(1) : 
        Elec. dipole         -0.4724 Ry au,         -1.2006 Debye
        Ion. dipole          -0.5272 Ry au,         -1.3401 Debye
        Dipole              -66.2515 Ry au,       -168.3945 Debye
        Dipole field         -0.0549 Ry au, 

        Potential amp.        1.9513 Ry
        Total length         17.7855 bohr


     total cpu time spent up to now is     3806.1 secs

     total energy              =  -22283.83019592 Ry
     estimated scf accuracy    <       4.13880099 Ry

     iteration # 23     ecut=    40.00 Ry     beta= 0.40
     Davidson diagonalization with overlap

---- Real-time Memory Report at c_bands before calling an iterative solver
           547 MiB given to the printing process from OS
             0 MiB allocation reported by mallinfo(arena+hblkhd)
        108828 MiB available memory on the node where the printing process lives
------------------
     ethr =  4.16E-04,  avg # of iterations =  8.0

     negative rho (up, down):  2.181E-02 0.000E+00

     Adding external electric field

     Computed dipole along edir(1) : 
        Elec. dipole         -0.4731 Ry au,         -1.2024 Debye
        Ion. dipole          -0.5272 Ry au,         -1.3401 Debye
        Dipole              -65.4069 Ry au,       -166.2478 Debye
        Dipole field         -0.0542 Ry au, 

        Potential amp.        1.9264 Ry
        Total length         17.7855 bohr


     total cpu time spent up to now is     3905.6 secs

     total energy              =  -22283.95193969 Ry
     estimated scf accuracy    <       0.89972895 Ry

     iteration # 24     ecut=    40.00 Ry     beta= 0.40
     Davidson diagonalization with overlap

---- Real-time Memory Report at c_bands before calling an iterative solver
           547 MiB given to the printing process from OS
             0 MiB allocation reported by mallinfo(arena+hblkhd)
        108834 MiB available memory on the node where the printing process lives
------------------
     ethr =  9.03E-05,  avg # of iterations =  9.8

     negative rho (up, down):  6.104E-02 0.000E+00

     Adding external electric field

     Computed dipole along edir(1) : 
        Elec. dipole         -0.4715 Ry au,         -1.1984 Debye
        Ion. dipole          -0.5272 Ry au,         -1.3401 Debye
        Dipole              -67.2927 Ry au,       -171.0410 Debye
        Dipole field         -0.0557 Ry au, 

        Potential amp.        1.9820 Ry
        Total length         17.7855 bohr


     total cpu time spent up to now is     4004.8 secs

     total energy              =  -22283.95527048 Ry
     estimated scf accuracy    <       0.77772389 Ry

     iteration # 25     ecut=    40.00 Ry     beta= 0.40
     Davidson diagonalization with overlap

---- Real-time Memory Report at c_bands before calling an iterative solver
           547 MiB given to the printing process from OS
             0 MiB allocation reported by mallinfo(arena+hblkhd)
        108834 MiB available memory on the node where the printing process lives
------------------
     ethr =  7.81E-05,  avg # of iterations = 10.0

     negative rho (up, down):  1.287E-03 0.000E+00

     Adding external electric field

     Computed dipole along edir(1) : 
        Elec. dipole         -0.4727 Ry au,         -1.2014 Debye
        Ion. dipole          -0.5272 Ry au,         -1.3401 Debye
        Dipole              -65.8683 Ry au,       -167.4206 Debye
        Dipole field         -0.0545 Ry au, 

        Potential amp.        1.9400 Ry
        Total length         17.7855 bohr


     total cpu time spent up to now is     4105.5 secs

     total energy              =  -22283.90717901 Ry
     estimated scf accuracy    <       1.35618747 Ry

     iteration # 26     ecut=    40.00 Ry     beta= 0.40
     Davidson diagonalization with overlap

---- Real-time Memory Report at c_bands before calling an iterative solver
           547 MiB given to the printing process from OS
             0 MiB allocation reported by mallinfo(arena+hblkhd)
        108837 MiB available memory on the node where the printing process lives
------------------
     ethr =  7.81E-05,  avg # of iterations = 14.4

     negative rho (up, down):  1.511E-03 0.000E+00

     Adding external electric field

     Computed dipole along edir(1) : 
        Elec. dipole         -0.4726 Ry au,         -1.2011 Debye
        Ion. dipole          -0.5272 Ry au,         -1.3401 Debye
        Dipole              -66.0103 Ry au,       -167.7815 Debye
        Dipole field         -0.0547 Ry au, 

        Potential amp.        1.9442 Ry
        Total length         17.7855 bohr


     total cpu time spent up to now is     4204.3 secs

     total energy              =  -22284.02404861 Ry
     estimated scf accuracy    <       0.10276330 Ry

     iteration # 27     ecut=    40.00 Ry     beta= 0.40
     Davidson diagonalization with overlap

---- Real-time Memory Report at c_bands before calling an iterative solver
           547 MiB given to the printing process from OS
             0 MiB allocation reported by mallinfo(arena+hblkhd)
        108821 MiB available memory on the node where the printing process lives
------------------
     ethr =  1.03E-05,  avg # of iterations = 10.6

     negative rho (up, down):  1.713E-03 0.000E+00

     Adding external electric field

     Computed dipole along edir(1) : 
        Elec. dipole         -0.4726 Ry au,         -1.2011 Debye
        Ion. dipole          -0.5272 Ry au,         -1.3401 Debye
        Dipole              -66.0225 Ry au,       -167.8125 Debye
        Dipole field         -0.0547 Ry au, 

        Potential amp.        1.9446 Ry
        Total length         17.7855 bohr


     total cpu time spent up to now is     4304.3 secs

     total energy              =  -22284.02101950 Ry
     estimated scf accuracy    <       0.06441388 Ry

     iteration # 28     ecut=    40.00 Ry     beta= 0.40
     Davidson diagonalization with overlap

---- Real-time Memory Report at c_bands before calling an iterative solver
           547 MiB given to the printing process from OS
             0 MiB allocation reported by mallinfo(arena+hblkhd)
        108794 MiB available memory on the node where the printing process lives
------------------
     ethr =  6.47E-06,  avg # of iterations =  6.2

     negative rho (up, down):  1.836E-03 0.000E+00

     Adding external electric field

     Computed dipole along edir(1) : 
        Elec. dipole         -0.4725 Ry au,         -1.2010 Debye
        Ion. dipole          -0.5272 Ry au,         -1.3401 Debye
        Dipole              -66.0737 Ry au,       -167.9427 Debye
        Dipole field         -0.0547 Ry au, 

        Potential amp.        1.9461 Ry
        Total length         17.7855 bohr


     total cpu time spent up to now is     4391.8 secs

     total energy              =  -22284.02538748 Ry
     estimated scf accuracy    <       0.04050785 Ry

     iteration # 29     ecut=    40.00 Ry     beta= 0.40
     Davidson diagonalization with overlap

---- Real-time Memory Report at c_bands before calling an iterative solver
           547 MiB given to the printing process from OS
             0 MiB allocation reported by mallinfo(arena+hblkhd)
        108910 MiB available memory on the node where the printing process lives
------------------
     ethr =  4.07E-06,  avg # of iterations =  2.8

     negative rho (up, down):  1.937E-03 0.000E+00

     Adding external electric field

     Computed dipole along edir(1) : 
        Elec. dipole         -0.4725 Ry au,         -1.2009 Debye
        Ion. dipole          -0.5272 Ry au,         -1.3401 Debye
        Dipole              -66.1136 Ry au,       -168.0440 Debye
        Dipole field         -0.0547 Ry au, 

        Potential amp.        1.9473 Ry
        Total length         17.7855 bohr


     total cpu time spent up to now is     4471.5 secs

     total energy              =  -22284.02819157 Ry
     estimated scf accuracy    <       0.00407631 Ry

     iteration # 30     ecut=    40.00 Ry     beta= 0.40
     Davidson diagonalization with overlap

---- Real-time Memory Report at c_bands before calling an iterative solver
           547 MiB given to the printing process from OS
             0 MiB allocation reported by mallinfo(arena+hblkhd)
        108849 MiB available memory on the node where the printing process lives
------------------
     ethr =  4.09E-07,  avg # of iterations =  7.6

     negative rho (up, down):  2.150E-03 0.000E+00

     Adding external electric field

     Computed dipole along edir(1) : 
        Elec. dipole         -0.4725 Ry au,         -1.2010 Debye
        Ion. dipole          -0.5272 Ry au,         -1.3401 Debye
        Dipole              -66.0823 Ry au,       -167.9644 Debye
        Dipole field         -0.0547 Ry au, 

        Potential amp.        1.9463 Ry
        Total length         17.7855 bohr


     total cpu time spent up to now is     4556.7 secs

     total energy              =  -22284.02845421 Ry
     estimated scf accuracy    <       0.00245413 Ry

     iteration # 31     ecut=    40.00 Ry     beta= 0.40
     Davidson diagonalization with overlap

---- Real-time Memory Report at c_bands before calling an iterative solver
           548 MiB given to the printing process from OS
             0 MiB allocation reported by mallinfo(arena+hblkhd)
        108899 MiB available memory on the node where the printing process lives
------------------
     ethr =  2.46E-07,  avg # of iterations =  6.0

     negative rho (up, down):  2.153E-03 0.000E+00

     Adding external electric field

     Computed dipole along edir(1) : 
        Elec. dipole         -0.4726 Ry au,         -1.2011 Debye
        Ion. dipole          -0.5272 Ry au,         -1.3401 Debye
        Dipole              -66.0230 Ry au,       -167.8137 Debye
        Dipole field         -0.0547 Ry au, 

        Potential amp.        1.9446 Ry
        Total length         17.7855 bohr


     total cpu time spent up to now is     4640.2 secs

     total energy              =  -22284.02827036 Ry
     estimated scf accuracy    <       0.00675306 Ry

     iteration # 32     ecut=    40.00 Ry     beta= 0.40
     Davidson diagonalization with overlap

---- Real-time Memory Report at c_bands before calling an iterative solver
           548 MiB given to the printing process from OS
             0 MiB allocation reported by mallinfo(arena+hblkhd)
        108904 MiB available memory on the node where the printing process lives
------------------
     ethr =  2.46E-07,  avg # of iterations =  2.2

     negative rho (up, down):  2.366E-03 0.000E+00

     Adding external electric field

     Computed dipole along edir(1) : 
        Elec. dipole         -0.4725 Ry au,         -1.2009 Debye
        Ion. dipole          -0.5272 Ry au,         -1.3401 Debye
        Dipole              -66.1004 Ry au,       -168.0104 Debye
        Dipole field         -0.0547 Ry au, 

        Potential amp.        1.9469 Ry
        Total length         17.7855 bohr


     total cpu time spent up to now is     4718.7 secs

     total energy              =  -22284.02859805 Ry
     estimated scf accuracy    <       0.00559929 Ry

     iteration # 33     ecut=    40.00 Ry     beta= 0.40
     Davidson diagonalization with overlap

---- Real-time Memory Report at c_bands before calling an iterative solver
           548 MiB given to the printing process from OS
             0 MiB allocation reported by mallinfo(arena+hblkhd)
        108879 MiB available memory on the node where the printing process lives
------------------
     ethr =  2.46E-07,  avg # of iterations =  2.0

     negative rho (up, down):  2.557E-03 0.000E+00

     Adding external electric field

     Computed dipole along edir(1) : 
        Elec. dipole         -0.4725 Ry au,         -1.2010 Debye
        Ion. dipole          -0.5272 Ry au,         -1.3401 Debye
        Dipole              -66.0777 Ry au,       -167.9528 Debye
        Dipole field         -0.0547 Ry au, 

        Potential amp.        1.9462 Ry
        Total length         17.7855 bohr


     total cpu time spent up to now is     4796.8 secs

     total energy              =  -22284.02890609 Ry
     estimated scf accuracy    <       0.00044618 Ry

     iteration # 34     ecut=    40.00 Ry     beta= 0.40
     Davidson diagonalization with overlap

---- Real-time Memory Report at c_bands before calling an iterative solver
           548 MiB given to the printing process from OS
             0 MiB allocation reported by mallinfo(arena+hblkhd)
        108885 MiB available memory on the node where the printing process lives
------------------
     ethr =  4.48E-08,  avg # of iterations =  2.0

     negative rho (up, down):  2.765E-03 0.000E+00

     Adding external electric field

     Computed dipole along edir(1) : 
        Elec. dipole         -0.4725 Ry au,         -1.2010 Debye
        Ion. dipole          -0.5272 Ry au,         -1.3401 Debye
        Dipole              -66.0989 Ry au,       -168.0066 Debye
        Dipole field         -0.0547 Ry au, 

        Potential amp.        1.9468 Ry
        Total length         17.7855 bohr


     total cpu time spent up to now is     4875.6 secs

     total energy              =  -22284.02895264 Ry
     estimated scf accuracy    <       0.00016777 Ry

     iteration # 35     ecut=    40.00 Ry     beta= 0.40
     Davidson diagonalization with overlap

---- Real-time Memory Report at c_bands before calling an iterative solver
           548 MiB given to the printing process from OS
             0 MiB allocation reported by mallinfo(arena+hblkhd)
        108886 MiB available memory on the node where the printing process lives
------------------
     ethr =  1.68E-08,  avg # of iterations =  2.0

     negative rho (up, down):  2.695E-03 0.000E+00

     Adding external electric field

     Computed dipole along edir(1) : 
        Elec. dipole         -0.4725 Ry au,         -1.2010 Debye
        Ion. dipole          -0.5272 Ry au,         -1.3401 Debye
        Dipole              -66.0907 Ry au,       -167.9857 Debye
        Dipole field         -0.0547 Ry au, 

        Potential amp.        1.9466 Ry
        Total length         17.7855 bohr


     total cpu time spent up to now is     4954.2 secs

     total energy              =  -22284.02897878 Ry
     estimated scf accuracy    <       0.00003655 Ry

     iteration # 36     ecut=    40.00 Ry     beta= 0.40
     Davidson diagonalization with overlap

---- Real-time Memory Report at c_bands before calling an iterative solver
           548 MiB given to the printing process from OS
             0 MiB allocation reported by mallinfo(arena+hblkhd)
        108885 MiB available memory on the node where the printing process lives
------------------
     ethr =  3.67E-09,  avg # of iterations =  3.0

     negative rho (up, down):  2.681E-03 0.000E+00

     Adding external electric field

     Computed dipole along edir(1) : 
        Elec. dipole         -0.4725 Ry au,         -1.2010 Debye
        Ion. dipole          -0.5272 Ry au,         -1.3401 Debye
        Dipole              -66.0929 Ry au,       -167.9913 Debye
        Dipole field         -0.0547 Ry au, 

        Potential amp.        1.9466 Ry
        Total length         17.7855 bohr


     total cpu time spent up to now is     5033.8 secs

     total energy              =  -22284.02898832 Ry
     estimated scf accuracy    <       0.00001283 Ry

     iteration # 37     ecut=    40.00 Ry     beta= 0.40
     Davidson diagonalization with overlap

---- Real-time Memory Report at c_bands before calling an iterative solver
           548 MiB given to the printing process from OS
             0 MiB allocation reported by mallinfo(arena+hblkhd)
        108877 MiB available memory on the node where the printing process lives
------------------
     ethr =  1.29E-09,  avg # of iterations =  3.0

     negative rho (up, down):  2.674E-03 0.000E+00

     Adding external electric field

     Computed dipole along edir(1) : 
        Elec. dipole         -0.4725 Ry au,         -1.2010 Debye
        Ion. dipole          -0.5272 Ry au,         -1.3401 Debye
        Dipole              -66.0930 Ry au,       -167.9916 Debye
        Dipole field         -0.0547 Ry au, 

        Potential amp.        1.9466 Ry
        Total length         17.7855 bohr


     total cpu time spent up to now is     5113.7 secs

     total energy              =  -22284.02899096 Ry
     estimated scf accuracy    <       0.00000444 Ry

     iteration # 38     ecut=    40.00 Ry     beta= 0.40
     Davidson diagonalization with overlap

---- Real-time Memory Report at c_bands before calling an iterative solver
           548 MiB given to the printing process from OS
             0 MiB allocation reported by mallinfo(arena+hblkhd)
        108867 MiB available memory on the node where the printing process lives
------------------
     ethr =  4.46E-10,  avg # of iterations =  3.0

     negative rho (up, down):  2.640E-03 0.000E+00

     Adding external electric field

     Computed dipole along edir(1) : 
        Elec. dipole         -0.4725 Ry au,         -1.2010 Debye
        Ion. dipole          -0.5272 Ry au,         -1.3401 Debye
        Dipole              -66.0939 Ry au,       -167.9939 Debye
        Dipole field         -0.0547 Ry au, 

        Potential amp.        1.9467 Ry
        Total length         17.7855 bohr


     total cpu time spent up to now is     5193.7 secs

     total energy              =  -22284.02899190 Ry
     estimated scf accuracy    <       0.00000830 Ry

     iteration # 39     ecut=    40.00 Ry     beta= 0.40
     Davidson diagonalization with overlap

---- Real-time Memory Report at c_bands before calling an iterative solver
           548 MiB given to the printing process from OS
             0 MiB allocation reported by mallinfo(arena+hblkhd)
        108868 MiB available memory on the node where the printing process lives
------------------
     ethr =  4.46E-10,  avg # of iterations =  2.0

     negative rho (up, down):  2.632E-03 0.000E+00

     Adding external electric field

     Computed dipole along edir(1) : 
        Elec. dipole         -0.4725 Ry au,         -1.2010 Debye
        Ion. dipole          -0.5272 Ry au,         -1.3401 Debye
        Dipole              -66.0939 Ry au,       -167.9939 Debye
        Dipole field         -0.0547 Ry au, 

        Potential amp.        1.9467 Ry
        Total length         17.7855 bohr


     total cpu time spent up to now is     5271.7 secs

     total energy              =  -22284.02899275 Ry
     estimated scf accuracy    <       0.00000148 Ry

     iteration # 40     ecut=    40.00 Ry     beta= 0.40
     Davidson diagonalization with overlap

---- Real-time Memory Report at c_bands before calling an iterative solver
           548 MiB given to the printing process from OS
             0 MiB allocation reported by mallinfo(arena+hblkhd)
        108845 MiB available memory on the node where the printing process lives
------------------
     ethr =  1.49E-10,  avg # of iterations =  2.4

     negative rho (up, down):  2.603E-03 0.000E+00

     Adding external electric field

     Computed dipole along edir(1) : 
        Elec. dipole         -0.4725 Ry au,         -1.2010 Debye
        Ion. dipole          -0.5272 Ry au,         -1.3401 Debye
        Dipole              -66.0894 Ry au,       -167.9825 Debye
        Dipole field         -0.0547 Ry au, 

        Potential amp.        1.9465 Ry
        Total length         17.7855 bohr


     total cpu time spent up to now is     5350.7 secs

     End of self-consistent calculation

          k = 0.0000 0.0000 0.0000 ( 64855 PWs)   bands (ev):

  -128.2798-128.2744-128.2731-128.2720-128.2031-128.0967-128.0765-128.0741
  -128.0731-128.0720-128.0675-128.0549-126.5499-126.5348-126.5265-126.5249
  -126.5239-126.5231-126.5215-126.5211-126.5208-126.5186-126.5181-126.5113
  -126.3886-126.3866-126.3851-126.3842-126.2986-126.2963-126.2924-126.2862
  -126.2766-126.2745-126.2720-126.2712-125.8427-125.8032-125.7331-125.7281
  -125.7257-125.7222-125.7183-125.7167-124.9548-124.8891-124.8760-124.8716
   -82.6779 -82.6564 -82.6072 -82.6022 -82.6008 -82.5992 -82.5613 -82.5510
   -82.5438 -82.5404 -82.5402 -82.5379 -82.5370 -82.5351 -82.5303 -82.5289
   -82.5251 -82.5197 -82.5134 -82.5041 -82.3678 -82.3649 -82.3617 -82.3606
   -82.3578 -82.3554 -82.3523 -82.3403 -81.5409 -81.4402 -81.4184 -81.4179
   -81.4151 -81.4141 -81.4088 -81.4006 -80.7046 -80.7031 -80.6998 -80.6904
   -80.6881 -80.6836 -80.6825 -80.6819 -80.6809 -80.6801 -80.6798 -80.6790
   -80.6782 -80.6777 -80.6768 -80.6765 -80.6764 -80.6752 -80.6742 -80.6739
   -80.6737 -80.6730 -80.6726 -80.6719 -80.6709 -80.6705 -80.6699 -80.6693
   -80.6688 -80.6683 -80.6670 -80.6620 -80.6599 -80.6595 -80.6566 -80.6504
   -80.5499 -80.5389 -80.5380 -80.5372 -80.5371 -80.5360 -80.5350 -80.5350
   -80.5330 -80.5314 -80.5305 -80.5251 -80.4610 -80.4488 -80.4486 -80.4471
   -80.4466 -80.4464 -80.4446 -80.4428 -80.4413 -80.4405 -80.4366 -80.4342
   -80.4336 -80.4305 -80.4276 -80.4271 -80.4257 -80.4244 -80.4233 -80.4226
   -80.4219 -80.4191 -80.4179 -80.4163 -80.0154 -80.0046 -79.9779 -79.9744
   -79.9615 -79.9365 -79.9185 -79.9182 -79.9059 -79.9050 -79.9044 -79.8919
   -79.8866 -79.8808 -79.8773 -79.8737 -79.8697 -79.8681 -79.8679 -79.8633
   -79.8597 -79.8562 -79.8523 -79.8507 -79.1655 -79.1445 -79.1043 -79.0932
   -79.0799 -79.0729 -79.0588 -79.0536 -78.9264 -78.8584 -78.8449 -78.8406
   -22.0582 -18.0714 -15.3199 -12.7131 -11.6586 -11.4766 -10.7038 -10.1747
   -10.1395  -9.9793  -9.9048  -9.8835  -9.8015  -9.7992  -9.7680  -9.7606
    -9.6956  -9.6784  -9.6520  -9.6281  -9.6120  -9.5932  -9.5693  -9.5667
    -9.5216  -9.4928  -9.4530  -9.3897  -9.3686  -9.3629  -9.3368  -9.3127
    -9.2888  -9.2761  -9.2659  -9.2151  -9.1885  -9.1808  -9.1788  -9.1729
    -9.1245  -9.1114  -9.1019  -9.0899  -9.0224  -9.0218  -8.9266  -8.9131
    -8.8994  -8.8143  -8.6997  -8.6869  -8.6854  -8.6511  -8.5870  -8.5284
    -8.5037  -8.4937  -8.4697  -8.4610  -8.4552  -8.4539  -8.4142  -8.3994
    -8.3847  -8.3783  -8.3575  -8.3472  -8.2879  -8.2395  -8.2336  -8.2061
    -8.2041  -8.1824  -8.1320  -8.1175  -8.0811  -8.0774  -8.0126  -8.0084
    -7.9831  -7.9753  -7.9668  -7.9069  -7.8718  -7.8690  -7.8541  -7.8513
    -7.8472  -7.8447  -7.8440  -7.8385  -7.8231  -7.8196  -7.7975  -7.7956
    -7.7894  -7.7824  -7.7513  -7.7484  -7.7065  -7.7049  -7.6985  -7.6806
    -7.6772  -7.6680  -7.6647  -7.6586  -7.6562  -7.6455  -7.6434  -7.6381
    -7.6375  -7.5864  -7.5848  -7.5778  -7.5570  -7.5447  -7.5435  -7.5170
    -7.5166  -7.5143  -7.5098  -7.5084  -7.4850  -7.4653  -7.4641  -7.4414
    -7.4377  -7.4245  -7.4239  -7.4129  -7.4000  -7.3992  -7.3784  -7.3756
    -7.3688  -7.3536  -7.3524  -7.3493  -7.3209  -7.3030  -7.2979  -7.2971
    -7.2915  -7.2897  -7.2869  -7.2731  -7.2655  -7.2588  -7.2535  -7.2497
    -7.2226  -7.2127  -7.2112  -7.2088  -7.2083  -7.1947  -7.1772  -7.1721
    -7.1663  -7.1647  -7.1541  -7.1479  -7.1447  -7.1345  -7.1331  -7.1312
    -7.1298  -7.1280  -7.1191  -7.1039  -7.0949  -7.0938  -7.0936  -7.0917
    -7.0899  -7.0749  -7.0648  -7.0551  -7.0507  -7.0491  -7.0276  -7.0265
    -7.0169  -6.9990  -6.9906  -6.9897  -6.9784  -6.9354  -6.9353  -6.9026
    -6.8904  -6.8861  -6.8828  -6.8742  -6.8629  -6.8615  -6.8416  -6.8149
    -6.8055  -6.7750  -6.7631  -6.7508  -6.7131  -6.7131  -6.6804  -6.6701
    -6.6566  -6.6338  -6.6266  -6.6207  -6.6144  -6.6107  -6.6010  -6.5980
    -6.5903  -6.5743  -6.5735  -6.5710  -6.5678  -6.5669  -6.5411  -6.5343
    -6.5177  -6.5143  -6.5091  -6.4873  -6.4760  -6.4732  -6.4657  -6.4236
    -6.3905  -6.3873  -6.3698  -6.3671  -6.3418  -6.3139  -6.3126  -6.2740
    -6.2607  -6.2099  -6.2067  -5.9957  -5.9602  -5.9342  -5.9085  -5.9011
    -5.8987  -5.8570  -5.8299  -5.7987  -5.7625  -5.7565  -5.6163  -5.5871
    -5.5778  -5.5771  -5.5433  -5.5017  -5.4921  -5.4836  -5.4720  -5.3711
    -5.3151  -5.2828  -5.2758  -5.0660  -4.6894  -4.3829  -4.3604  -4.0446
    -3.9621  -3.8485  -3.8397  -3.8334  -3.1320  -3.1181  -3.0876  -3.0040
    -2.7879  -2.7512  -2.7446  -2.7429  -2.7041  -2.5473  -2.5065  -2.4808
    -2.4775  -2.3031  -2.2187  -2.0871  -1.4733  -1.2539  -1.2346  -1.2036
    -1.1462  -0.9527  -0.9404  -0.8464  -0.5195  -0.4548  -0.3877  -0.3827
    -0.3569  -0.2721  -0.2488  -0.1672  -0.0605   0.4093   0.5021   0.6649
     0.6764   0.7261   0.7577   0.9342   0.9576   1.0304   1.2428   1.3616
     1.4238   1.4646   1.5017   1.7947   1.9328   1.9662   2.0258   2.1079
     2.1305   2.6662   2.8123   2.8736   2.9419   2.9972   3.0122   3.0727
     3.1872   3.2679   3.3294   3.3572   3.3752   3.4518   3.5178   3.5624
     3.7038   3.7255   3.7451   3.8700   3.8773   3.9797   4.0646   4.0934
     4.1122   4.4099   4.4503   4.5154   4.5243   4.6057   4.6150   4.6776
     4.8084   4.8331   4.8555   4.9005   4.9180   4.9287   4.9941   5.0811
     5.0838   5.1583   5.1669   5.2358   5.3407   5.4013   5.4758   5.5228
     5.5936   5.7319   5.7432   5.7777   5.8589   6.0166   6.0658   6.0956
     6.1448   6.2216   6.2958   6.3492   6.3641   6.3708   6.3742   6.5127
     6.5827   6.5980   6.6593   6.7063   6.7753   6.8148   6.8467   6.8703
     6.9622   7.0458   7.1174   7.1700   7.2143   7.2737

     occupation numbers 
     1.0000   1.0000   1.0000   1.0000   1.0000   1.0000   1.0000   1.0000
     1.0000   1.0000   1.0000   1.0000   1.0000   1.0000   1.0000   1.0000
     1.0000   1.0000   1.0000   1.0000   1.0000   1.0000   1.0000   1.0000
     1.0000   1.0000   1.0000   1.0000   1.0000   1.0000   1.0000   1.0000
     1.0000   1.0000   1.0000   1.0000   1.0000   1.0000   1.0000   1.0000
     1.0000   1.0000   1.0000   1.0000   1.0000   1.0000   1.0000   1.0000
     1.0000   1.0000   1.0000   1.0000   1.0000   1.0000   1.0000   1.0000
     1.0000   1.0000   1.0000   1.0000   1.0000   1.0000   1.0000   1.0000
     1.0000   1.0000   1.0000   1.0000   1.0000   1.0000   1.0000   1.0000
     1.0000   1.0000   1.0000   1.0000   1.0000   1.0000   1.0000   1.0000
     1.0000   1.0000   1.0000   1.0000   1.0000   1.0000   1.0000   1.0000
     1.0000   1.0000   1.0000   1.0000   1.0000   1.0000   1.0000   1.0000
     1.0000   1.0000   1.0000   1.0000   1.0000   1.0000   1.0000   1.0000
     1.0000   1.0000   1.0000   1.0000   1.0000   1.0000   1.0000   1.0000
     1.0000   1.0000   1.0000   1.0000   1.0000   1.0000   1.0000   1.0000
     1.0000   1.0000   1.0000   1.0000   1.0000   1.0000   1.0000   1.0000
     1.0000   1.0000   1.0000   1.0000   1.0000   1.0000   1.0000   1.0000
     1.0000   1.0000   1.0000   1.0000   1.0000   1.0000   1.0000   1.0000
     1.0000   1.0000   1.0000   1.0000   1.0000   1.0000   1.0000   1.0000
     1.0000   1.0000   1.0000   1.0000   1.0000   1.0000   1.0000   1.0000
     1.0000   1.0000   1.0000   1.0000   1.0000   1.0000   1.0000   1.0000
     1.0000   1.0000   1.0000   1.0000   1.0000   1.0000   1.0000   1.0000
     1.0000   1.0000   1.0000   1.0000   1.0000   1.0000   1.0000   1.0000
     1.0000   1.0000   1.0000   1.0000   1.0000   1.0000   1.0000   1.0000
     1.0000   1.0000   1.0000   1.0000   1.0000   1.0000   1.0000   1.0000
     1.0000   1.0000   1.0000   1.0000   1.0000   1.0000   1.0000   1.0000
     1.0000   1.0000   1.0000   1.0000   1.0000   1.0000   1.0000   1.0000
     1.0000   1.0000   1.0000   1.0000   1.0000   1.0000   1.0000   1.0000
     1.0000   1.0000   1.0000   1.0000   1.0000   1.0000   1.0000   1.0000
     1.0000   1.0000   1.0000   1.0000   1.0000   1.0000   1.0000   1.0000
     1.0000   1.0000   1.0000   1.0000   1.0000   1.0000   1.0000   1.0000
     1.0000   1.0000   1.0000   1.0000   1.0000   1.0000   1.0000   1.0000
     1.0000   1.0000   1.0000   1.0000   1.0000   1.0000   1.0000   1.0000
     1.0000   1.0000   1.0000   1.0000   1.0000   1.0000   1.0000   1.0000
     1.0000   1.0000   1.0000   1.0000   1.0000   1.0000   1.0000   1.0000
     1.0000   1.0000   1.0000   1.0000   1.0000   1.0000   1.0000   1.0000
     1.0000   1.0000   1.0000   1.0000   1.0000   1.0000   1.0000   1.0000
     1.0000   1.0000   1.0000   1.0000   1.0000   1.0000   1.0000   1.0000
     1.0000   1.0000   1.0000   1.0000   1.0000   1.0000   1.0000   1.0000
     1.0000   1.0000   1.0000   1.0000   1.0000   1.0000   1.0000   1.0000
     1.0000   1.0000   1.0000   1.0000   1.0000   1.0000   1.0000   1.0000
     1.0000   1.0000   1.0000   1.0000   1.0000   1.0000   1.0000   1.0000
     1.0000   1.0000   1.0000   1.0000   1.0000   1.0000   1.0000   1.0000
     1.0000   1.0000   1.0000   1.0000   1.0000   1.0000   1.0000   1.0000
     1.0000   1.0000   1.0000   1.0000   1.0000   1.0000   1.0000   1.0000
     1.0000   1.0000   1.0000   1.0000   1.0000   1.0000   1.0000   1.0000
     1.0000   1.0000   1.0000   1.0000   1.0000   1.0000   1.0000   1.0000
     1.0000   1.0000   1.0000   1.0000   1.0000   1.0000   1.0000   1.0000
     1.0000   1.0000   1.0000   1.0000   1.0000   1.0000   1.0000   1.0000
     1.0000   1.0000   1.0000   1.0000   1.0000   1.0000   1.0000   1.0000
     1.0000   1.0000   1.0000   1.0000   1.0000   1.0000   1.0000   1.0000
     1.0000   1.0000   1.0000   1.0000   1.0000   1.0000   1.0000   1.0000
     1.0000   1.0000   1.0000   1.0000   1.0000   1.0000   1.0000   1.0000
     1.0000   1.0000   1.0000   1.0000   1.0000   1.0000   1.0000   1.0000
     1.0000   1.0000   1.0000   1.0000   1.0000   1.0000   1.0000   1.0000
     1.0000   1.0000   1.0000   1.0000   1.0000   1.0000   1.0000   1.0000
     1.0000   1.0000   1.0000   1.0000   1.0000   1.0000   1.0000   1.0000
     1.0000   1.0000   1.0000   1.0000   1.0000   1.0000   1.0000   1.0000
     1.0000   1.0000   1.0000   1.0000   1.0000   1.0000   1.0000   1.0000
     1.0000   1.0000   1.0000   1.0000   1.0000   1.0000   1.0000   1.0000
     1.0000   1.0000   1.0000   1.0000   1.0000   1.0000   1.0000   1.0000
     1.0000   1.0000   1.0000   1.0003   1.0294   1.0496   1.0719   1.0733
     1.0795   1.0744   1.0625   0.9713   0.7377   0.0107   0.0024   0.0001
     0.0001   0.0000   0.0000   0.0000   0.0000   0.0000   0.0000   0.0000
     0.0000   0.0000   0.0000   0.0000   0.0000   0.0000   0.0000   0.0000
     0.0000   0.0000   0.0000   0.0000   0.0000   0.0000   0.0000   0.0000
     0.0000   0.0000   0.0000   0.0000   0.0000   0.0000   0.0000   0.0000
     0.0000   0.0000   0.0000   0.0000   0.0000   0.0000   0.0000   0.0000
     0.0000   0.0000   0.0000   0.0000   0.0000   0.0000   0.0000   0.0000
     0.0000   0.0000   0.0000   0.0000   0.0000   0.0000   0.0000   0.0000
     0.0000   0.0000   0.0000   0.0000   0.0000   0.0000   0.0000   0.0000
     0.0000   0.0000   0.0000   0.0000   0.0000   0.0000   0.0000   0.0000
     0.0000   0.0000   0.0000   0.0000   0.0000   0.0000   0.0000   0.0000
     0.0000   0.0000   0.0000   0.0000   0.0000   0.0000   0.0000   0.0000
     0.0000   0.0000   0.0000   0.0000   0.0000   0.0000

          k = 0.0000 0.3849 0.0000 ( 64840 PWs)   bands (ev):

  -128.2798-128.2744-128.2730-128.2720-128.2031-128.0967-128.0765-128.0741
  -128.0731-128.0720-128.0675-128.0549-126.5499-126.5348-126.5265-126.5249
  -126.5239-126.5231-126.5215-126.5211-126.5208-126.5186-126.5181-126.5113
  -126.3886-126.3866-126.3851-126.3842-126.2986-126.2963-126.2924-126.2862
  -126.2766-126.2745-126.2720-126.2712-125.8427-125.8032-125.7331-125.7281
  -125.7257-125.7222-125.7183-125.7167-124.9548-124.8891-124.8760-124.8716
   -82.6779 -82.6564 -82.6072 -82.6023 -82.6008 -82.5992 -82.5613 -82.5510
   -82.5438 -82.5404 -82.5388 -82.5379 -82.5370 -82.5351 -82.5333 -82.5302
   -82.5208 -82.5197 -82.5147 -82.5041 -82.3668 -82.3647 -82.3618 -82.3607
   -82.3600 -82.3575 -82.3481 -82.3415 -81.5409 -81.4402 -81.4184 -81.4179
   -81.4151 -81.4141 -81.4088 -81.4006 -80.7046 -80.7031 -80.6996 -80.6904
   -80.6881 -80.6836 -80.6830 -80.6812 -80.6809 -80.6801 -80.6798 -80.6783
   -80.6779 -80.6776 -80.6768 -80.6765 -80.6763 -80.6756 -80.6749 -80.6742
   -80.6738 -80.6736 -80.6729 -80.6723 -80.6720 -80.6711 -80.6705 -80.6701
   -80.6692 -80.6670 -80.6637 -80.6603 -80.6595 -80.6593 -80.6579 -80.6513
   -80.5484 -80.5436 -80.5389 -80.5372 -80.5359 -80.5351 -80.5350 -80.5331
[...]
     atom   58 type  4   force =     0.00000000    0.00000000    0.00000000
     atom   59 type  4   force =     0.00000000    0.00000000    0.00000000
     atom   60 type  4   force =     0.00000000    0.00000000    0.00000000
     atom   61 type  4   force =     0.00000000    0.00000000    0.00000000
     atom   62 type  4   force =     0.00000000    0.00000000    0.00000000
     atom   63 type  4   force =     0.00000000    0.00000000    0.00000000
     The Hubbard contrib.    to forces
     atom    1 type  1   force =     0.00000000    0.00000000    0.00000000
     atom    2 type  1   force =     0.00000000    0.00000000    0.00000000
     atom    3 type  1   force =     0.00000000    0.00000000    0.00000000
     atom    4 type  1   force =     0.00000000    0.00000000    0.00000000
     atom    5 type  1   force =     0.00000000    0.00000000    0.00000000
     atom    6 type  1   force =     0.00000000    0.00000000    0.00000000
     atom    7 type  1   force =     0.00000000    0.00000000    0.00000000
     atom    8 type  1   force =     0.00000000    0.00000000    0.00000000
     atom    9 type  1   force =     0.00000000    0.00000000    0.00000000
     atom   10 type  1   force =     0.00000000    0.00000000    0.00000000
     atom   11 type  1   force =     0.00000000    0.00000000    0.00000000
     atom   12 type  1   force =     0.00000000    0.00000000    0.00000000
     atom   13 type  1   force =     0.00000000    0.00000000    0.00000000
     atom   14 type  1   force =     0.00000000    0.00000000    0.00000000
     atom   15 type  1   force =     0.00000000    0.00000000    0.00000000
     atom   16 type  1   force =     0.00000000    0.00000000    0.00000000
     atom   17 type  1   force =     0.00000000    0.00000000    0.00000000
     atom   18 type  1   force =     0.00000000    0.00000000    0.00000000
     atom   19 type  1   force =     0.00000000    0.00000000    0.00000000
     atom   20 type  1   force =     0.00000000    0.00000000    0.00000000
     atom   21 type  1   force =     0.00000000    0.00000000    0.00000000
     atom   22 type  1   force =     0.00000000    0.00000000    0.00000000
     atom   23 type  1   force =     0.00000000    0.00000000    0.00000000
     atom   24 type  1   force =     0.00000000    0.00000000    0.00000000
     atom   25 type  1   force =     0.00000000    0.00000000    0.00000000
     atom   26 type  1   force =     0.00000000    0.00000000    0.00000000
     atom   27 type  1   force =     0.00000000    0.00000000    0.00000000
     atom   28 type  1   force =     0.00000000    0.00000000    0.00000000
     atom   29 type  1   force =     0.00000000    0.00000000    0.00000000
     atom   30 type  1   force =     0.00000000    0.00000000    0.00000000
     atom   31 type  1   force =     0.00000000    0.00000000    0.00000000
     atom   32 type  1   force =     0.00000000    0.00000000    0.00000000
     atom   33 type  1   force =     0.00000000    0.00000000    0.00000000
     atom   34 type  1   force =     0.00000000    0.00000000    0.00000000
     atom   35 type  1   force =     0.00000000    0.00000000    0.00000000
     atom   36 type  1   force =     0.00000000    0.00000000    0.00000000
     atom   37 type  1   force =     0.00000000    0.00000000    0.00000000
     atom   38 type  1   force =     0.00000000    0.00000000    0.00000000
     atom   39 type  1   force =     0.00000000    0.00000000    0.00000000
     atom   40 type  1   force =     0.00000000    0.00000000    0.00000000
     atom   41 type  1   force =     0.00000000    0.00000000    0.00000000
     atom   42 type  1   force =     0.00000000    0.00000000    0.00000000
     atom   43 type  1   force =     0.00000000    0.00000000    0.00000000
     atom   44 type  1   force =     0.00000000    0.00000000    0.00000000
     atom   45 type  1   force =     0.00000000    0.00000000    0.00000000
     atom   46 type  1   force =     0.00000000    0.00000000    0.00000000
     atom   47 type  1   force =     0.00000000    0.00000000    0.00000000
     atom   48 type  1   force =     0.00000000    0.00000000    0.00000000
     atom   49 type  3   force =     0.00000000    0.00000000    0.00000000
     atom   50 type  3   force =     0.00000000    0.00000000    0.00000000
     atom   51 type  3   force =     0.00000000    0.00000000    0.00000000
     atom   52 type  3   force =     0.00000000    0.00000000    0.00000000
     atom   53 type  3   force =     0.00000000    0.00000000    0.00000000
     atom   54 type  3   force =     0.00000000    0.00000000    0.00000000
     atom   55 type  2   force =     0.00000000    0.00000000    0.00000000
     atom   56 type  4   force =     0.00000000    0.00000000    0.00000000
     atom   57 type  4   force =     0.00000000    0.00000000    0.00000000
     atom   58 type  4   force =     0.00000000    0.00000000    0.00000000
     atom   59 type  4   force =     0.00000000    0.00000000    0.00000000
     atom   60 type  4   force =     0.00000000    0.00000000    0.00000000
     atom   61 type  4   force =     0.00000000    0.00000000    0.00000000
     atom   62 type  4   force =     0.00000000    0.00000000    0.00000000
     atom   63 type  4   force =     0.00000000    0.00000000    0.00000000
     The SCF correction term to forces
     atom    1 type  1   force =    -0.00000000    0.00000000    0.00000000
     atom    2 type  1   force =    -0.00000000   -0.00000000    0.00000000
     atom    3 type  1   force =     0.00015675    0.00042171   -0.00030382
     atom    4 type  1   force =    -0.00073620   -0.00025566   -0.00007493
     atom    5 type  1   force =     0.00000000   -0.00000000    0.00000000
     atom    6 type  1   force =    -0.00000000   -0.00000000    0.00000000
     atom    7 type  1   force =    -0.00012681    0.00017938   -0.00061610
     atom    8 type  1   force =    -0.00052258   -0.00084745    0.00012414
     atom    9 type  1   force =     0.00000000   -0.00000000    0.00000000
     atom   10 type  1   force =    -0.00000000   -0.00000000    0.00000000
     atom   11 type  1   force =     0.00032481   -0.00015779   -0.00030596
     atom   12 type  1   force =    -0.00105198   -0.00077852    0.00006159
     atom   13 type  1   force =     0.00000000    0.00000000    0.00000000
     atom   14 type  1   force =    -0.00000000   -0.00000000    0.00000000
     atom   15 type  1   force =     0.00061710    0.00009489    0.00001423
     atom   16 type  1   force =    -0.00122909   -0.00015649    0.00009575
     atom   17 type  1   force =    -0.00000000    0.00000000    0.00000000
     atom   18 type  1   force =     0.00000000    0.00000000    0.00000000
     atom   19 type  1   force =     0.00069292    0.00023823   -0.00023194
     atom   20 type  1   force =    -0.00038473    0.00041766   -0.00033964
     atom   21 type  1   force =    -0.00000000   -0.00000000    0.00000000
     atom   22 type  1   force =     0.00000000   -0.00000000    0.00000000
     atom   23 type  1   force =     0.00028944    0.00008183   -0.00037107
     atom   24 type  1   force =     0.00000325   -0.00023214   -0.00029810
     atom   25 type  1   force =    -0.00000000   -0.00000000    0.00000000
     atom   26 type  1   force =     0.00000000   -0.00000000    0.00000000
     atom   27 type  1   force =    -0.00000514    0.00017264   -0.00037395
     atom   28 type  1   force =     0.00029038   -0.00049784    0.00013810
     atom   29 type  1   force =     0.00000000   -0.00000000    0.00000000
     atom   30 type  1   force =     0.00000000    0.00000000    0.00000000
     atom   31 type  1   force =     0.00041385    0.00030777   -0.00025272
     atom   32 type  1   force =    -0.00012130    0.00018390    0.00011024
     atom   33 type  1   force =     0.00021817    0.00076086   -0.00009362
     atom   34 type  1   force =    -0.00002355    0.00068914    0.00021107
     atom   35 type  1   force =    -0.00042301    0.00041094   -0.00070486
     atom   36 type  1   force =     0.00061538   -0.00033993    0.00047366
     atom   37 type  1   force =     0.00012371   -0.00054702   -0.00046585
     atom   38 type  1   force =     0.00013605   -0.00069489    0.00060544
     atom   39 type  1   force =     0.00078689   -0.00021833    0.00014671
     atom   40 type  1   force =    -0.00054945    0.00044060    0.00033530
     atom   41 type  1   force =     0.00038278    0.00020956    0.00044697
     atom   42 type  1   force =    -0.00018433    0.00123178   -0.00040633
     atom   43 type  1   force =    -0.00014465   -0.00012946    0.00021755
     atom   44 type  1   force =     0.00035386    0.00024704   -0.00046405
     atom   45 type  1   force =    -0.00076410   -0.00042449   -0.00004284
     atom   46 type  1   force =     0.00097464   -0.00077894    0.00009273
     atom   47 type  1   force =    -0.00021159   -0.00007922    0.00019249
     atom   48 type  1   force =     0.00042890    0.00022011    0.00019930
     atom   49 type  3   force =     0.00008719    0.00004833    0.00000285
     atom   50 type  3   force =    -0.00012837   -0.00008096    0.00012105
     atom   51 type  3   force =     0.00007660    0.00004104   -0.00012524
     atom   52 type  3   force =    -0.00013648   -0.00008392    0.00000871
     atom   53 type  3   force =    -0.00012031   -0.00007293   -0.00018836
     atom   54 type  3   force =    -0.00009952   -0.00005963   -0.00012347
     atom   55 type  2   force =    -0.00015965   -0.00010163   -0.00014020
     atom   56 type  4   force =     0.00002869    0.00001613    0.00000756
     atom   57 type  4   force =    -0.00003584   -0.00002282    0.00003928
     atom   58 type  4   force =    -0.00000016   -0.00000454   -0.00002278
     atom   59 type  4   force =     0.00002415    0.00001323   -0.00002790
     atom   60 type  4   force =    -0.00002158   -0.00001340    0.00000410
     atom   61 type  4   force =    -0.00001654   -0.00001279   -0.00002553
     atom   62 type  4   force =    -0.00001067   -0.00000647   -0.00002174
     atom   63 type  4   force =    -0.00003287   -0.00001832   -0.00002280

     DFT-D3 dispersion contribution to forces:
     atom    1 type  1   force =    -0.00000217    0.00000142    0.00257066
     atom    2 type  1   force =     0.00000060    0.00000502    0.00257283
     atom    3 type  1   force =     0.00002152    0.00004897   -0.00244144
     atom    4 type  1   force =    -0.00000523    0.00001778   -0.00249132
     atom    5 type  1   force =    -0.00001507   -0.00000687    0.00255797
     atom    6 type  1   force =    -0.00001319    0.00005303    0.00266537
     atom    7 type  1   force =     0.00023403    0.00010467   -0.00229420
     atom    8 type  1   force =    -0.00046434    0.00072294   -0.00143437
     atom    9 type  1   force =     0.00000271   -0.00000129    0.00257188
     atom   10 type  1   force =     0.00000154   -0.00000358    0.00275719
     atom   11 type  1   force =    -0.00001929   -0.00001147   -0.00244896
     atom   12 type  1   force =     0.00001240   -0.00007949   -0.00185159
     atom   13 type  1   force =    -0.00001991   -0.00001150    0.00259178
     atom   14 type  1   force =     0.00003919   -0.00003645    0.00264666
     atom   15 type  1   force =    -0.00016212   -0.00010639   -0.00235848
     atom   16 type  1   force =     0.00038479   -0.00073172   -0.00153260
     atom   17 type  1   force =    -0.00000021    0.00002974    0.00260246
     atom   18 type  1   force =     0.00000386    0.00002118    0.00255199
     atom   19 type  1   force =    -0.00001703    0.00025203   -0.00231297
     atom   20 type  1   force =    -0.00000214   -0.00015791   -0.00243077
     atom   21 type  1   force =     0.00001601    0.00004980    0.00265810
     atom   22 type  1   force =     0.00001266   -0.00001263    0.00255613
     atom   23 type  1   force =     0.00043420    0.00071057   -0.00137358
     atom   24 type  1   force =    -0.00019912    0.00012808   -0.00233967
     atom   25 type  1   force =     0.00005295   -0.00002003    0.00265463
     atom   26 type  1   force =    -0.00005305   -0.00001632    0.00265053
     atom   27 type  1   force =     0.00082489   -0.00008263   -0.00145305
     atom   28 type  1   force =    -0.00085882   -0.00003342   -0.00136571
     atom   29 type  1   force =     0.00001970   -0.00000863    0.00259258
     atom   30 type  1   force =    -0.00003864   -0.00003468    0.00265079
     atom   31 type  1   force =     0.00013733   -0.00008590   -0.00242158
     atom   32 type  1   force =    -0.00034367   -0.00074267   -0.00150106
     atom   33 type  1   force =     0.00000820   -0.00001790   -0.00001620
     atom   34 type  1   force =    -0.00002340   -0.00001051    0.00005394
     atom   35 type  1   force =     0.00002961   -0.00001474    0.00009063
     atom   36 type  1   force =    -0.00002318   -0.00001808    0.00006455
     atom   37 type  1   force =    -0.00001414    0.00002836    0.00004235
     atom   38 type  1   force =     0.00000487   -0.00000279    0.00034893
     atom   39 type  1   force =     0.00000313    0.00001898   -0.00000967
     atom   40 type  1   force =    -0.00000092    0.00000272    0.00029693
     atom   41 type  1   force =    -0.00000965   -0.00002224   -0.00001466
     atom   42 type  1   force =     0.00002204   -0.00000644    0.00005609
     atom   43 type  1   force =    -0.00000906   -0.00023603   -0.00006614
     atom   44 type  1   force =     0.00000500    0.00000041   -0.00003523
     atom   45 type  1   force =    -0.00001015   -0.00000104    0.00035846
     atom   46 type  1   force =     0.00001327    0.00003370    0.00006687
     atom   47 type  1   force =    -0.00022870    0.00013179   -0.00012657
     atom   48 type  1   force =     0.00022619    0.00012876   -0.00011422
     atom   49 type  3   force =     0.00015829    0.00009914   -0.00027344
     atom   50 type  3   force =    -0.00000268   -0.00001031    0.00018812
     atom   51 type  3   force =     0.00017253    0.00014649   -0.00052190
     atom   52 type  3   force =    -0.00015460   -0.00008561   -0.00028222
     atom   53 type  3   force =     0.00000412   -0.00000586   -0.00100467
     atom   54 type  3   force =    -0.00021313   -0.00008428   -0.00053732
     atom   55 type  2   force =     0.00000281   -0.00002395   -0.00162274
     atom   56 type  4   force =    -0.00001263   -0.00000579   -0.00002268
     atom   57 type  4   force =    -0.00000094    0.00000696   -0.00008911
     atom   58 type  4   force =     0.00004680   -0.00006186   -0.00204866
     atom   59 type  4   force =    -0.00004512   -0.00000927   -0.00040170
     atom   60 type  4   force =     0.00000861    0.00000646   -0.00002386
     atom   61 type  4   force =     0.00006041   -0.00002813   -0.00203769
     atom   62 type  4   force =     0.00002661    0.00003625   -0.00041717
     atom   63 type  4   force =    -0.00002855    0.00004315   -0.00170121

     Total force =    28.518401     Total SCF correction =     0.004413

     DFT-D3 dispersion Force =     0.014083

     Writing all to output data dir ./tmp/01_Zn002_topsite_upright.save/ :
     XML data file, charge density, pseudopotentials, collected wavefunctions

     init_run     :     26.08s CPU     26.48s WALL (       1 calls)
     electrons    :   5293.95s CPU   5324.10s WALL (       1 calls)
     forces       :     18.43s CPU     18.63s WALL (       1 calls)
     force_dftd3  :      0.20s CPU      0.20s WALL (       1 calls)

     Called by init_run:
     wfcinit      :     24.42s CPU     24.73s WALL (       1 calls)
     wfcinit:atom :      0.06s CPU      0.09s WALL (       5 calls)
     wfcinit:wfcr :     23.93s CPU     24.13s WALL (       5 calls)
     potinit      :      0.46s CPU      0.48s WALL (       1 calls)
     hinit0       :      0.41s CPU      0.42s WALL (       1 calls)

     Called by electrons:
     c_bands      :   5040.00s CPU   5066.05s WALL (      40 calls)
     sum_band     :    235.92s CPU    238.61s WALL (      40 calls)
     v_of_rho     :      3.44s CPU      3.63s WALL (      41 calls)
     v_h          :      0.16s CPU      0.20s WALL (      41 calls)
     v_xc         :      3.29s CPU      3.44s WALL (      42 calls)
     newd         :     11.89s CPU     13.01s WALL (      41 calls)
     PAW_pot      :      2.26s CPU      2.27s WALL (      41 calls)
     mix_rho      :      0.60s CPU      0.67s WALL (      40 calls)
     energy_dftd3 :      0.12s CPU      0.13s WALL (       1 calls)

     Called by c_bands:
     init_us_2    :      8.73s CPU      8.82s WALL (     410 calls)
     cegterg      :   5022.82s CPU   5048.56s WALL (     205 calls)

     Called by sum_band:
     sum_band:wei :      0.05s CPU      0.05s WALL (      40 calls)
     sum_band:loo :    223.21s CPU    224.28s WALL (      40 calls)
     sum_band:buf :      2.16s CPU      2.19s WALL (     200 calls)
     sum_band:ini :      4.28s CPU      4.30s WALL (     200 calls)
     sum_band:cal :    164.13s CPU    164.71s WALL (     200 calls)
     sum_band:bec :      1.15s CPU      1.16s WALL (     200 calls)
     addusdens    :     11.75s CPU     13.27s WALL (      40 calls)
                                        0.00s GPU  (      40 calls)
     addusd:skk   :      0.57s CPU      0.62s WALL (     160 calls)
                                        0.00s GPU  (     160 calls)

     Called by *egterg:
     cdiaghg      :    602.46s CPU    604.93s WALL (    1407 calls)
     cegterg:over :    705.39s CPU    707.93s WALL (    1202 calls)
     cegterg:upda :    451.80s CPU    454.43s WALL (    1202 calls)
     cegterg:last :   1293.17s CPU   1297.40s WALL (     611 calls)
     cdiaghg:chol :     42.51s CPU     42.64s WALL (    1407 calls)
     cdiaghg:inve :      5.92s CPU      5.94s WALL (    1407 calls)
     cdiaghg:para :    154.71s CPU    155.83s WALL (    2814 calls)
     h_psi        :   1336.47s CPU   1345.20s WALL (    1412 calls)
     s_psi        :    508.99s CPU    510.51s WALL (    1412 calls)
     g_psi        :      3.62s CPU      3.65s WALL (    1202 calls)

     Called by h_psi:
     h_psi:calbec :    520.40s CPU    522.27s WALL (    1412 calls)
     vloc_psi     :    300.21s CPU    302.80s WALL (    1412 calls)
     add_vuspsi   :    509.84s CPU    511.42s WALL (    1412 calls)

     General routines
     calbec       :    700.92s CPU    703.41s WALL (    1632 calls)
     fft          :      2.89s CPU      3.19s WALL (     542 calls)
     ffts         :      0.38s CPU      0.43s WALL (      81 calls)
     fftw         :    283.31s CPU    285.53s WALL (  875240 calls)
     interpolate  :      0.45s CPU      0.50s WALL (      41 calls)

     Parallel routines

     PAW routines
     PAW_pot      :      2.26s CPU      2.27s WALL (      41 calls)

     PWSCF        :      1h29m CPU      1h29m WALL


   This run was terminated on:   3:12:40   5Apr2025            

=------------------------------------------------------------------------------=
   JOB DONE.
=------------------------------------------------------------------------------=
Note: The following floating-point exceptions are signalling: IEEE_DENORMAL
Note: The following floating-point exceptions are signalling: IEEE_DENORMAL
Note: The following floating-point exceptions are signalling: IEEE_DENORMAL
Note: The following floating-point exceptions are signalling: IEEE_DENORMAL
Note: The following floating-point exceptions are signalling: IEEE_DENORMAL
Note: The following floating-point exceptions are signalling: IEEE_DENORMAL
Note: The following floating-point exceptions are signalling: IEEE_DENORMAL
Note: The following floating-point exceptions are signalling: IEEE_DENORMAL
Note: The following floating-point exceptions are signalling: IEEE_DENORMAL
Note: The following floating-point exceptions are signalling: IEEE_DENORMAL
Note: The following floating-point exceptions are signalling: IEEE_DENORMAL
Note: The following floating-point exceptions are signalling: IEEE_DENORMAL
