
     Program PWSCF v.7.3.1 starts on  7Apr2025 at  4:56:48 

     This program is part of the open-source Quantum ESPRESSO suite
     for quantum simulation of materials; please cite
         "P. Giannozzi et al., J. Phys.:Condens. Matter 21 395502 (2009);
         "P. Giannozzi et al., J. Phys.:Condens. Matter 29 465901 (2017);
         "P. Giannozzi et al., J. Chem. Phys. 152 154105 (2020);
          URL http://www.quantum-espresso.org", 
     in publications or presentations arising from this work. More details at
     http://www.quantum-espresso.org/quote

     Parallel version (MPI), running on    25 processors

     MPI processes distributed on     1 nodes
     212199 MiB available memory on the printing compute node when the environment starts

     Waiting for input...
     Reading input from standard input
Warning: card &CELL ignored
Warning: card   CELL_DOFREE = 'ALL' ignored
Warning: card / ignored

     Current dimensions of program PWSCF are:
     Max number of different atomic species (ntypx) = 10
     Max number of k-points (npk) =  40000
     Max angular momentum in pseudopotentials (lmaxx) =  4
     file C.pbe-n-kjpaw_psl.1.0.0.UPF: wavefunction(s)  2S 2P renormalized

     R & G space division:  proc/nbgrp/npool/nimage =      25
     Subspace diagonalization in iterative solution of the eigenvalue problem:
     one sub-group per band group will be used
     custom distributed-memory algorithm (size of sub-group:  5*  5 procs)


     Parallelization info
     --------------------
     sticks:   dense  smooth     PW     G-vecs:    dense   smooth      PW
     Min         357     204     56                53314    23031    3341
     Max         358     205     57                53323    23038    3348
     Sum        8941    5109   1411              1332973   575857   83601

     Using Slab Decomposition



     bravais-lattice index     =            0
     lattice parameter (alat)  =      20.9009  a.u.
     unit-cell volume          =   16846.7507 (a.u.)^3
     number of atoms/cell      =           63
     number of atomic types    =            4
     number of electrons       =      1004.00
     number of Kohn-Sham states=          602
     kinetic-energy cutoff     =      40.0000  Ry
     charge density cutoff     =     280.0000  Ry
     scf convergence threshold =      1.0E-06
     mixing beta               =       0.4000
     number of iterations used =            8  plain     mixing
     energy convergence thresh.=      1.0E-05
     force convergence thresh. =      5.0E-04
     Exchange-correlation= PBE
                           (   1   4   3   4   0   0   0)
     nstep                     =          500


     celldm(1)=  20.900943  celldm(2)=   0.000000  celldm(3)=   0.000000
     celldm(4)=   0.000000  celldm(5)=   0.000000  celldm(6)=   0.000000

     crystal axes: (cart. coord. in units of alat)
               a(1) = (   1.000000   0.000000   0.000000 )  
               a(2) = (  -0.223489   0.918700   0.000000 )  
               a(3) = (  -4.200249  -1.021781   2.008375 )  

     reciprocal axes: (cart. coord. in units 2 pi/alat)
               b(1) = (  1.000000  0.243267  2.215131 )  
               b(2) = ( -0.000000  1.088495  0.553783 )  
               b(3) = (  0.000000 -0.000000  0.497915 )  


     PseudoPot. # 1 for Zn read from file:
     /home/yongsang/Research/PSID_server_room/qe/[00]QE/qepseudo/SSSP_1.3.0_PBE_efficiency/Zn_pbe_v1.uspp.F.UPF
     MD5 check sum: df62231357ef9e81f77b2b3087fa5675
     Pseudo is Ultrasoft, Zval = 20.0
     Generated by new atomic code, or converted to UPF format
     Using radial grid of  943 points,  6 beta functions with: 
                l(1) =   0
                l(2) =   0
                l(3) =   1
                l(4) =   1
                l(5) =   2
                l(6) =   2
     Q(r) pseudized with  8 coefficients,  rinner =    1.100   1.100   1.100
                                                       1.100   1.100

     PseudoPot. # 2 for N  read from file:
     /home/yongsang/Research/PSID_server_room/qe/[00]QE/qepseudo/SSSP_1.3.0_PBE_efficiency/N.pbe-n-radius_5.UPF
     MD5 check sum: 16739722b17309cd8fe442a2ace49922
     Pseudo is Ultrasoft + core correction, Zval =  5.0
     Generated using "atomic" code by A. Dal Corso  v.5.1
     Using radial grid of 1085 points,  4 beta functions with: 
                l(1) =   0
                l(2) =   0
                l(3) =   1
                l(4) =   1
     Q(r) pseudized with 0 coefficients 


     PseudoPot. # 3 for C  read from file:
     /home/yongsang/Research/PSID_server_room/qe/[00]QE/qepseudo/SSSP_1.3.0_PBE_efficiency/C.pbe-n-kjpaw_psl.1.0.0.UPF
     MD5 check sum: 5d2aebdfa2cae82b50a7e79e9516da0f
     Pseudo is Projector augmented-wave + core cor, Zval =  4.0
     Generated using "atomic" code by A. Dal Corso  v.5.1
     Shape of augmentation charge: PSQ
     Using radial grid of 1073 points,  4 beta functions with: 
                l(1) =   0
                l(2) =   0
                l(3) =   1
                l(4) =   1
     Q(r) pseudized with 0 coefficients 


     PseudoPot. # 4 for H  read from file:
     /home/yongsang/Research/PSID_server_room/qe/[00]QE/qepseudo/SSSP_1.3.0_PBE_efficiency/H.pbe-rrkjus_psl.1.0.0.UPF
     MD5 check sum: f52b6d4d1c606e5624b1dc7b2218f220
     Pseudo is Ultrasoft, Zval =  1.0
     Generated using "atomic" code by A. Dal Corso  v.5.1
     Using radial grid of  929 points,  2 beta functions with: 
                l(1) =   0
                l(2) =   0
     Q(r) pseudized with 0 coefficients 


     atomic species   valence    mass     pseudopotential
     Zn               20.00    65.38000     Zn( 1.00)
     N                 5.00    14.00674     N ( 1.00)
     C                 4.00    12.01070     C ( 1.00)
     H                 1.00     1.00794     H ( 1.00)

     No symmetry found


                                    s                        frac. trans.

      isym =  1     identity                                     

 cryst.   s( 1) = (     1          0          0      )
                  (     0          1          0      )
                  (     0          0          1      )

 cart.    s( 1) = (  1.0000000  0.0000000  0.0000000 )
                  (  0.0000000  1.0000000  0.0000000 )
                  (  0.0000000  0.0000000  1.0000000 )


   Cartesian axes

     site n.     atom                  positions (alat units)
         1        Zn     tau(   1) = (  -0.0970639   0.0980210   0.1082940  )
         2        Zn     tau(   2) = (  -0.2088085   0.5573710   0.1082940  )
         3        Zn     tau(   3) = (  -0.3828739   0.0269260   0.3924669  )
         4        Zn     tau(   4) = (  -0.4943536   0.4866568   0.3927669  )
         5        Zn     tau(   5) = (  -0.7384879  -0.0609148   0.5268861  )
         6        Zn     tau(   6) = (  -0.8488665   0.3982406   0.5220992  )
         7        Zn     tau(   7) = (  -0.1529361   0.3276960   0.1082940  )
         8        Zn     tau(   8) = (  -0.2646808   0.7870460   0.1082940  )
         9        Zn     tau(   9) = (  -0.4386182   0.2564650   0.3928925  )
        10        Zn     tau(  10) = (  -0.5503270   0.7162744   0.3923244  )
        11        Zn     tau(  11) = (  -0.7941320   0.1688098   0.5264832  )
        12        Zn     tau(  12) = (  -0.9061328   0.6278015   0.5263000  )
        13        Zn     tau(  13) = (   0.4029362   0.0980210   0.1082940  )
        14        Zn     tau(  14) = (   0.2911915   0.5573710   0.1082940  )
        15        Zn     tau(  15) = (   0.0361916   0.0072606   0.3153639  )
        16        Zn     tau(  16) = (  -0.0757565   0.4669585   0.3141091  )
        17        Zn     tau(  17) = (  -0.1877898  -0.0468486   0.5117250  )
        18        Zn     tau(  18) = (  -0.2996746   0.4124381   0.5119248  )
        19        Zn     tau(  19) = (   0.3470638   0.3276960   0.1082940  )
        20        Zn     tau(  20) = (   0.2353192   0.7870460   0.1082940  )
        21        Zn     tau(  21) = (  -0.0197713   0.2367754   0.3146433  )
        22        Zn     tau(  22) = (  -0.1315325   0.6962995   0.3146097  )
        23        Zn     tau(  23) = (  -0.2440117   0.1826856   0.5119145  )
        24        Zn     tau(  24) = (  -0.3551526   0.6419540   0.5118874  )
        25        Zn     tau(  25) = (   0.1529361   0.0372043   0.0773528  )
        26        Zn     tau(  26) = (   0.0411915   0.4965543   0.0773528  )
        27        Zn     tau(  27) = (  -0.2027696  -0.0496070   0.2588067  )
        28        Zn     tau(  28) = (  -0.3142322   0.4096237   0.2592681  )
        29        Zn     tau(  29) = (  -0.5484845  -0.1351867   0.3973156  )
        30        Zn     tau(  30) = (  -0.6592654   0.3240861   0.3956927  )
        31        Zn     tau(  31) = (   0.0970639   0.2668793   0.0773528  )
        32        Zn     tau(  32) = (  -0.0146808   0.7262293   0.0773528  )
        33        Zn     tau(  33) = (  -0.2587451   0.1799276   0.2589205  )
        34        Zn     tau(  34) = (  -0.3701930   0.6393862   0.2591691  )
        35        Zn     tau(  35) = (  -0.6040956   0.0941595   0.3975589  )
        36        Zn     tau(  36) = (  -0.7154401   0.5545430   0.3957511  )
        37        Zn     tau(  37) = (   0.6529362   0.0372043   0.0773528  )
        38        Zn     tau(  38) = (   0.5411915   0.4965543   0.0773528  )
        39        Zn     tau(  39) = (   0.2688893  -0.0572156   0.2648283  )
        40        Zn     tau(  40) = (   0.1576596   0.4021485   0.2637330  )
        41        Zn     tau(  41) = (   0.0371411  -0.1136867   0.5278774  )
        42        Zn     tau(  42) = (  -0.0746547   0.3459768   0.5255859  )
        43        Zn     tau(  43) = (   0.5970639   0.2668793   0.0773528  )
        44        Zn     tau(  44) = (   0.4853193   0.7262293   0.0773528  )
        45        Zn     tau(  45) = (   0.2129946   0.1721779   0.2652321  )
        46        Zn     tau(  46) = (   0.1013967   0.6320263   0.2650240  )
        47        Zn     tau(  47) = (  -0.0188582   0.1165955   0.5280668  )
        48        Zn     tau(  48) = (  -0.1300009   0.5751067   0.5284847  )
        49        C      tau(  49) = (  -0.9604473   0.4401672   1.3137495  )
        50        C      tau(  50) = (  -0.9486209   0.4295950   1.1859606  )
        51        C      tau(  51) = (  -0.9729829   0.5289913   1.1100826  )
        52        C      tau(  52) = (  -0.9139694   0.3190636   1.1329295  )
        53        C      tau(  53) = (  -0.9635395   0.5180907   0.9855975  )
        54        C      tau(  54) = (  -0.9047708   0.3080614   1.0084453  )
        55        C      tau(  55) = (  -0.9302698   0.4070966   0.9320820  )
        56        N      tau(  56) = (  -0.9705683   0.4487456   1.4185105  )
        57        N      tau(  57) = (  -0.9201549   0.3966786   0.8085510  )
        58        H      tau(  58) = (  -0.9187461   0.3129773   0.7708725  )
        59        H      tau(  59) = (  -0.9594949   0.4600937   0.7548740  )
        60        H      tau(  60) = (  -0.8950061   0.2415435   1.1908024  )
        61        H      tau(  61) = (  -0.9997854   0.6150269   1.1500411  )
        62        H      tau(  62) = (  -0.8776380   0.2218791   0.9687248  )
        63        H      tau(  63) = (  -0.9827294   0.5957544   0.9278358  )

     --------------------------------------------
     DFT-D3 Dispersion Correction (3-body terms):
     --------------------------------------------
       Reference C6 values for interpolation: 

         atom   Coordination number   C6
         H          0.912             6.05
         H          0.000            15.18
         C          0.000            98.23
         C          0.987            86.49
         C          1.998            58.72
         C          2.999            51.56
         C          3.984            36.41
         N          0.000            50.54
         N          0.994            44.25
         N          2.014            39.35
         N          2.990            31.16
         Zn         0.000           681.04
         Zn         1.942           306.91

       Values used:

         atom   Coordination number  R0_AB[au]  C6      C8
         Zn         6.243            3.053    306.91  23930.67
         Zn         6.258            3.053    306.91  23930.67
         Zn         6.993            3.053    306.91  23930.67
         Zn         6.991            3.053    306.91  23930.67
         Zn         4.983            3.053    306.91  23930.67
         Zn         5.107            3.053    306.91  23930.67
         Zn         6.253            3.053    306.91  23930.67
         Zn         6.242            3.053    306.91  23930.67
         Zn         6.990            3.053    306.91  23930.67
         Zn         6.993            3.053    306.91  23930.67
         Zn         4.991            3.053    306.91  23930.67
         Zn         4.990            3.053    306.91  23930.67
         Zn         4.841            3.053    306.91  23930.67
         Zn         4.871            3.053    306.91  23930.67
         Zn         7.219            3.053    306.91  23930.67
         Zn         7.263            3.053    306.91  23930.67
         Zn         5.922            3.053    306.91  23930.67
         Zn         5.930            3.053    306.91  23930.67
         Zn         4.868            3.053    306.91  23930.67
         Zn         4.847            3.053    306.91  23930.67
         Zn         7.250            3.053    306.91  23930.67
         Zn         7.233            3.053    306.91  23930.67
         Zn         5.925            3.053    306.91  23930.67
         Zn         5.924            3.053    306.91  23930.67
         Zn         5.577            3.053    306.91  23930.67
         Zn         5.597            3.053    306.91  23930.67
         Zn         8.063            3.053    306.91  23930.67
         Zn         8.058            3.053    306.91  23930.67
         Zn         7.060            3.053    306.91  23930.67
         Zn         7.076            3.053    306.91  23930.67
         Zn         5.590            3.053    306.91  23930.67
         Zn         5.586            3.053    306.91  23930.67
         Zn         8.061            3.053    306.91  23930.67
         Zn         8.061            3.053    306.91  23930.67
         Zn         7.054            3.053    306.91  23930.67
         Zn         7.079            3.053    306.91  23930.67
         Zn         4.982            3.053    306.91  23930.67
         Zn         4.969            3.053    306.91  23930.67
         Zn         8.311            3.053    306.91  23930.67
         Zn         8.382            3.053    306.91  23930.67
         Zn         6.017            3.053    306.91  23930.67
         Zn         6.067            3.053    306.91  23930.67
         Zn         4.974            3.053    306.91  23930.67
         Zn         4.976            3.053    306.91  23930.67
         Zn         8.316            3.053    306.91  23930.67
         Zn         8.327            3.053    306.91  23930.67
         Zn         6.015            3.053    306.91  23930.67
         Zn         6.002            3.053    306.91  23930.67
         C          2.097            2.750     58.61   1695.13
         C          3.146            2.750     50.56   1462.37
         C          3.169            2.750     50.37   1456.86
         C          3.169            2.750     50.37   1456.84
         C          3.164            2.750     50.41   1457.95
         C          3.164            2.750     50.42   1458.16
         C          3.142            2.750     50.60   1463.41
         N          1.022            2.478     44.24    976.02
         N          3.102            2.478     31.23    689.04
         H          1.011            2.062      6.17     74.60
         H          1.013            2.062      6.17     74.58
         H          1.003            2.062      6.18     74.68
         H          1.003            2.062      6.18     74.68
         H          1.003            2.062      6.18     74.68
         H          1.003            2.062      6.18     74.68

         Molecular C6 ( Ry / a.u.^6 ) =    840998.47


   Crystallographic axes

     site n.     atom                  positions (cryst. coord.)
         1        Zn     tau(   1) = (  0.1666667  0.1666667  0.0539212  )
         2        Zn     tau(   2) = (  0.1666668  0.6666667  0.0539212  )
         3        Zn     tau(   3) = (  0.4930421  0.2466502  0.1954152  )
         4        Zn     tau(   4) = (  0.4940641  0.7472308  0.1955645  )
         5        Zn     tau(   5) = (  0.4138155  0.2254750  0.2623445  )
         6        Zn     tau(   6) = (  0.4045305  0.7226123  0.2599610  )
         7        Zn     tau(   7) = (  0.1666668  0.4166667  0.0539212  )
         8        Zn     tau(   8) = (  0.1666667  0.9166667  0.0539212  )
         9        Zn     tau(   9) = (  0.4940798  0.4967379  0.1956271  )
        10        Zn     tau(  10) = (  0.4929690  0.9969233  0.1953442  )
        11        Zn     tau(  11) = (  0.4131632  0.4753058  0.2621439  )
        12        Zn     tau(  12) = (  0.4124141  0.9748144  0.2620527  )
        13        Zn     tau(  13) = (  0.6666668  0.1666667  0.0539212  )
        14        Zn     tau(  14) = (  0.6666667  0.6666667  0.0539212  )
        15        Zn     tau(  15) = (  0.7365303  0.1825463  0.1570244  )
        16        Zn     tau(  16) = (  0.7336320  0.6822300  0.1563996  )
        17        Zn     tau(  17) = (  0.9343517  0.2323901  0.2547956  )
        18        Zn     tau(  18) = (  0.9346385  0.7324318  0.2548950  )
        19        Zn     tau(  19) = (  0.6666668  0.4166667  0.0539212  )
        20        Zn     tau(  20) = (  0.6666668  0.9166667  0.0539212  )
        21        Zn     tau(  21) = (  0.7348046  0.4319728  0.1566656  )
        22        Zn     tau(  22) = (  0.7347558  0.9321436  0.1566489  )
        23        Zn     tau(  23) = (  0.9343875  0.4823417  0.2548899  )
        24        Zn     tau(  24) = (  0.9349115  0.9822379  0.2548764  )
        25        Zn     tau(  25) = (  0.3333333  0.0833333  0.0385151  )
        26        Zn     tau(  26) = (  0.3333333  0.5833333  0.0385151  )
        27        Zn     tau(  27) = (  0.3584536  0.0893257  0.1288637  )
        28        Zn     tau(  28) = (  0.3597286  0.5894514  0.1290935  )
        29        Zn     tau(  29) = (  0.2987354  0.0728766  0.1978294  )
        30        Zn     tau(  30) = (  0.2960852  0.5718938  0.1970213  )
        31        Zn     tau(  31) = (  0.3333333  0.3333333  0.0385151  )
        32        Zn     tau(  32) = (  0.3333333  0.8333333  0.0385151  )
        33        Zn     tau(  33) = (  0.3585682  0.3392359  0.1289204  )
        34        Zn     tau(  34) = (  0.3594422  0.8394919  0.1290442  )
        35        Zn     tau(  35) = (  0.2994555  0.3226534  0.1979505  )
        36        Zn     tau(  36) = (  0.2961025  0.8227772  0.1970504  )
        37        Zn     tau(  37) = (  0.8333333  0.0833333  0.0385151  )
        38        Zn     tau(  38) = (  0.8333333  0.5833333  0.0385151  )
        39        Zn     tau(  39) = (  0.8416001  0.0843785  0.1318620  )
        40        Zn     tau(  40) = (  0.8396924  0.5837873  0.1313166  )
        41        Zn     tau(  41) = (  1.1788027  0.1685821  0.2628381  )
        42        Zn     tau(  42) = (  1.1737517  0.6676543  0.2616971  )
        43        Zn     tau(  43) = (  0.8333333  0.3333333  0.0385151  )
        44        Zn     tau(  44) = (  0.8333333  0.8333333  0.0385151  )
        45        Zn     tau(  45) = (  0.8424038  0.3342957  0.1320631  )
        46        Zn     tau(  46) = (  0.8422107  0.8347230  0.1319594  )
        47        Zn     tau(  47) = (  1.1792428  0.4193479  0.2629324  )
        48        Zn     tau(  48) = (  1.1805665  0.9186663  0.2631405  )
        49        C      tau(  49) = (  2.0567584  1.2066514  0.6541356  )
        50        C      tau(  50) = (  1.7829439  1.1243764  0.5905076  )
        51        C      tau(  51) = (  1.6146818  1.1905488  0.5527268  )
        52        C      tau(  52) = (  1.6732359  0.9746958  0.5641026  )
        53        C      tau(  53) = (  1.3457228  1.1097459  0.4907438  )
        54        C      tau(  54) = (  1.4040092  0.8937829  0.5021201  )
        55        C      tau(  55) = (  1.2334473  0.9592934  0.4640976  )
        56        N      tau(  56) = (  2.2807838  1.2740039  0.7062977  )
        57        N      tau(  57) = (  0.9673905  0.8795442  0.4025897  )
        58        H      tau(  58) = (  0.8649747  0.7675700  0.3838290  )
        59        H      tau(  59) = (  0.8245756  0.9188458  0.3758631  )
        60        H      tau(  60) = (  1.8015373  0.9223647  0.5929184  )
        61        H      tau(  61) = (  1.6973223  1.3063264  0.5726227  )
        62        H      tau(  62) = (  1.3221905  0.7779773  0.4823426  )
        63        H      tau(  63) = (  1.2174761  1.1622950  0.4619834  )

     number of k points=     5  Marzari-Vanderbilt smearing, width (Ry)=  0.0200
                       cart. coord. in units 2pi/alat
        k(    1) = (   0.0000000   0.0000000   0.0000000), wk =   0.2222222
        k(    2) = (   0.0000000   0.3628315   0.1845943), wk =   0.4444444
        k(    3) = (   0.3333333   0.0810890   0.7383771), wk =   0.4444444
        k(    4) = (   0.3333333   0.4439205   0.9229714), wk =   0.4444444
        k(    5) = (   0.3333333  -0.2817426   0.5537829), wk =   0.4444444

                       cryst. coord.
        k(    1) = (   0.0000000   0.0000000   0.0000000), wk =   0.2222222
        k(    2) = (   0.0000000   0.3333333   0.0000000), wk =   0.4444444
        k(    3) = (   0.3333333   0.0000000   0.0000000), wk =   0.4444444
        k(    4) = (   0.3333333   0.3333333   0.0000000), wk =   0.4444444
        k(    5) = (   0.3333333  -0.3333333   0.0000000), wk =   0.4444444

     Dense  grid:  1332973 G-vectors     FFT dimensions: ( 120, 108, 540)

     Smooth grid:   575857 G-vectors     FFT dimensions: (  90,  80, 405)

     Dynamical RAM for                 wfc:      26.44 MB

     Dynamical RAM for     wfc (w. buffer):     158.62 MB

     Dynamical RAM for           str. fact:       3.25 MB

     Dynamical RAM for           local pot:       0.00 MB

     Dynamical RAM for          nlocal pot:      41.63 MB

     Dynamical RAM for                qrad:       5.37 MB

     Dynamical RAM for          rho,v,vnew:       8.97 MB

     Dynamical RAM for               rhoin:       2.99 MB

     Dynamical RAM for            rho*nmix:      13.02 MB

     Dynamical RAM for           G-vectors:       3.23 MB

     Dynamical RAM for          h,s,v(r/c):       2.64 MB

     Dynamical RAM for          <psi|beta>:       8.71 MB

     Dynamical RAM for                 psi:      52.87 MB

     Dynamical RAM for                hpsi:      52.87 MB

     Dynamical RAM for                spsi:      52.87 MB

     Dynamical RAM for      wfcinit/wfcrot:      68.65 MB

     Dynamical RAM for           addusdens:     190.39 MB

     Dynamical RAM for          addusforce:     267.47 MB

     Dynamical RAM for         addusstress:     163.54 MB

     Estimated static dynamical RAM per process >     239.01 MB

     Estimated max dynamical RAM per process >     519.49 MB

     Estimated total dynamical RAM >      12.68 GB

     Initial potential from superposition of free atoms

     starting charge    1003.9929, renormalised to    1004.0000

     negative rho (up, down):  1.890E-03 0.000E+00
     Starting wfcs are  666 randomized atomic wfcs
     Checking if some PAW data can be deallocated... 
       PAW data deallocated on   21 nodes for type:  3

     total cpu time spent up to now is       42.0 secs

     Self-consistent Calculation

     iteration #  1     ecut=    40.00 Ry     beta= 0.40
     Davidson diagonalization with overlap

---- Real-time Memory Report at c_bands before calling an iterative solver
           468 MiB given to the printing process from OS
             0 MiB allocation reported by mallinfo(arena+hblkhd)
        205443 MiB available memory on the node where the printing process lives
------------------
     ethr =  1.00E-02,  avg # of iterations =  7.6

     negative rho (up, down):  2.374E-03 0.000E+00

     total cpu time spent up to now is      198.7 secs

     total energy              =  -22326.29786023 Ry
     estimated scf accuracy    <      10.44256745 Ry

     iteration #  2     ecut=    40.00 Ry     beta= 0.40
     Davidson diagonalization with overlap

---- Real-time Memory Report at c_bands before calling an iterative solver
           648 MiB given to the printing process from OS
             0 MiB allocation reported by mallinfo(arena+hblkhd)
        204424 MiB available memory on the node where the printing process lives
------------------
     ethr =  1.04E-03,  avg # of iterations =  9.4

     negative rho (up, down):  3.670E-03 0.000E+00

     total cpu time spent up to now is      356.0 secs

     total energy              =  -22311.58978258 Ry
     estimated scf accuracy    <     273.68383344 Ry

     iteration #  3     ecut=    40.00 Ry     beta= 0.40
     Davidson diagonalization with overlap

---- Real-time Memory Report at c_bands before calling an iterative solver
           657 MiB given to the printing process from OS
             0 MiB allocation reported by mallinfo(arena+hblkhd)
        204282 MiB available memory on the node where the printing process lives
------------------
     ethr =  1.04E-03,  avg # of iterations =  8.0

     negative rho (up, down):  3.420E-03 0.000E+00

     total cpu time spent up to now is      544.2 secs

     total energy              =  -22330.47610734 Ry
     estimated scf accuracy    <       5.10461091 Ry

     iteration #  4     ecut=    40.00 Ry     beta= 0.40
     Davidson diagonalization with overlap

---- Real-time Memory Report at c_bands before calling an iterative solver
           658 MiB given to the printing process from OS
             0 MiB allocation reported by mallinfo(arena+hblkhd)
        204268 MiB available memory on the node where the printing process lives
------------------
     ethr =  5.08E-04,  avg # of iterations =  4.0

     negative rho (up, down):  3.381E-03 0.000E+00

     total cpu time spent up to now is      673.9 secs

     total energy              =  -22330.65545505 Ry
     estimated scf accuracy    <       6.43696336 Ry

     iteration #  5     ecut=    40.00 Ry     beta= 0.40
     Davidson diagonalization with overlap

---- Real-time Memory Report at c_bands before calling an iterative solver
           659 MiB given to the printing process from OS
             0 MiB allocation reported by mallinfo(arena+hblkhd)
        204262 MiB available memory on the node where the printing process lives
------------------
     ethr =  5.08E-04,  avg # of iterations =  2.2

     negative rho (up, down):  3.362E-03 0.000E+00

     total cpu time spent up to now is      798.7 secs

     total energy              =  -22331.05308667 Ry
     estimated scf accuracy    <       0.38372362 Ry

     iteration #  6     ecut=    40.00 Ry     beta= 0.40
     Davidson diagonalization with overlap

---- Real-time Memory Report at c_bands before calling an iterative solver
           660 MiB given to the printing process from OS
             0 MiB allocation reported by mallinfo(arena+hblkhd)
        204239 MiB available memory on the node where the printing process lives
------------------
     ethr =  3.82E-05,  avg # of iterations =  7.4

     negative rho (up, down):  3.442E-03 0.000E+00

     total cpu time spent up to now is      935.9 secs

     total energy              =  -22331.05649914 Ry
     estimated scf accuracy    <       0.16674990 Ry

     iteration #  7     ecut=    40.00 Ry     beta= 0.40
     Davidson diagonalization with overlap

---- Real-time Memory Report at c_bands before calling an iterative solver
           661 MiB given to the printing process from OS
             0 MiB allocation reported by mallinfo(arena+hblkhd)
        204209 MiB available memory on the node where the printing process lives
------------------
     ethr =  1.66E-05,  avg # of iterations = 10.8

     negative rho (up, down):  3.515E-03 0.000E+00

     total cpu time spent up to now is     1075.6 secs

     total energy              =  -22331.05578653 Ry
     estimated scf accuracy    <       0.07499615 Ry

     iteration #  8     ecut=    40.00 Ry     beta= 0.40
     Davidson diagonalization with overlap

---- Real-time Memory Report at c_bands before calling an iterative solver
           662 MiB given to the printing process from OS
             0 MiB allocation reported by mallinfo(arena+hblkhd)
        204185 MiB available memory on the node where the printing process lives
------------------
     ethr =  7.47E-06,  avg # of iterations =  6.8

     negative rho (up, down):  3.570E-03 0.000E+00

     total cpu time spent up to now is     1209.3 secs

     total energy              =  -22331.05555223 Ry
     estimated scf accuracy    <       0.06171090 Ry

     iteration #  9     ecut=    40.00 Ry     beta= 0.40
     Davidson diagonalization with overlap

---- Real-time Memory Report at c_bands before calling an iterative solver
           663 MiB given to the printing process from OS
             0 MiB allocation reported by mallinfo(arena+hblkhd)
        204161 MiB available memory on the node where the printing process lives
------------------
     c_bands:  1 eigenvalues not converged
     ethr =  6.15E-06,  avg # of iterations =  6.4

     negative rho (up, down):  3.604E-03 0.000E+00

     total cpu time spent up to now is     1338.1 secs

     total energy              =  -22331.05554395 Ry
     estimated scf accuracy    <       0.03150093 Ry

     iteration # 10     ecut=    40.00 Ry     beta= 0.40
     Davidson diagonalization with overlap

---- Real-time Memory Report at c_bands before calling an iterative solver
           664 MiB given to the printing process from OS
             0 MiB allocation reported by mallinfo(arena+hblkhd)
        204134 MiB available memory on the node where the printing process lives
------------------
     c_bands:  1 eigenvalues not converged
     ethr =  3.14E-06,  avg # of iterations = 16.6

     negative rho (up, down):  3.638E-03 0.000E+00

     total cpu time spent up to now is     1482.8 secs

     total energy              =  -22331.05227281 Ry
     estimated scf accuracy    <       0.02621820 Ry

     iteration # 11     ecut=    40.00 Ry     beta= 0.40
     Davidson diagonalization with overlap

---- Real-time Memory Report at c_bands before calling an iterative solver
           665 MiB given to the printing process from OS
             0 MiB allocation reported by mallinfo(arena+hblkhd)
        204122 MiB available memory on the node where the printing process lives
------------------
     c_bands:  1 eigenvalues not converged
     ethr =  2.61E-06,  avg # of iterations = 12.8

     negative rho (up, down):  3.785E-03 0.000E+00

     total cpu time spent up to now is     1620.2 secs

     total energy              =  -22331.03835613 Ry
     estimated scf accuracy    <       0.02031621 Ry

     iteration # 12     ecut=    40.00 Ry     beta= 0.40
     Davidson diagonalization with overlap

---- Real-time Memory Report at c_bands before calling an iterative solver
           665 MiB given to the printing process from OS
             0 MiB allocation reported by mallinfo(arena+hblkhd)
        204122 MiB available memory on the node where the printing process lives
------------------
     ethr =  2.02E-06,  avg # of iterations = 17.4

     negative rho (up, down):  3.748E-03 0.000E+00

     total cpu time spent up to now is     1798.9 secs

     total energy              =  -22331.04086317 Ry
     estimated scf accuracy    <       0.00297904 Ry

     iteration # 13     ecut=    40.00 Ry     beta= 0.40
     Davidson diagonalization with overlap

---- Real-time Memory Report at c_bands before calling an iterative solver
           665 MiB given to the printing process from OS
             0 MiB allocation reported by mallinfo(arena+hblkhd)
        204119 MiB available memory on the node where the printing process lives
------------------
     ethr =  2.97E-07,  avg # of iterations =  4.6

     negative rho (up, down):  3.719E-03 0.000E+00

     total cpu time spent up to now is     1928.8 secs

     total energy              =  -22331.04115658 Ry
     estimated scf accuracy    <       0.00056648 Ry

     iteration # 14     ecut=    40.00 Ry     beta= 0.40
     Davidson diagonalization with overlap

---- Real-time Memory Report at c_bands before calling an iterative solver
           665 MiB given to the printing process from OS
             0 MiB allocation reported by mallinfo(arena+hblkhd)
        204117 MiB available memory on the node where the printing process lives
------------------
     ethr =  5.64E-08,  avg # of iterations =  2.2

     negative rho (up, down):  3.719E-03 0.000E+00

     total cpu time spent up to now is     2054.1 secs

     total energy              =  -22331.04108865 Ry
     estimated scf accuracy    <       0.00217959 Ry

     iteration # 15     ecut=    40.00 Ry     beta= 0.40
     Davidson diagonalization with overlap

---- Real-time Memory Report at c_bands before calling an iterative solver
           665 MiB given to the printing process from OS
             0 MiB allocation reported by mallinfo(arena+hblkhd)
        204116 MiB available memory on the node where the printing process lives
------------------
     ethr =  5.64E-08,  avg # of iterations =  2.2

     negative rho (up, down):  3.705E-03 0.000E+00

     total cpu time spent up to now is     2177.7 secs

     total energy              =  -22331.04125569 Ry
     estimated scf accuracy    <       0.00020368 Ry

     iteration # 16     ecut=    40.00 Ry     beta= 0.40
     Davidson diagonalization with overlap

---- Real-time Memory Report at c_bands before calling an iterative solver
           665 MiB given to the printing process from OS
             0 MiB allocation reported by mallinfo(arena+hblkhd)
        204114 MiB available memory on the node where the printing process lives
------------------
     ethr =  2.03E-08,  avg # of iterations =  2.0

     negative rho (up, down):  3.700E-03 0.000E+00

     total cpu time spent up to now is     2298.8 secs

     total energy              =  -22331.04126800 Ry
     estimated scf accuracy    <       0.00005252 Ry

     iteration # 17     ecut=    40.00 Ry     beta= 0.40
     Davidson diagonalization with overlap

---- Real-time Memory Report at c_bands before calling an iterative solver
           665 MiB given to the printing process from OS
             0 MiB allocation reported by mallinfo(arena+hblkhd)
        204113 MiB available memory on the node where the printing process lives
------------------
     ethr =  5.23E-09,  avg # of iterations =  2.2

     negative rho (up, down):  3.698E-03 0.000E+00

     total cpu time spent up to now is     2420.2 secs

     total energy              =  -22331.04127372 Ry
     estimated scf accuracy    <       0.00001064 Ry

     iteration # 18     ecut=    40.00 Ry     beta= 0.40
     Davidson diagonalization with overlap

---- Real-time Memory Report at c_bands before calling an iterative solver
           665 MiB given to the printing process from OS
             0 MiB allocation reported by mallinfo(arena+hblkhd)
        204111 MiB available memory on the node where the printing process lives
------------------
     ethr =  1.06E-09,  avg # of iterations =  2.2

     negative rho (up, down):  3.697E-03 0.000E+00

     total cpu time spent up to now is     2543.7 secs

     total energy              =  -22331.04127451 Ry
     estimated scf accuracy    <       0.00000484 Ry

     iteration # 19     ecut=    40.00 Ry     beta= 0.40
     Davidson diagonalization with overlap

---- Real-time Memory Report at c_bands before calling an iterative solver
           665 MiB given to the printing process from OS
             0 MiB allocation reported by mallinfo(arena+hblkhd)
        204102 MiB available memory on the node where the printing process lives
------------------
     ethr =  4.82E-10,  avg # of iterations =  2.0

     negative rho (up, down):  3.697E-03 0.000E+00

     total cpu time spent up to now is     2666.3 secs

     total energy              =  -22331.04127496 Ry
     estimated scf accuracy    <       0.00000212 Ry

     iteration # 20     ecut=    40.00 Ry     beta= 0.40
     Davidson diagonalization with overlap

---- Real-time Memory Report at c_bands before calling an iterative solver
           665 MiB given to the printing process from OS
             0 MiB allocation reported by mallinfo(arena+hblkhd)
        204101 MiB available memory on the node where the printing process lives
------------------
     ethr =  2.11E-10,  avg # of iterations =  2.0

     negative rho (up, down):  3.696E-03 0.000E+00

     total cpu time spent up to now is     2791.3 secs

     total energy              =  -22331.04127518 Ry
     estimated scf accuracy    <       0.00000128 Ry

     iteration # 21     ecut=    40.00 Ry     beta= 0.40
     Davidson diagonalization with overlap

---- Real-time Memory Report at c_bands before calling an iterative solver
           665 MiB given to the printing process from OS
             0 MiB allocation reported by mallinfo(arena+hblkhd)
        204098 MiB available memory on the node where the printing process lives
------------------
     ethr =  1.27E-10,  avg # of iterations =  2.0

     negative rho (up, down):  3.696E-03 0.000E+00

     total cpu time spent up to now is     2912.0 secs

     End of self-consistent calculation

          k = 0.0000 0.0000 0.0000 ( 71933 PWs)   bands (ev):

  -125.3489-125.3430-125.3429-125.3418-125.3413-125.3410-125.3396-125.3392
  -125.2405-125.2394-125.2351-125.2332-125.2326-125.2315-125.2312-125.2305
  -125.1629-125.1543-125.1535-125.1501-125.1492-125.1473-125.1465-125.1460
  -125.1452-125.1451-125.1450-125.1424-125.0920-125.0912-125.0911-125.0902
  -125.0598-125.0589-125.0574-125.0564-125.0419-125.0410-125.0400-125.0391
  -125.0244-125.0236-125.0211-125.0202-124.9970-124.9795-124.9768-124.9692
   -79.5075 -79.5035 -79.5033 -79.5019 -79.5017 -79.5011 -79.4998 -79.4991
   -79.4983 -79.4971 -79.4923 -79.4909 -79.4894 -79.4888 -79.4881 -79.4877
   -79.4866 -79.4861 -79.4858 -79.4855 -79.4846 -79.4826 -79.4766 -79.4730
   -79.4023 -79.3983 -79.3978 -79.3950 -79.3939 -79.3894 -79.3888 -79.3865
   -79.3854 -79.3816 -79.3807 -79.3806 -79.3796 -79.3792 -79.3791 -79.3787
   -79.3776 -79.3774 -79.3750 -79.3748 -79.3730 -79.3722 -79.3712 -79.3668
   -79.3210 -79.3177 -79.3131 -79.3122 -79.3105 -79.3094 -79.3077 -79.3074
   -79.3063 -79.3060 -79.3055 -79.3047 -79.3045 -79.3027 -79.3020 -79.3015
   -79.3001 -79.2994 -79.2992 -79.2990 -79.2988 -79.2988 -79.2980 -79.2980
   -79.2973 -79.2970 -79.2966 -79.2947 -79.2927 -79.2926 -79.2924 -79.2918
   -79.2896 -79.2877 -79.2851 -79.2800 -79.2616 -79.2608 -79.2606 -79.2599
   -79.2400 -79.2395 -79.2393 -79.2390 -79.2387 -79.2323 -79.2313 -79.2297
   -79.2287 -79.2270 -79.2269 -79.2154 -79.2149 -79.2108 -79.2097 -79.2091
   -79.2080 -79.2066 -79.2060 -79.2047 -79.2042 -79.2031 -79.2028 -79.2020
   -79.1917 -79.1915 -79.1911 -79.1908 -79.1905 -79.1882 -79.1876 -79.1873
   -79.1868 -79.1858 -79.1849 -79.1790 -79.1780 -79.1742 -79.1733 -79.1710
   -79.1701 -79.1657 -79.1653 -79.1636 -79.1530 -79.1488 -79.1480 -79.1460
   -79.1432 -79.1378 -79.1275 -79.1247 -79.1232 -79.1203 -79.1180 -79.1061
   -17.9990 -16.6565 -15.8013 -13.4135 -13.3293 -10.4101 -10.1312  -8.3295
    -8.2520  -7.6645  -7.6341  -7.5555  -7.2818  -7.1150  -7.1118  -7.1106
    -7.0733  -7.0266  -7.0214  -6.9993  -6.9490  -6.9462  -6.9096  -6.8919
    -6.8782  -6.8453  -6.8256  -6.8059  -6.7952  -6.7829  -6.7821  -6.7657
    -6.7568  -6.7321  -6.7018  -6.7004  -6.6923  -6.6728  -6.6708  -6.6690
    -6.6682  -6.6359  -6.6254  -6.6196  -6.6194  -6.6093  -6.6081  -6.6042
    -6.5919  -6.5904  -6.5868  -6.5846  -6.5824  -6.5679  -6.5662  -6.5542
    -6.5523  -6.5520  -6.5484  -6.5478  -6.5344  -6.5158  -6.5136  -6.5004
    -6.4973  -6.4937  -6.4824  -6.4808  -6.4636  -6.4413  -6.4394  -6.4352
    -6.4289  -6.4231  -6.4016  -6.4006  -6.3980  -6.3817  -6.3770  -6.3764
    -6.3761  -6.3476  -6.3455  -6.3428  -6.3359  -6.3248  -6.3214  -6.3051
    -6.3030  -6.2893  -6.2825  -6.2823  -6.2805  -6.2702  -6.2677  -6.2615
    -6.2555  -6.2487  -6.2482  -6.2460  -6.2327  -6.2308  -6.2253  -6.2173
    -6.2161  -6.2032  -6.1913  -6.1798  -6.1789  -6.1758  -6.1488  -6.1479
    -6.1410  -6.1262  -6.1258  -6.1249  -6.1180  -6.1129  -6.1033  -6.1007
    -6.0926  -6.0911  -6.0895  -6.0789  -6.0781  -6.0775  -6.0749  -6.0735
    -6.0709  -6.0529  -6.0500  -6.0482  -6.0403  -6.0343  -6.0267  -6.0230
    -6.0207  -6.0193  -6.0176  -6.0171  -6.0018  -5.9985  -5.9981  -5.9944
    -5.9933  -5.9880  -5.9831  -5.9824  -5.9719  -5.9711  -5.9634  -5.9608
    -5.9607  -5.9392  -5.9385  -5.9377  -5.9226  -5.9218  -5.9134  -5.9050
    -5.9040  -5.8975  -5.8955  -5.8920  -5.8882  -5.8833  -5.8829  -5.8815
    -5.8772  -5.8754  -5.8649  -5.8635  -5.8573  -5.8565  -5.8504  -5.8483
    -5.8479  -5.8392  -5.8296  -5.8267  -5.8256  -5.8238  -5.8170  -5.8150
    -5.8066  -5.8062  -5.7988  -5.7969  -5.7958  -5.7914  -5.7832  -5.7798
    -5.7721  -5.7651  -5.7631  -5.7546  -5.7507  -5.7497  -5.7484  -5.7480
    -5.7393  -5.7334  -5.7318  -5.7264  -5.7203  -5.7165  -5.7154  -5.7144
    -5.7051  -5.7037  -5.7027  -5.6960  -5.6885  -5.6875  -5.6864  -5.6837
    -5.6831  -5.6730  -5.6723  -5.6712  -5.6550  -5.6529  -5.6511  -5.6505
    -5.6454  -5.6433  -5.6381  -5.6373  -5.6348  -5.6283  -5.6279  -5.6185
    -5.6163  -5.6159  -5.6138  -5.6094  -5.6064  -5.6031  -5.5870  -5.5825
    -5.5711  -5.5650  -5.5552  -5.5518  -5.5515  -5.5363  -5.5344  -5.5316
    -5.5271  -5.5145  -5.5135  -5.4974  -5.4856  -5.4568  -5.4543  -5.4056
    -5.3960  -5.3130  -5.2773  -5.2760  -5.1073  -4.7343  -4.5867  -4.5167
    -4.5142  -4.3459  -4.3037  -4.0582  -4.0557  -3.7543  -3.7500  -3.4282
    -3.2446  -2.9203  -2.5996  -2.5858  -2.5810  -2.4659  -2.2281  -2.2226
    -2.0241  -2.0175  -1.9904  -1.8442  -1.7977  -1.7691  -1.6301  -1.6166
    -1.5344  -1.4948  -1.4548  -1.2426  -1.0519  -1.0434  -0.5035  -0.2891
    -0.2077  -0.1667  -0.0936  -0.0871  -0.0228   0.0419   0.0910   0.0948
     0.4160   0.5150   0.5214   0.5896   0.8652   0.8708   1.4134   1.6728
     1.7007   1.7337   1.8292   1.9341   2.0012   2.0638   2.1326   2.2241
     2.2377   2.3348   2.5888   2.6812   2.6852   3.1314   3.1444   3.1494
     3.2060   3.3324   3.6492   3.7705   3.8513   3.8555   3.8884   3.9564
     3.9669   4.0472   4.1375   4.1495   4.4849   4.6760   4.7075   4.8557
     4.8794   5.1382   5.1975   5.2261   5.2628   5.3407   5.3643   5.3910
     5.4371   5.5354   5.6628   5.6895   5.7445   5.8098   5.8197   5.8522
     5.8925   5.9242   5.9506   6.0671   6.0851   6.1088   6.1214   6.1296
     6.1714   6.1769   6.2355   6.3411   6.4345   6.4766   6.5013   6.5525
     6.6040   6.6181   6.6591   6.7348   6.7811   6.8560   6.8994   6.9130
     7.0580   7.0674   7.0714   7.0813   7.1128   7.1684   7.2106   7.2191
     7.2842   7.3302   7.3507   7.4194   7.4298   7.4711   7.5919   7.6030
     7.6531   7.6809   7.7385   7.7536   7.8122   7.8793   7.9222   7.9450
     7.9695   8.0134

     occupation numbers 
     1.0000   1.0000   1.0000   1.0000   1.0000   1.0000   1.0000   1.0000
     1.0000   1.0000   1.0000   1.0000   1.0000   1.0000   1.0000   1.0000
     1.0000   1.0000   1.0000   1.0000   1.0000   1.0000   1.0000   1.0000
     1.0000   1.0000   1.0000   1.0000   1.0000   1.0000   1.0000   1.0000
     1.0000   1.0000   1.0000   1.0000   1.0000   1.0000   1.0000   1.0000
     1.0000   1.0000   1.0000   1.0000   1.0000   1.0000   1.0000   1.0000
     1.0000   1.0000   1.0000   1.0000   1.0000   1.0000   1.0000   1.0000
     1.0000   1.0000   1.0000   1.0000   1.0000   1.0000   1.0000   1.0000
     1.0000   1.0000   1.0000   1.0000   1.0000   1.0000   1.0000   1.0000
     1.0000   1.0000   1.0000   1.0000   1.0000   1.0000   1.0000   1.0000
     1.0000   1.0000   1.0000   1.0000   1.0000   1.0000   1.0000   1.0000
     1.0000   1.0000   1.0000   1.0000   1.0000   1.0000   1.0000   1.0000
     1.0000   1.0000   1.0000   1.0000   1.0000   1.0000   1.0000   1.0000
     1.0000   1.0000   1.0000   1.0000   1.0000   1.0000   1.0000   1.0000
     1.0000   1.0000   1.0000   1.0000   1.0000   1.0000   1.0000   1.0000
     1.0000   1.0000   1.0000   1.0000   1.0000   1.0000   1.0000   1.0000
     1.0000   1.0000   1.0000   1.0000   1.0000   1.0000   1.0000   1.0000
     1.0000   1.0000   1.0000   1.0000   1.0000   1.0000   1.0000   1.0000
     1.0000   1.0000   1.0000   1.0000   1.0000   1.0000   1.0000   1.0000
     1.0000   1.0000   1.0000   1.0000   1.0000   1.0000   1.0000   1.0000
     1.0000   1.0000   1.0000   1.0000   1.0000   1.0000   1.0000   1.0000
     1.0000   1.0000   1.0000   1.0000   1.0000   1.0000   1.0000   1.0000
     1.0000   1.0000   1.0000   1.0000   1.0000   1.0000   1.0000   1.0000
     1.0000   1.0000   1.0000   1.0000   1.0000   1.0000   1.0000   1.0000
     1.0000   1.0000   1.0000   1.0000   1.0000   1.0000   1.0000   1.0000
     1.0000   1.0000   1.0000   1.0000   1.0000   1.0000   1.0000   1.0000
     1.0000   1.0000   1.0000   1.0000   1.0000   1.0000   1.0000   1.0000
     1.0000   1.0000   1.0000   1.0000   1.0000   1.0000   1.0000   1.0000
     1.0000   1.0000   1.0000   1.0000   1.0000   1.0000   1.0000   1.0000
     1.0000   1.0000   1.0000   1.0000   1.0000   1.0000   1.0000   1.0000
     1.0000   1.0000   1.0000   1.0000   1.0000   1.0000   1.0000   1.0000
     1.0000   1.0000   1.0000   1.0000   1.0000   1.0000   1.0000   1.0000
     1.0000   1.0000   1.0000   1.0000   1.0000   1.0000   1.0000   1.0000
     1.0000   1.0000   1.0000   1.0000   1.0000   1.0000   1.0000   1.0000
     1.0000   1.0000   1.0000   1.0000   1.0000   1.0000   1.0000   1.0000
     1.0000   1.0000   1.0000   1.0000   1.0000   1.0000   1.0000   1.0000
     1.0000   1.0000   1.0000   1.0000   1.0000   1.0000   1.0000   1.0000
     1.0000   1.0000   1.0000   1.0000   1.0000   1.0000   1.0000   1.0000
     1.0000   1.0000   1.0000   1.0000   1.0000   1.0000   1.0000   1.0000
     1.0000   1.0000   1.0000   1.0000   1.0000   1.0000   1.0000   1.0000
     1.0000   1.0000   1.0000   1.0000   1.0000   1.0000   1.0000   1.0000
     1.0000   1.0000   1.0000   1.0000   1.0000   1.0000   1.0000   1.0000
     1.0000   1.0000   1.0000   1.0000   1.0000   1.0000   1.0000   1.0000
     1.0000   1.0000   1.0000   1.0000   1.0000   1.0000   1.0000   1.0000
     1.0000   1.0000   1.0000   1.0000   1.0000   1.0000   1.0000   1.0000
     1.0000   1.0000   1.0000   1.0000   1.0000   1.0000   1.0000   1.0000
     1.0000   1.0000   1.0000   1.0000   1.0000   1.0000   1.0000   1.0000
     1.0000   1.0000   1.0000   1.0000   1.0000   1.0000   1.0000   1.0000
     1.0000   1.0000   1.0000   1.0000   1.0000   1.0000   1.0000   1.0000
     1.0000   1.0000   1.0000   1.0000   1.0000   1.0000   1.0000   1.0000
     1.0000   1.0000   1.0000   1.0000   1.0000   1.0000   1.0000   1.0000
     1.0000   1.0000   1.0000   1.0000   1.0000   1.0000   1.0000   1.0000
     1.0000   1.0000   1.0000   1.0000   1.0000   1.0000   1.0000   1.0000
     1.0000   1.0000   1.0000   1.0000   1.0000   1.0000   1.0000   1.0000
     1.0000   1.0000   1.0000   1.0000   1.0000   1.0000   1.0000   1.0000
     1.0000   1.0000   1.0000   1.0000   1.0000   1.0000   1.0000   1.0000
     1.0000   1.0000   1.0000   1.0000   1.0000   1.0000   1.0000   1.0000
     1.0000   1.0000   1.0000   1.0000   1.0000   1.0000   1.0000   1.0000
     1.0000   1.0000   1.0000   1.0000   1.0000   1.0000   1.0000   1.0000
     1.0000   1.0000   1.0000   1.0000   1.0000   1.0000   1.0000   1.0000
     1.0000   1.0000   1.0000   1.0000   1.0000   1.0000   1.0000   1.0000
     1.0000   1.0000   1.0000   1.0000   1.0000   1.0000   1.0000   1.0000
     1.0035   1.0131   1.0141   1.0287   1.0611   1.0572   0.0458   0.0008
     0.0005   0.0002   0.0000   0.0000   0.0000   0.0000   0.0000   0.0000
     0.0000   0.0000   0.0000   0.0000   0.0000   0.0000   0.0000   0.0000
     0.0000   0.0000   0.0000   0.0000   0.0000   0.0000   0.0000   0.0000
     0.0000   0.0000   0.0000   0.0000   0.0000   0.0000   0.0000   0.0000
     0.0000   0.0000   0.0000   0.0000   0.0000   0.0000   0.0000   0.0000
     0.0000   0.0000   0.0000   0.0000   0.0000   0.0000   0.0000   0.0000
     0.0000   0.0000   0.0000   0.0000   0.0000   0.0000   0.0000   0.0000
     0.0000   0.0000   0.0000   0.0000   0.0000   0.0000   0.0000   0.0000
     0.0000   0.0000   0.0000   0.0000   0.0000   0.0000   0.0000   0.0000
     0.0000   0.0000   0.0000   0.0000   0.0000   0.0000   0.0000   0.0000
     0.0000   0.0000   0.0000   0.0000   0.0000   0.0000   0.0000   0.0000
     0.0000   0.0000   0.0000   0.0000   0.0000   0.0000   0.0000   0.0000
     0.0000   0.0000

          k = 0.0000 0.3628 0.1846 ( 71963 PWs)   bands (ev):

  -125.3489-125.3430-125.3429-125.3418-125.3412-125.3410-125.3396-125.3392
  -125.2405-125.2394-125.2351-125.2332-125.2326-125.2316-125.2311-125.2305
  -125.1629-125.1543-125.1535-125.1501-125.1492-125.1472-125.1466-125.1458
  -125.1452-125.1452-125.1450-125.1424-125.0920-125.0915-125.0907-125.0903
  -125.0598-125.0590-125.0574-125.0564-125.0419-125.0410-125.0399-125.0391
  -125.0244-125.0236-125.0211-125.0202-124.9970-124.9795-124.9768-124.9692
   -79.5075 -79.5034 -79.5022 -79.5021 -79.5014 -79.5011 -79.4998 -79.4991
   -79.4972 -79.4967 -79.4955 -79.4923 -79.4918 -79.4893 -79.4883 -79.4875
   -79.4866 -79.4861 -79.4846 -79.4841 -79.4826 -79.4795 -79.4779 -79.4746
   -79.4010 -79.3980 -79.3975 -79.3959 -79.3946 -79.3932 -79.3865 -79.3856
   -79.3836 -79.3823 -79.3819 -79.3810 -79.3799 -79.3795 -79.3789 -79.3785
   -79.3778 -79.3770 -79.3747 -79.3735 -79.3730 -79.3720 -79.3708 -79.3683
   -79.3206 -79.3177 -79.3130 -79.3111 -79.3107 -79.3090 -79.3082 -79.3077
   -79.3066 -79.3061 -79.3057 -79.3048 -79.3040 -79.3033 -79.3027 -79.3021
   -79.3017 -79.3000 -79.2994 -79.2991 -79.2987 -79.2984 -79.2980 -79.2976
   -79.2974 -79.2969 -79.2956 -79.2948 -79.2933 -79.2927 -79.2918 -79.2895
   -79.2886 -79.2863 -79.2861 -79.2817 -79.2615 -79.2611 -79.2604 -79.2599
   -79.2399 -79.2396 -79.2392 -79.2389 -79.2373 -79.2329 -79.2322 -79.2314
   -79.2297 -79.2287 -79.2209 -79.2165 -79.2138 -79.2108 -79.2099 -79.2093
   -79.2086 -79.2080 -79.2066 -79.2059 -79.2045 -79.2038 -79.2012 -79.1972
   -79.1969 -79.1921 -79.1917 -79.1908 -79.1882 -79.1876 -79.1873 -79.1868
   -79.1857 -79.1852 -79.1849 -79.1806 -79.1765 -79.1742 -79.1733 -79.1714
   -79.1710 -79.1701 -79.1636 -79.1595 -79.1545 -79.1488 -79.1480 -79.1460
   -79.1430 -79.1378 -79.1275 -79.1256 -79.1247 -79.1180 -79.1177 -79.1066
   -17.9990 -16.6565 -15.8013 -13.4135 -13.3293 -10.4100 -10.1312  -8.2522
    -8.1657  -7.7107  -7.6528  -7.6326  -7.4576  -7.1899  -7.1557  -7.0177
    -7.0097  -6.9980  -6.9846  -6.9741  -6.9211  -6.8939  -6.8930  -6.8830
    -6.8495  -6.8338  -6.8179  -6.8097  -6.7949  -6.7809  -6.7779  -6.7739
    -6.7704  -6.7648  -6.7377  -6.7365  -6.7205  -6.7122  -6.6947  -6.6894
    -6.6782  -6.6677  -6.6597  -6.6559  -6.6480  -6.6310  -6.6280  -6.6163
    -6.6126  -6.6107  -6.5998  -6.5827  -6.5784  -6.5634  -6.5594  -6.5480
    -6.5414  -6.5364  -6.5345  -6.5254  -6.5213  -6.5198  -6.5128  -6.5012
    -6.5002  -6.4828  -6.4711  -6.4607  -6.4518  -6.4499  -6.4471  -6.4319
    -6.4311  -6.4244  -6.4070  -6.4065  -6.3891  -6.3862  -6.3812  -6.3712
    -6.3662  -6.3626  -6.3589  -6.3579  -6.3429  -6.3383  -6.3241  -6.3179
    -6.3134  -6.3058  -6.3040  -6.2951  -6.2885  -6.2834  -6.2801  -6.2697
    -6.2683  -6.2638  -6.2505  -6.2466  -6.2447  -6.2231  -6.2223  -6.2205
    -6.2168  -6.2109  -6.2059  -6.2046  -6.1926  -6.1861  -6.1792  -6.1776
    -6.1634  -6.1620  -6.1603  -6.1497  -6.1453  -6.1409  -6.1269  -6.1246
    -6.1195  -6.1137  -6.1108  -6.1005  -6.1000  -6.0945  -6.0881  -6.0855
    -6.0708  -6.0693  -6.0657  -6.0597  -6.0478  -6.0426  -6.0357  -6.0289
    -6.0260  -6.0256  -6.0212  -6.0195  -6.0135  -6.0038  -6.0030  -5.9966
    -5.9862  -5.9840  -5.9741  -5.9668  -5.9661  -5.9643  -5.9572  -5.9486
    -5.9332  -5.9316  -5.9230  -5.9199  -5.9164  -5.9109  -5.8992  -5.8914
    -5.8896  -5.8863  -5.8784  -5.8765  -5.8731  -5.8700  -5.8664  -5.8650
    -5.8498  -5.8489  -5.8459  -5.8442  -5.8385  -5.8352  -5.8263  -5.8222
    -5.8162  -5.8122  -5.8107  -5.8052  -5.8005  -5.7979  -5.7939  -5.7919
    -5.7903  -5.7840  -5.7776  -5.7747  -5.7730  -5.7690  -5.7633  -5.7616
    -5.7601  -5.7538  -5.7476  -5.7449  -5.7437  -5.7399  -5.7363  -5.7318
    -5.7244  -5.7167  -5.7156  -5.7110  -5.7065  -5.7033  -5.7013  -5.7006
    -5.6969  -5.6954  -5.6926  -5.6896  -5.6796  -5.6785  -5.6726  -5.6709
    -5.6685  -5.6625  -5.6588  -5.6571  -5.6512  -5.6486  -5.6483  -5.6460
    -5.6448  -5.6405  -5.6397  -5.6377  -5.6316  -5.6304  -5.6290  -5.6269
    -5.6154  -5.6136  -5.6066  -5.6055  -5.6005  -5.5980  -5.5969  -5.5946
    -5.5859  -5.5837  -5.5818  -5.5591  -5.5541  -5.5493  -5.5467  -5.5323
    -5.5255  -5.5140  -5.5009  -5.4991  -5.4895  -5.4766  -5.4572  -5.3947
    -5.3723  -5.3672  -5.1079  -5.1029  -4.9545  -4.8968  -4.6282  -4.5851
    -4.5283  -4.3468  -4.2978  -4.1080  -3.5432  -3.5131  -3.4749  -3.4265
    -3.2452  -3.2232  -2.9398  -2.7852  -2.7064  -2.5993  -2.5407  -2.4607
    -2.3054  -2.2279  -2.0295  -2.0127  -1.9401  -1.6225  -1.6145  -1.5997
    -1.4394  -1.2637  -1.2426  -1.1919  -1.1688  -0.8872  -0.6215  -0.5695
    -0.3857  -0.3525  -0.2032  -0.0242   0.0997   0.1390   0.2157   0.3396
     0.4123   0.5455   0.7063   0.7578   0.8619   1.0179   1.2459   1.5172
     1.7350   1.7880   1.8770   2.0973   2.1230   2.3109   2.3738   2.4331
     2.4853   2.5373   2.9326   2.9508   2.9595   3.2122   3.3393   3.3894
     3.4224   3.6810   3.7799   3.8557   3.8765   3.9022   3.9221   3.9393
     3.9749   4.0943   4.1123   4.1956   4.4284   4.5090   4.5591   4.5765
     4.5942   4.6693   4.9013   4.9204   4.9403   4.9539   5.0550   5.1041
     5.1546   5.3424   5.3720   5.4248   5.4612   5.4994   5.5244   5.5927
     5.6970   5.7634   5.8414   5.8837   5.9071   5.9606   6.0290   6.0482
     6.1039   6.1831   6.2064   6.2483   6.3458   6.3843   6.4128   6.4430
     6.4591   6.5190   6.6293   6.6755   6.7338   6.8315   6.8714   6.8860
     6.9346   6.9524   6.9820   7.0365   7.1377   7.1818   7.2096   7.3247
     7.3611   7.3986   7.4371   7.4944   7.5347   7.5642   7.6094   7.6540
     7.7143   7.7713   7.8275   7.8737   7.9645   7.9993   8.0283   8.0869
     8.1159   8.1589

     occupation numbers 
     1.0000   1.0000   1.0000   1.0000   1.0000   1.0000   1.0000   1.0000
     1.0000   1.0000   1.0000   1.0000   1.0000   1.0000   1.0000   1.0000
     1.0000   1.0000   1.0000   1.0000   1.0000   1.0000   1.0000   1.0000
     1.0000   1.0000   1.0000   1.0000   1.0000   1.0000   1.0000   1.0000
     1.0000   1.0000   1.0000   1.0000   1.0000   1.0000   1.0000   1.0000
     1.0000   1.0000   1.0000   1.0000   1.0000   1.0000   1.0000   1.0000
     1.0000   1.0000   1.0000   1.0000   1.0000   1.0000   1.0000   1.0000
     1.0000   1.0000   1.0000   1.0000   1.0000   1.0000   1.0000   1.0000
     1.0000   1.0000   1.0000   1.0000   1.0000   1.0000   1.0000   1.0000
     1.0000   1.0000   1.0000   1.0000   1.0000   1.0000   1.0000   1.0000
     1.0000   1.0000   1.0000   1.0000   1.0000   1.0000   1.0000   1.0000
     1.0000   1.0000   1.0000   1.0000   1.0000   1.0000   1.0000   1.0000
     1.0000   1.0000   1.0000   1.0000   1.0000   1.0000   1.0000   1.0000
     1.0000   1.0000   1.0000   1.0000   1.0000   1.0000   1.0000   1.0000
     1.0000   1.0000   1.0000   1.0000   1.0000   1.0000   1.0000   1.0000
     1.0000   1.0000   1.0000   1.0000   1.0000   1.0000   1.0000   1.0000
     1.0000   1.0000   1.0000   1.0000   1.0000   1.0000   1.0000   1.0000
     1.0000   1.0000   1.0000   1.0000   1.0000   1.0000   1.0000   1.0000
     1.0000   1.0000   1.0000   1.0000   1.0000   1.0000   1.0000   1.0000
     1.0000   1.0000   1.0000   1.0000   1.0000   1.0000   1.0000   1.0000
     1.0000   1.0000   1.0000   1.0000   1.0000   1.0000   1.0000   1.0000
     1.0000   1.0000   1.0000   1.0000   1.0000   1.0000   1.0000   1.0000
     1.0000   1.0000   1.0000   1.0000   1.0000   1.0000   1.0000   1.0000
     1.0000   1.0000   1.0000   1.0000   1.0000   1.0000   1.0000   1.0000
     1.0000   1.0000   1.0000   1.0000   1.0000   1.0000   1.0000   1.0000
     1.0000   1.0000   1.0000   1.0000   1.0000   1.0000   1.0000   1.0000
     1.0000   1.0000   1.0000   1.0000   1.0000   1.0000   1.0000   1.0000
     1.0000   1.0000   1.0000   1.0000   1.0000   1.0000   1.0000   1.0000
     1.0000   1.0000   1.0000   1.0000   1.0000   1.0000   1.0000   1.0000
     1.0000   1.0000   1.0000   1.0000   1.0000   1.0000   1.0000   1.0000
     1.0000   1.0000   1.0000   1.0000   1.0000   1.0000   1.0000   1.0000
     1.0000   1.0000   1.0000   1.0000   1.0000   1.0000   1.0000   1.0000
     1.0000   1.0000   1.0000   1.0000   1.0000   1.0000   1.0000   1.0000
     1.0000   1.0000   1.0000   1.0000   1.0000   1.0000   1.0000   1.0000
     1.0000   1.0000   1.0000   1.0000   1.0000   1.0000   1.0000   1.0000
     1.0000   1.0000   1.0000   1.0000   1.0000   1.0000   1.0000   1.0000
     1.0000   1.0000   1.0000   1.0000   1.0000   1.0000   1.0000   1.0000
     1.0000   1.0000   1.0000   1.0000   1.0000   1.0000   1.0000   1.0000
     1.0000   1.0000   1.0000   1.0000   1.0000   1.0000   1.0000   1.0000
     1.0000   1.0000   1.0000   1.0000   1.0000   1.0000   1.0000   1.0000
     1.0000   1.0000   1.0000   1.0000   1.0000   1.0000   1.0000   1.0000
     1.0000   1.0000   1.0000   1.0000   1.0000   1.0000   1.0000   1.0000
     1.0000   1.0000   1.0000   1.0000   1.0000   1.0000   1.0000   1.0000
     1.0000   1.0000   1.0000   1.0000   1.0000   1.0000   1.0000   1.0000
     1.0000   1.0000   1.0000   1.0000   1.0000   1.0000   1.0000   1.0000
     1.0000   1.0000   1.0000   1.0000   1.0000   1.0000   1.0000   1.0000
     1.0000   1.0000   1.0000   1.0000   1.0000   1.0000   1.0000   1.0000
     1.0000   1.0000   1.0000   1.0000   1.0000   1.0000   1.0000   1.0000
     1.0000   1.0000   1.0000   1.0000   1.0000   1.0000   1.0000   1.0000
     1.0000   1.0000   1.0000   1.0000   1.0000   1.0000   1.0000   1.0000
     1.0000   1.0000   1.0000   1.0000   1.0000   1.0000   1.0000   1.0000
     1.0000   1.0000   1.0000   1.0000   1.0000   1.0000   1.0000   1.0000
     1.0000   1.0000   1.0000   1.0000   1.0000   1.0000   1.0000   1.0000
     1.0000   1.0000   1.0000   1.0000   1.0000   1.0000   1.0000   1.0000
     1.0000   1.0000   1.0000   1.0000   1.0000   1.0000   1.0000   1.0000
     1.0000   1.0000   1.0000   1.0000   1.0000   1.0000   1.0000   1.0000
     1.0000   1.0000   1.0000   1.0000   1.0000   1.0000   1.0000   1.0000
     1.0000   1.0000   1.0000   1.0000   1.0000   1.0000   1.0000   1.0000
     1.0000   1.0000   1.0000   1.0000   1.0000   1.0000   1.0000   1.0000
     1.0000   1.0000   1.0000   1.0000   1.0000   1.0000   1.0000   1.0000
     1.0000   1.0000   1.0000   1.0000   1.0000   1.0000   1.0000   1.0000
     1.0000   1.0000   1.0000   1.0000   1.0000   1.0000   1.0001   1.0011
     1.0034   1.0184   1.0664   1.0801   1.0632   0.8224   0.2444   0.0113
     0.0002   0.0001   0.0000   0.0000   0.0000   0.0000   0.0000   0.0000
     0.0000   0.0000   0.0000   0.0000   0.0000   0.0000   0.0000   0.0000
     0.0000   0.0000   0.0000   0.0000   0.0000   0.0000   0.0000   0.0000
     0.0000   0.0000   0.0000   0.0000   0.0000   0.0000   0.0000   0.0000
     0.0000   0.0000   0.0000   0.0000   0.0000   0.0000   0.0000   0.0000
     0.0000   0.0000   0.0000   0.0000   0.0000   0.0000   0.0000   0.0000
     0.0000   0.0000   0.0000   0.0000   0.0000   0.0000   0.0000   0.0000
     0.0000   0.0000   0.0000   0.0000   0.0000   0.0000   0.0000   0.0000
     0.0000   0.0000   0.0000   0.0000   0.0000   0.0000   0.0000   0.0000
     0.0000   0.0000   0.0000   0.0000   0.0000   0.0000   0.0000   0.0000
     0.0000   0.0000   0.0000   0.0000   0.0000   0.0000   0.0000   0.0000
     0.0000   0.0000   0.0000   0.0000   0.0000   0.0000   0.0000   0.0000
     0.0000   0.0000

          k = 0.3333 0.0811 0.7384 ( 72005 PWs)   bands (ev):

  -125.3489-125.3430-125.3429-125.3418-125.3413-125.3410-125.3396-125.3392
  -125.2405-125.2394-125.2351-125.2332-125.2326-125.2315-125.2312-125.2305
  -125.1629-125.1543-125.1535-125.1501-125.1492-125.1473-125.1465-125.1460
  -125.1452-125.1451-125.1450-125.1424-125.0920-125.0912-125.0911-125.0902
  -125.0598-125.0589-125.0574-125.0564-125.0419-125.0410-125.0400-125.0391
  -125.0244-125.0236-125.0211-125.0202-124.9970-124.9795-124.9768-124.9692
   -79.5075 -79.5035 -79.5033 -79.5019 -79.5017 -79.5011 -79.4998 -79.4991
   -79.4983 -79.4971 -79.4923 -79.4909 -79.4894 -79.4888 -79.4881 -79.4877
   -79.4866 -79.4861 -79.4858 -79.4855 -79.4846 -79.4826 -79.4766 -79.4730
   -79.4023 -79.3983 -79.3978 -79.3950 -79.3939 -79.3894 -79.3888 -79.3865
   -79.3854 -79.3816 -79.3807 -79.3806 -79.3796 -79.3792 -79.3791 -79.3787
   -79.3776 -79.3774 -79.3750 -79.3748 -79.3730 -79.3722 -79.3712 -79.3668
   -79.3210 -79.3177 -79.3131 -79.3122 -79.3105 -79.3094 -79.3077 -79.3074
   -79.3063 -79.3060 -79.3055 -79.3047 -79.3045 -79.3027 -79.3020 -79.3015
   -79.3001 -79.2994 -79.2992 -79.2990 -79.2988 -79.2988 -79.2980 -79.2980
   -79.2973 -79.2970 -79.2966 -79.2947 -79.2927 -79.2926 -79.2924 -79.2918
   -79.2896 -79.2877 -79.2851 -79.2800 -79.2616 -79.2608 -79.2606 -79.2599
   -79.2400 -79.2395 -79.2393 -79.2390 -79.2387 -79.2323 -79.2313 -79.2297
   -79.2287 -79.2270 -79.2269 -79.2154 -79.2149 -79.2108 -79.2097 -79.2091
   -79.2080 -79.2066 -79.2060 -79.2047 -79.2042 -79.2031 -79.2028 -79.2020
   -79.1917 -79.1915 -79.1911 -79.1908 -79.1905 -79.1882 -79.1876 -79.1873
   -79.1868 -79.1858 -79.1849 -79.1790 -79.1780 -79.1742 -79.1733 -79.1710
   -79.1701 -79.1657 -79.1653 -79.1636 -79.1530 -79.1488 -79.1480 -79.1460
   -79.1432 -79.1378 -79.1275 -79.1247 -79.1232 -79.1203 -79.1180 -79.1061
   -17.9990 -16.6565 -15.8013 -13.4135 -13.3293 -10.4101 -10.1312  -8.2524
    -8.2118  -7.8517  -7.6612  -7.6341  -7.1750  -7.1287  -7.1026  -7.0877
    -7.0505  -7.0236  -7.0215  -6.9876  -6.9652  -6.9372  -6.9112  -6.8947
    -6.8924  -6.8482  -6.8296  -6.8196  -6.7937  -6.7924  -6.7882  -6.7658
    -6.7379  -6.7370  -6.7122  -6.7098  -6.6946  -6.6698  -6.6684  -6.6662
    -6.6489  -6.6389  -6.6285  -6.6225  -6.6215  -6.6160  -6.6137  -6.6047
    -6.5933  -6.5920  -6.5876  -6.5870  -6.5822  -6.5737  -6.5658  -6.5573
    -6.5508  -6.5498  -6.5456  -6.5310  -6.5252  -6.5105  -6.5081  -6.5032
    -6.4960  -6.4935  -6.4806  -6.4720  -6.4638  -6.4470  -6.4415  -6.4336
    -6.4298  -6.4195  -6.4139  -6.4066  -6.3980  -6.3860  -6.3809  -6.3681
    -6.3563  -6.3462  -6.3418  -6.3408  -6.3390  -6.3359  -6.3251  -6.3124
    -6.2981  -6.2966  -6.2840  -6.2825  -6.2807  -6.2771  -6.2741  -6.2613
    -6.2498  -6.2461  -6.2366  -6.2343  -6.2297  -6.2219  -6.2197  -6.2112
    -6.2014  -6.1971  -6.1923  -6.1799  -6.1759  -6.1641  -6.1516  -6.1502
    -6.1479  -6.1405  -6.1364  -6.1342  -6.1308  -6.1296  -6.1120  -6.1058
    -6.0970  -6.0942  -6.0936  -6.0886  -6.0878  -6.0867  -6.0789  -6.0636
    -6.0591  -6.0531  -6.0492  -6.0456  -6.0443  -6.0405  -6.0352  -6.0332
    -6.0219  -6.0180  -6.0147  -6.0072  -6.0016  -5.9976  -5.9915  -5.9879
    -5.9825  -5.9815  -5.9737  -5.9714  -5.9699  -5.9667  -5.9654  -5.9638
    -5.9503  -5.9396  -5.9379  -5.9374  -5.9356  -5.9244  -5.9226  -5.9111
    -5.9084  -5.9069  -5.9038  -5.9031  -5.8974  -5.8899  -5.8811  -5.8795
    -5.8765  -5.8755  -5.8670  -5.8619  -5.8607  -5.8600  -5.8573  -5.8453
    -5.8418  -5.8377  -5.8372  -5.8293  -5.8248  -5.8170  -5.8159  -5.8144
    -5.8134  -5.8109  -5.8073  -5.8065  -5.7942  -5.7914  -5.7896  -5.7721
    -5.7709  -5.7683  -5.7656  -5.7600  -5.7539  -5.7530  -5.7523  -5.7511
    -5.7474  -5.7405  -5.7376  -5.7362  -5.7269  -5.7170  -5.7159  -5.7151
    -5.7102  -5.7081  -5.7048  -5.7029  -5.6905  -5.6815  -5.6808  -5.6801
    -5.6796  -5.6758  -5.6693  -5.6674  -5.6624  -5.6533  -5.6528  -5.6431
    -5.6420  -5.6410  -5.6324  -5.6305  -5.6303  -5.6218  -5.6191  -5.6169
    -5.6118  -5.6110  -5.6029  -5.6013  -5.5950  -5.5856  -5.5814  -5.5791
    -5.5605  -5.5585  -5.5522  -5.5479  -5.5368  -5.5361  -5.5327  -5.5192
    -5.5180  -5.5003  -5.4974  -5.4797  -5.4481  -5.4386  -5.4288  -5.4273
    -5.3901  -5.3303  -5.1073  -5.0748  -5.0447  -5.0232  -4.5866  -4.5760
    -4.4525  -4.4443  -4.3193  -3.9913  -3.8872  -3.6244  -3.5183  -3.4841
    -3.4224  -3.2445  -2.9880  -2.8385  -2.7211  -2.6246  -2.5975  -2.2282
    -2.0903  -1.9911  -1.9215  -1.8884  -1.6706  -1.6455  -1.6298  -1.4096
    -1.2612  -1.2426  -1.1909  -1.1222  -0.7418  -0.6208  -0.5755  -0.4521
    -0.3589  -0.3509  -0.2802  -0.2624  -0.1521  -0.0018   0.0648   0.1170
     0.4669   0.4958   0.6337   0.9308   1.0423   1.3265   1.3317   1.3559
     1.4381   1.6194   1.7048   1.8149   1.8313   1.8895   2.3217   2.4446
     2.5997   2.6413   2.7863   2.7887   2.8008   2.8175   3.0767   3.3371
     3.3719   3.4183   3.4467   3.6131   3.6875   3.7427   3.7691   3.9081
     4.0287   4.1130   4.2778   4.2895   4.5595   4.5778   4.5978   4.6541
     4.7383   4.8715   4.9728   5.0224   5.0816   5.1684   5.1792   5.1933
     5.2127   5.3727   5.4596   5.4958   5.5309   5.5630   5.6713   5.7532
     5.7907   5.8434   5.9769   6.0435   6.0793   6.0951   6.1572   6.1954
     6.2202   6.3396   6.3707   6.4699   6.5124   6.5917   6.6438   6.7168
     6.7454   6.7638   6.8177   6.8739   6.8938   6.9105   6.9225   7.0175
     7.0264   7.0603   7.0874   7.1126   7.1615   7.2139   7.2754   7.3192
     7.3522   7.3919   7.4428   7.4720   7.4949   7.5324   7.5674   7.5759
     7.6429   7.6937   7.7349   7.7554   7.7932   7.8353   7.9472   7.9624
     7.9926   8.0567

     occupation numbers 
     1.0000   1.0000   1.0000   1.0000   1.0000   1.0000   1.0000   1.0000
     1.0000   1.0000   1.0000   1.0000   1.0000   1.0000   1.0000   1.0000
     1.0000   1.0000   1.0000   1.0000   1.0000   1.0000   1.0000   1.0000
     1.0000   1.0000   1.0000   1.0000   1.0000   1.0000   1.0000   1.0000
     1.0000   1.0000   1.0000   1.0000   1.0000   1.0000   1.0000   1.0000
     1.0000   1.0000   1.0000   1.0000   1.0000   1.0000   1.0000   1.0000
     1.0000   1.0000   1.0000   1.0000   1.0000   1.0000   1.0000   1.0000
     1.0000   1.0000   1.0000   1.0000   1.0000   1.0000   1.0000   1.0000
     1.0000   1.0000   1.0000   1.0000   1.0000   1.0000   1.0000   1.0000
     1.0000   1.0000   1.0000   1.0000   1.0000   1.0000   1.0000   1.0000
     1.0000   1.0000   1.0000   1.0000   1.0000   1.0000   1.0000   1.0000
     1.0000   1.0000   1.0000   1.0000   1.0000   1.0000   1.0000   1.0000
     1.0000   1.0000   1.0000   1.0000   1.0000   1.0000   1.0000   1.0000
     1.0000   1.0000   1.0000   1.0000   1.0000   1.0000   1.0000   1.0000
     1.0000   1.0000   1.0000   1.0000   1.0000   1.0000   1.0000   1.0000
     1.0000   1.0000   1.0000   1.0000   1.0000   1.0000   1.0000   1.0000
     1.0000   1.0000   1.0000   1.0000   1.0000   1.0000   1.0000   1.0000
     1.0000   1.0000   1.0000   1.0000   1.0000   1.0000   1.0000   1.0000
     1.0000   1.0000   1.0000   1.0000   1.0000   1.0000   1.0000   1.0000
     1.0000   1.0000   1.0000   1.0000   1.0000   1.0000   1.0000   1.0000
     1.0000   1.0000   1.0000   1.0000   1.0000   1.0000   1.0000   1.0000
     1.0000   1.0000   1.0000   1.0000   1.0000   1.0000   1.0000   1.0000
     1.0000   1.0000   1.0000   1.0000   1.0000   1.0000   1.0000   1.0000
     1.0000   1.0000   1.0000   1.0000   1.0000   1.0000   1.0000   1.0000
     1.0000   1.0000   1.0000   1.0000   1.0000   1.0000   1.0000   1.0000
     1.0000   1.0000   1.0000   1.0000   1.0000   1.0000   1.0000   1.0000
     1.0000   1.0000   1.0000   1.0000   1.0000   1.0000   1.0000   1.0000
     1.0000   1.0000   1.0000   1.0000   1.0000   1.0000   1.0000   1.0000
     1.0000   1.0000   1.0000   1.0000   1.0000   1.0000   1.0000   1.0000
     1.0000   1.0000   1.0000   1.0000   1.0000   1.0000   1.0000   1.0000
     1.0000   1.0000   1.0000   1.0000   1.0000   1.0000   1.0000   1.0000
     1.0000   1.0000   1.0000   1.0000   1.0000   1.0000   1.0000   1.0000
     1.0000   1.0000   1.0000   1.0000   1.0000   1.0000   1.0000   1.0000
     1.0000   1.0000   1.0000   1.0000   1.0000   1.0000   1.0000   1.0000
     1.0000   1.0000   1.0000   1.0000   1.0000   1.0000   1.0000   1.0000
     1.0000   1.0000   1.0000   1.0000   1.0000   1.0000   1.0000   1.0000
     1.0000   1.0000   1.0000   1.0000   1.0000   1.0000   1.0000   1.0000
     1.0000   1.0000   1.0000   1.0000   1.0000   1.0000   1.0000   1.0000
     1.0000   1.0000   1.0000   1.0000   1.0000   1.0000   1.0000   1.0000
     1.0000   1.0000   1.0000   1.0000   1.0000   1.0000   1.0000   1.0000
     1.0000   1.0000   1.0000   1.0000   1.0000   1.0000   1.0000   1.0000
     1.0000   1.0000   1.0000   1.0000   1.0000   1.0000   1.0000   1.0000
     1.0000   1.0000   1.0000   1.0000   1.0000   1.0000   1.0000   1.0000
     1.0000   1.0000   1.0000   1.0000   1.0000   1.0000   1.0000   1.0000
     1.0000   1.0000   1.0000   1.0000   1.0000   1.0000   1.0000   1.0000
     1.0000   1.0000   1.0000   1.0000   1.0000   1.0000   1.0000   1.0000
     1.0000   1.0000   1.0000   1.0000   1.0000   1.0000   1.0000   1.0000
     1.0000   1.0000   1.0000   1.0000   1.0000   1.0000   1.0000   1.0000
     1.0000   1.0000   1.0000   1.0000   1.0000   1.0000   1.0000   1.0000
     1.0000   1.0000   1.0000   1.0000   1.0000   1.0000   1.0000   1.0000
     1.0000   1.0000   1.0000   1.0000   1.0000   1.0000   1.0000   1.0000
     1.0000   1.0000   1.0000   1.0000   1.0000   1.0000   1.0000   1.0000
     1.0000   1.0000   1.0000   1.0000   1.0000   1.0000   1.0000   1.0000
     1.0000   1.0000   1.0000   1.0000   1.0000   1.0000   1.0000   1.0000
     1.0000   1.0000   1.0000   1.0000   1.0000   1.0000   1.0000   1.0000
     1.0000   1.0000   1.0000   1.0000   1.0000   1.0000   1.0000   1.0000
     1.0000   1.0000   1.0000   1.0000   1.0000   1.0000   1.0000   1.0000
     1.0000   1.0000   1.0000   1.0000   1.0000   1.0000   1.0000   1.0000
     1.0000   1.0000   1.0000   1.0000   1.0000   1.0000   1.0000   1.0000
     1.0000   1.0000   1.0000   1.0000   1.0000   1.0000   1.0000   1.0000
     1.0000   1.0000   1.0000   1.0000   1.0000   1.0000   1.0000   1.0000
     1.0000   1.0000   1.0000   1.0000   1.0000   1.0000   1.0000   1.0000
     1.0072   1.0104   1.0418   0.9926   0.7615   0.1192   0.1131   0.0881
     0.0337   0.0022   0.0004   0.0000   0.0000   0.0000   0.0000   0.0000
     0.0000   0.0000   0.0000   0.0000   0.0000   0.0000   0.0000   0.0000
     0.0000   0.0000   0.0000   0.0000   0.0000   0.0000   0.0000   0.0000
     0.0000   0.0000   0.0000   0.0000   0.0000   0.0000   0.0000   0.0000
     0.0000   0.0000   0.0000   0.0000   0.0000   0.0000   0.0000   0.0000
     0.0000   0.0000   0.0000   0.0000   0.0000   0.0000   0.0000   0.0000
     0.0000   0.0000   0.0000   0.0000   0.0000   0.0000   0.0000   0.0000
     0.0000   0.0000   0.0000   0.0000   0.0000   0.0000   0.0000   0.0000
     0.0000   0.0000   0.0000   0.0000   0.0000   0.0000   0.0000   0.0000
     0.0000   0.0000   0.0000   0.0000   0.0000   0.0000   0.0000   0.0000
     0.0000   0.0000   0.0000   0.0000   0.0000   0.0000   0.0000   0.0000
     0.0000   0.0000   0.0000   0.0000   0.0000   0.0000   0.0000   0.0000
     0.0000   0.0000

          k = 0.3333 0.4439 0.9230 ( 71974 PWs)   bands (ev):

  -125.3489-125.3430-125.3429-125.3418-125.3412-125.3410-125.3396-125.3392
  -125.2405-125.2394-125.2351-125.2332-125.2326-125.2316-125.2311-125.2305
  -125.1629-125.1543-125.1535-125.1501-125.1492-125.1472-125.1466-125.1458
  -125.1452-125.1452-125.1450-125.1424-125.0920-125.0915-125.0907-125.0903
  -125.0598-125.0590-125.0574-125.0564-125.0419-125.0410-125.0399-125.0391
  -125.0244-125.0236-125.0211-125.0202-124.9970-124.9795-124.9768-124.9692
   -79.5075 -79.5034 -79.5022 -79.5021 -79.5014 -79.5011 -79.4998 -79.4991
   -79.4972 -79.4967 -79.4955 -79.4923 -79.4918 -79.4893 -79.4883 -79.4875
   -79.4866 -79.4861 -79.4846 -79.4841 -79.4826 -79.4795 -79.4779 -79.4746
   -79.4010 -79.3980 -79.3975 -79.3959 -79.3946 -79.3932 -79.3865 -79.3856
   -79.3836 -79.3823 -79.3819 -79.3810 -79.3799 -79.3795 -79.3789 -79.3785
   -79.3778 -79.3770 -79.3747 -79.3735 -79.3730 -79.3720 -79.3708 -79.3683
   -79.3206 -79.3177 -79.3130 -79.3111 -79.3107 -79.3090 -79.3082 -79.3077
   -79.3066 -79.3061 -79.3057 -79.3048 -79.3040 -79.3033 -79.3027 -79.3021
   -79.3017 -79.3000 -79.2994 -79.2991 -79.2987 -79.2984 -79.2980 -79.2976
   -79.2974 -79.2969 -79.2956 -79.2948 -79.2933 -79.2927 -79.2918 -79.2895
   -79.2886 -79.2863 -79.2861 -79.2817 -79.2615 -79.2611 -79.2604 -79.2599
   -79.2399 -79.2396 -79.2392 -79.2389 -79.2373 -79.2329 -79.2322 -79.2314
   -79.2297 -79.2287 -79.2209 -79.2165 -79.2138 -79.2108 -79.2099 -79.2093
   -79.2086 -79.2080 -79.2066 -79.2059 -79.2045 -79.2038 -79.2012 -79.1972
   -79.1969 -79.1921 -79.1917 -79.1908 -79.1882 -79.1876 -79.1873 -79.1868
   -79.1857 -79.1852 -79.1849 -79.1806 -79.1765 -79.1742 -79.1733 -79.1714
   -79.1710 -79.1701 -79.1636 -79.1595 -79.1545 -79.1488 -79.1480 -79.1460
   -79.1430 -79.1378 -79.1275 -79.1256 -79.1247 -79.1180 -79.1177 -79.1066
   -17.9990 -16.6565 -15.8013 -13.4135 -13.3293 -10.4100 -10.1312  -8.2521
    -8.0029  -7.7930  -7.7089  -7.6503  -7.6325  -7.1907  -7.0648  -7.0208
    -7.0071  -6.9867  -6.9743  -6.9641  -6.8942  -6.8926  -6.8888  -6.8823
    -6.8537  -6.8338  -6.8268  -6.8184  -6.8012  -6.7947  -6.7887  -6.7743
    -6.7665  -6.7553  -6.7416  -6.7365  -6.7255  -6.7131  -6.7046  -6.6945
    -6.6896  -6.6674  -6.6567  -6.6495  -6.6323  -6.6316  -6.6281  -6.6170
    -6.6102  -6.6065  -6.6006  -6.5988  -6.5923  -6.5649  -6.5634  -6.5475
    -6.5429  -6.5383  -6.5361  -6.5211  -6.5159  -6.5092  -6.5013  -6.5002
    -6.4827  -6.4766  -6.4681  -6.4611  -6.4517  -6.4501  -6.4466  -6.4389
    -6.4318  -6.4298  -6.4203  -6.4015  -6.3924  -6.3893  -6.3873  -6.3791
    -6.3642  -6.3629  -6.3586  -6.3501  -6.3375  -6.3286  -6.3267  -6.3247
    -6.3183  -6.3173  -6.3025  -6.2965  -6.2873  -6.2831  -6.2716  -6.2684
    -6.2653  -6.2631  -6.2438  -6.2418  -6.2276  -6.2236  -6.2204  -6.2132
    -6.2054  -6.2042  -6.1986  -6.1942  -6.1919  -6.1858  -6.1788  -6.1741
    -6.1637  -6.1626  -6.1554  -6.1494  -6.1471  -6.1408  -6.1396  -6.1270
    -6.1257  -6.1228  -6.1204  -6.1115  -6.1067  -6.0954  -6.0923  -6.0776
    -6.0709  -6.0704  -6.0657  -6.0648  -6.0579  -6.0486  -6.0436  -6.0338
    -6.0263  -6.0259  -6.0103  -6.0054  -6.0042  -6.0034  -5.9995  -5.9963
    -5.9889  -5.9883  -5.9767  -5.9745  -5.9664  -5.9620  -5.9575  -5.9546
    -5.9494  -5.9376  -5.9341  -5.9311  -5.9164  -5.9105  -5.9013  -5.8990
    -5.8906  -5.8895  -5.8771  -5.8759  -5.8716  -5.8684  -5.8656  -5.8644
    -5.8580  -5.8567  -5.8497  -5.8464  -5.8411  -5.8379  -5.8259  -5.8255
    -5.8220  -5.8212  -5.8152  -5.8121  -5.8059  -5.8043  -5.7987  -5.7944
    -5.7923  -5.7874  -5.7868  -5.7792  -5.7769  -5.7745  -5.7653  -5.7638
    -5.7625  -5.7544  -5.7461  -5.7440  -5.7427  -5.7419  -5.7316  -5.7270
    -5.7234  -5.7168  -5.7159  -5.7154  -5.7132  -5.7114  -5.7038  -5.7011
    -5.6961  -5.6923  -5.6899  -5.6885  -5.6837  -5.6733  -5.6721  -5.6683
    -5.6662  -5.6594  -5.6586  -5.6569  -5.6552  -5.6497  -5.6471  -5.6451
    -5.6412  -5.6406  -5.6365  -5.6324  -5.6309  -5.6274  -5.6196  -5.6149
    -5.6138  -5.6123  -5.6074  -5.6055  -5.6001  -5.5980  -5.5966  -5.5934
    -5.5873  -5.5814  -5.5762  -5.5642  -5.5551  -5.5403  -5.5341  -5.5239
    -5.5187  -5.5060  -5.5012  -5.4948  -5.4887  -5.4848  -5.4447  -5.3811
    -5.3589  -5.1079  -5.1030  -4.9642  -4.9540  -4.8979  -4.6555  -4.5859
    -4.5277  -4.3468  -4.2971  -3.9876  -3.6720  -3.5140  -3.4751  -3.4291
    -3.2717  -3.2429  -2.9394  -2.7715  -2.7702  -2.7076  -2.6001  -2.5811
    -2.4607  -2.3057  -2.2279  -2.2014  -2.0408  -1.9955  -1.6171  -1.5775
    -1.4388  -1.2428  -1.1927  -1.0540  -0.8870  -0.6217  -0.5865  -0.5691
    -0.2063  -0.1973  -0.0391  -0.0197   0.1149   0.1721   0.3704   0.4190
     0.5138   0.7564   0.7667   0.8612   1.0038   1.2460   1.4175   1.4788
     1.7874   1.8242   1.8766   1.9728   2.1183   2.2203   2.3459   2.4848
     2.5391   2.5593   2.5893   2.9050   2.9290   2.9538   2.9630   3.2130
     3.2305   3.4263   3.4555   3.6642   3.7133   3.8733   3.8999   3.9063
     3.9209   3.9487   3.9858   4.1097   4.2609   4.4005   4.4924   4.5064
     4.5832   4.6715   4.9146   4.9311   4.9726   5.0357   5.1511   5.1652
     5.3757   5.4267   5.4662   5.4931   5.5292   5.5394   5.5565   5.6652
     5.7272   5.8237   5.8785   5.9254   5.9386   5.9705   5.9912   6.1155
     6.1289   6.1870   6.2010   6.2970   6.3421   6.4102   6.4421   6.4528
     6.5136   6.5580   6.5963   6.6395   6.6702   6.7013   6.7454   6.8824
     6.9644   6.9937   7.0408   7.1206   7.1830   7.2108   7.2332   7.3443
     7.4051   7.5000   7.5122   7.6000   7.6209   7.6644   7.7402   7.8034
     7.8380   7.9010   7.9347   7.9484   8.0308   8.0509   8.1163   8.1580
     8.1710   8.2569

     occupation numbers 
     1.0000   1.0000   1.0000   1.0000   1.0000   1.0000   1.0000   1.0000
     1.0000   1.0000   1.0000   1.0000   1.0000   1.0000   1.0000   1.0000
     1.0000   1.0000   1.0000   1.0000   1.0000   1.0000   1.0000   1.0000
     1.0000   1.0000   1.0000   1.0000   1.0000   1.0000   1.0000   1.0000
     1.0000   1.0000   1.0000   1.0000   1.0000   1.0000   1.0000   1.0000
     1.0000   1.0000   1.0000   1.0000   1.0000   1.0000   1.0000   1.0000
     1.0000   1.0000   1.0000   1.0000   1.0000   1.0000   1.0000   1.0000
     1.0000   1.0000   1.0000   1.0000   1.0000   1.0000   1.0000   1.0000
     1.0000   1.0000   1.0000   1.0000   1.0000   1.0000   1.0000   1.0000
     1.0000   1.0000   1.0000   1.0000   1.0000   1.0000   1.0000   1.0000
     1.0000   1.0000   1.0000   1.0000   1.0000   1.0000   1.0000   1.0000
     1.0000   1.0000   1.0000   1.0000   1.0000   1.0000   1.0000   1.0000
     1.0000   1.0000   1.0000   1.0000   1.0000   1.0000   1.0000   1.0000
     1.0000   1.0000   1.0000   1.0000   1.0000   1.0000   1.0000   1.0000
     1.0000   1.0000   1.0000   1.0000   1.0000   1.0000   1.0000   1.0000
     1.0000   1.0000   1.0000   1.0000   1.0000   1.0000   1.0000   1.0000
     1.0000   1.0000   1.0000   1.0000   1.0000   1.0000   1.0000   1.0000
     1.0000   1.0000   1.0000   1.0000   1.0000   1.0000   1.0000   1.0000
     1.0000   1.0000   1.0000   1.0000   1.0000   1.0000   1.0000   1.0000
     1.0000   1.0000   1.0000   1.0000   1.0000   1.0000   1.0000   1.0000
     1.0000   1.0000   1.0000   1.0000   1.0000   1.0000   1.0000   1.0000
     1.0000   1.0000   1.0000   1.0000   1.0000   1.0000   1.0000   1.0000
     1.0000   1.0000   1.0000   1.0000   1.0000   1.0000   1.0000   1.0000
     1.0000   1.0000   1.0000   1.0000   1.0000   1.0000   1.0000   1.0000
     1.0000   1.0000   1.0000   1.0000   1.0000   1.0000   1.0000   1.0000
     1.0000   1.0000   1.0000   1.0000   1.0000   1.0000   1.0000   1.0000
     1.0000   1.0000   1.0000   1.0000   1.0000   1.0000   1.0000   1.0000
     1.0000   1.0000   1.0000   1.0000   1.0000   1.0000   1.0000   1.0000
     1.0000   1.0000   1.0000   1.0000   1.0000   1.0000   1.0000   1.0000
[...]
     atom   44 type  1   force =     0.00000000    0.00000000    0.00000000
     atom   45 type  1   force =     0.00000000    0.00000000    0.00000000
     atom   46 type  1   force =     0.00000000    0.00000000    0.00000000
     atom   47 type  1   force =     0.00000000    0.00000000    0.00000000
     atom   48 type  1   force =     0.00000000    0.00000000    0.00000000
     atom   49 type  3   force =     0.00000000    0.00000000    0.00000000
     atom   50 type  3   force =     0.00000000    0.00000000    0.00000000
     atom   51 type  3   force =     0.00000000    0.00000000    0.00000000
     atom   52 type  3   force =     0.00000000    0.00000000    0.00000000
     atom   53 type  3   force =     0.00000000    0.00000000    0.00000000
     atom   54 type  3   force =     0.00000000    0.00000000    0.00000000
     atom   55 type  3   force =     0.00000000    0.00000000    0.00000000
     atom   56 type  2   force =     0.00000000    0.00000000    0.00000000
     atom   57 type  2   force =     0.00000000    0.00000000    0.00000000
     atom   58 type  4   force =     0.00000000    0.00000000    0.00000000
     atom   59 type  4   force =     0.00000000    0.00000000    0.00000000
     atom   60 type  4   force =     0.00000000    0.00000000    0.00000000
     atom   61 type  4   force =     0.00000000    0.00000000    0.00000000
     atom   62 type  4   force =     0.00000000    0.00000000    0.00000000
     atom   63 type  4   force =     0.00000000    0.00000000    0.00000000
     The SCF correction term to forces
     atom    1 type  1   force =     0.00000000    0.00000000   -0.00000000
     atom    2 type  1   force =     0.00000000   -0.00000000   -0.00000000
     atom    3 type  1   force =    -0.00003861    0.00001863    0.00001963
     atom    4 type  1   force =     0.00000489   -0.00006073    0.00003189
     atom    5 type  1   force =     0.00001203   -0.00002009    0.00002545
     atom    6 type  1   force =    -0.00001355   -0.00000684    0.00003517
     atom    7 type  1   force =     0.00000000    0.00000000   -0.00000000
     atom    8 type  1   force =     0.00000000   -0.00000000   -0.00000000
     atom    9 type  1   force =    -0.00000212   -0.00002435    0.00001550
     atom   10 type  1   force =    -0.00003546   -0.00001841    0.00002871
     atom   11 type  1   force =     0.00001624   -0.00000351    0.00003323
     atom   12 type  1   force =    -0.00001757   -0.00002507    0.00002909
     atom   13 type  1   force =    -0.00000000   -0.00000000   -0.00000000
     atom   14 type  1   force =    -0.00000000   -0.00000000   -0.00000000
     atom   15 type  1   force =     0.00005089    0.00000426    0.00001717
     atom   16 type  1   force =     0.00001233   -0.00000577    0.00002865
     atom   17 type  1   force =    -0.00004737   -0.00000202    0.00007020
     atom   18 type  1   force =    -0.00000853   -0.00004685    0.00004510
     atom   19 type  1   force =    -0.00000000   -0.00000000   -0.00000000
     atom   20 type  1   force =    -0.00000000    0.00000000   -0.00000000
     atom   21 type  1   force =     0.00000476    0.00002699    0.00002431
     atom   22 type  1   force =     0.00006197   -0.00003946    0.00002073
     atom   23 type  1   force =    -0.00004163    0.00001379    0.00004717
     atom   24 type  1   force =    -0.00001285   -0.00007008    0.00006695
     atom   25 type  1   force =     0.00000000    0.00000000   -0.00000000
     atom   26 type  1   force =     0.00000000    0.00000000   -0.00000000
     atom   27 type  1   force =    -0.00006451    0.00001596    0.00005202
     atom   28 type  1   force =    -0.00003289   -0.00004876    0.00006045
     atom   29 type  1   force =    -0.00001311    0.00000372   -0.00001263
     atom   30 type  1   force =     0.00003331   -0.00002691   -0.00001469
     atom   31 type  1   force =     0.00000000    0.00000000   -0.00000000
     atom   32 type  1   force =     0.00000000    0.00000000   -0.00000000
     atom   33 type  1   force =    -0.00007252    0.00002175    0.00005276
     atom   34 type  1   force =    -0.00002306   -0.00005584    0.00005706
     atom   35 type  1   force =     0.00002769   -0.00000834   -0.00001906
     atom   36 type  1   force =    -0.00000944   -0.00001480   -0.00000769
     atom   37 type  1   force =    -0.00000000    0.00000000   -0.00000000
     atom   38 type  1   force =    -0.00000000   -0.00000000   -0.00000000
     atom   39 type  1   force =     0.00008025    0.00000179   -0.00007376
     atom   40 type  1   force =     0.00004038    0.00001564   -0.00005390
     atom   41 type  1   force =    -0.00003734   -0.00005119    0.00006660
     atom   42 type  1   force =    -0.00009592   -0.00001763   -0.00000797
     atom   43 type  1   force =    -0.00000000   -0.00000000   -0.00000000
     atom   44 type  1   force =    -0.00000000   -0.00000000   -0.00000000
     atom   45 type  1   force =     0.00008412    0.00000075   -0.00006087
     atom   46 type  1   force =     0.00004015    0.00001410   -0.00006104
     atom   47 type  1   force =    -0.00007256    0.00000757    0.00006163
     atom   48 type  1   force =    -0.00004912   -0.00007072    0.00004106
     atom   49 type  3   force =     0.00000139    0.00000058    0.00001010
     atom   50 type  3   force =     0.00000062   -0.00000258   -0.00000431
     atom   51 type  3   force =     0.00000650    0.00000247    0.00000155
     atom   52 type  3   force =     0.00000768    0.00000205    0.00000378
     atom   53 type  3   force =     0.00000554    0.00000522    0.00000139
     atom   54 type  3   force =     0.00000651   -0.00000053    0.00000223
     atom   55 type  3   force =     0.00001272    0.00000250   -0.00000195
     atom   56 type  2   force =     0.00000024    0.00000039    0.00001291
     atom   57 type  2   force =    -0.00000259   -0.00000203   -0.00001017
     atom   58 type  4   force =    -0.00000009    0.00000139   -0.00000055
     atom   59 type  4   force =     0.00000048   -0.00000113   -0.00000047
     atom   60 type  4   force =     0.00000094    0.00000078   -0.00000026
     atom   61 type  4   force =     0.00000091    0.00000024   -0.00000084
     atom   62 type  4   force =    -0.00000014   -0.00000021   -0.00000025
     atom   63 type  4   force =    -0.00000025    0.00000048   -0.00000039

     DFT-D3 dispersion contribution to forces:
     atom    1 type  1   force =    -0.00078956   -0.00018046    0.00278679
     atom    2 type  1   force =    -0.00078534   -0.00020685    0.00278273
     atom    3 type  1   force =    -0.00119519   -0.00031031   -0.00271553
     atom    4 type  1   force =    -0.00119826   -0.00030366   -0.00270320
     atom    5 type  1   force =     0.00074569    0.00023944   -0.00172083
     atom    6 type  1   force =     0.00046824    0.00026615   -0.00054030
     atom    7 type  1   force =    -0.00077749   -0.00019124    0.00280063
     atom    8 type  1   force =    -0.00079671   -0.00019847    0.00276267
     atom    9 type  1   force =    -0.00117003   -0.00029597   -0.00271408
     atom   10 type  1   force =    -0.00119069   -0.00028365   -0.00270342
     atom   11 type  1   force =     0.00039381    0.00073348   -0.00113353
     atom   12 type  1   force =     0.00060126   -0.00032562   -0.00093050
     atom   13 type  1   force =     0.00060052    0.00016012    0.00295010
     atom   14 type  1   force =     0.00058559    0.00013153    0.00296832
     atom   15 type  1   force =    -0.00017805   -0.00004839   -0.00076356
     atom   16 type  1   force =    -0.00024243   -0.00005791   -0.00070203
     atom   17 type  1   force =    -0.00015340   -0.00001576   -0.00264251
     atom   18 type  1   force =     0.00003994   -0.00003366   -0.00249068
     atom   19 type  1   force =     0.00057892    0.00016659    0.00296453
     atom   20 type  1   force =     0.00060105    0.00014024    0.00295254
     atom   21 type  1   force =    -0.00021999   -0.00010459   -0.00071221
     atom   22 type  1   force =    -0.00019223   -0.00007358   -0.00075731
     atom   23 type  1   force =     0.00000029    0.00005078   -0.00250845
     atom   24 type  1   force =    -0.00014255   -0.00005716   -0.00262379
     atom   25 type  1   force =     0.00058879    0.00014522    0.00277861
     atom   26 type  1   force =     0.00058848    0.00013719    0.00281923
     atom   27 type  1   force =     0.00074332    0.00019124    0.00188511
     atom   28 type  1   force =     0.00076464    0.00019242    0.00188657
     atom   29 type  1   force =     0.00076176    0.00017167   -0.00201232
     atom   30 type  1   force =     0.00074822    0.00020327   -0.00193763
     atom   31 type  1   force =     0.00058414    0.00015537    0.00281867
     atom   32 type  1   force =     0.00059038    0.00014220    0.00278174
     atom   33 type  1   force =     0.00075573    0.00020142    0.00188001
     atom   34 type  1   force =     0.00075935    0.00019583    0.00187965
     atom   35 type  1   force =     0.00075946    0.00018891   -0.00202344
     atom   36 type  1   force =     0.00071621    0.00017836   -0.00190665
     atom   37 type  1   force =     0.00032215    0.00007558    0.00260458
     atom   38 type  1   force =     0.00030799    0.00007287    0.00260965
     atom   39 type  1   force =    -0.00107818   -0.00026671    0.00162173
     atom   40 type  1   force =    -0.00105749   -0.00026182    0.00168975
     atom   41 type  1   force =    -0.00032359   -0.00018989   -0.00434328
     atom   42 type  1   force =     0.00023840    0.00006607   -0.00315266
     atom   43 type  1   force =     0.00031659    0.00007655    0.00261911
     atom   44 type  1   force =     0.00031274    0.00006908    0.00258762
     atom   45 type  1   force =    -0.00110561   -0.00031354    0.00161945
     atom   46 type  1   force =    -0.00109935   -0.00025525    0.00162623
     atom   47 type  1   force =    -0.00017041    0.00035033   -0.00379873
     atom   48 type  1   force =     0.00011845   -0.00053746   -0.00364828
     atom   49 type  3   force =    -0.00001554    0.00002156    0.00011707
     atom   50 type  3   force =    -0.00000829    0.00002428   -0.00004387
     atom   51 type  3   force =    -0.00004693    0.00011860   -0.00012516
     atom   52 type  3   force =     0.00003429   -0.00016456   -0.00007575
     atom   53 type  3   force =    -0.00010367    0.00024419   -0.00032855
     atom   54 type  3   force =     0.00002588   -0.00019117   -0.00016367
     atom   55 type  3   force =    -0.00004088   -0.00003088   -0.00092489
     atom   56 type  2   force =     0.00003669   -0.00004955   -0.00031950
     atom   57 type  2   force =    -0.00027043   -0.00007470   -0.00154855
     atom   58 type  4   force =    -0.00014483   -0.00000704   -0.00175355
     atom   59 type  4   force =    -0.00015382   -0.00009777   -0.00184773
     atom   60 type  4   force =    -0.00000039    0.00000541    0.00001431
     atom   61 type  4   force =    -0.00000384    0.00001886    0.00000718
     atom   62 type  4   force =    -0.00001512   -0.00000091   -0.00017775
     atom   63 type  4   force =    -0.00001867   -0.00000626   -0.00032068

     Total force =     0.003959     Total SCF correction =     0.000395

     DFT-D3 dispersion Force =     0.017890


     Computing stress (Cartesian axis) and pressure


     negative rho (up, down):  3.745E-03 0.000E+00
          total   stress  (Ry/bohr**3)                   (kbar)     P=      -10.79
  -0.00012162  -0.00000284   0.00000339          -17.89       -0.42        0.50
  -0.00000284  -0.00009204   0.00000073           -0.42      -13.54        0.11
   0.00000339   0.00000073  -0.00000649            0.50        0.11       -0.95

     kinetic stress (kbar)  11740.66     19.41      2.48
                               19.41  11677.89     -1.44
                                2.48     -1.44  11711.75

     local   stress (kbar)-819528.44   4699.53   -110.78
                             4699.53-837128.10   -172.47
                             -110.78   -172.47 826716.43

     nonloc. stress (kbar)  -1086.80     -4.67     -1.47
                               -4.67  -1069.48      0.02
                               -1.47      0.02  -1105.49

     hartree stress (kbar) 434705.93  -2128.50    104.89
                            -2128.50 442695.78     86.07
                              104.89     86.07-381971.63

     exc-cor stress (kbar)  -5700.23     -1.30     -0.31
                               -1.30  -5695.73      0.05
                               -0.31      0.05  -5702.03

     corecor stress (kbar)    -74.49      0.24      0.05
                                0.24    -75.26     -0.03
                                0.05     -0.03    -75.71

     ewald   stress (kbar) 379932.97  -2585.32      5.76
                            -2585.32 389589.52     87.94
                                5.76     87.94-449570.10

     hubbard stress (kbar)      0.00      0.00      0.00
                                0.00      0.00      0.00
                                0.00      0.00      0.00

     DFT-D   stress (kbar)     -7.49      0.19     -0.14
                                0.19     -8.15     -0.03
                               -0.14     -0.03     -4.17

     XDM     stress (kbar)      0.00      0.00      0.00
                                0.00      0.00      0.00
                                0.00      0.00      0.00

     dft-nl  stress (kbar)      0.00      0.00      0.00
                                0.00      0.00      0.00
                                0.00      0.00      0.00

     TS-vdW  stress (kbar)      0.00      0.00      0.00
                                0.00      0.00      0.00
                                0.00      0.00      0.00

     MDB     stress (kbar)      0.00      0.00      0.00
                                0.00      0.00      0.00
                                0.00      0.00      0.00

     3D-RISM stress (kbar)      0.00      0.00      0.00
                                0.00      0.00      0.00
                                0.00      0.00      0.00

     Energy error            =      1.7E-05 Ry
     Gradient error          =      1.4E-03 Ry/Bohr

     number of scf cycles    =  33
     number of bfgs steps    =  32

     energy             old  =  -22331.0418144267 Ry
     energy             new  =  -22331.0418310570 Ry

     CASE: energy            _new < energy            _old

     new trust radius        =       0.0183774398 bohr
     new conv_thr            =       0.0000000166 Ry


ATOMIC_POSITIONS (angstrom)
Zn              -1.0735560000        1.0841420000        1.1977640000    0   0   0
Zn              -2.3094850000        6.1646920000        1.1977640000    0   0   0
Zn              -4.2162645676        0.3182922619        4.3638727827
Zn              -5.4491985008        5.4015062097        4.3675918718
Zn              -8.1524724928       -0.6511374118        5.8241713354
Zn              -9.3790361031        4.4312620327        5.7810676059
Zn              -1.6915200000        3.6244170000        1.1977640000    0   0   0
Zn              -2.9274500000        8.7049670000        1.1977640000    0   0   0
Zn              -4.8304423752        2.8592954800        4.3687995061
Zn              -6.0673297726        7.9444839457        4.3635165825
Zn              -8.7733936256        1.8918893499        5.8230240746
Zn             -10.0065272449        6.9676368519        5.8195257684
Zn               4.4565960000        1.0841420000        1.1977640000    0   0   0
Zn               3.2206660000        6.1646920000        1.1977640000    0   0   0
Zn               0.4324824445        0.1061252849        3.4657986292
Zn              -0.8052927213        5.1872316412        3.4566161982
Zn              -2.0612475694       -0.4937351656        5.6801377413
Zn              -3.2990713879        4.5856459816        5.6826570795
Zn               3.8386310000        3.6244170000        1.1977640000    0   0   0
Zn               2.6027020000        8.7049670000        1.1977640000    0   0   0
Zn              -0.1877328654        2.6431952436        3.4541053641
Zn              -1.4231503096        7.7263591611        3.4658853890
Zn              -2.6807902475        2.0440315457        5.6837241381
Zn              -3.9166393672        7.1263143039        5.6816932557
Zn               1.6915200000        0.4114910000        0.8555450000    0   0   0
Zn               0.4555910000        5.4920410000        0.8555450000    0   0   0
Zn              -2.2309198343       -0.5387411381        2.8761190040
Zn              -3.4631837977        4.5404811276        2.8776603211
Zn              -6.0421105956       -1.4730875350        4.4129030033
Zn              -7.2698218971        3.6071122111        4.3949352019
Zn               1.0735560000        2.9517660000        0.8555450000    0   0   0
Zn              -0.1623740000        8.0323160000        0.8555450000    0   0   0
Zn              -2.8494063651        2.0001478883        2.8749385142
Zn              -4.0816082213        7.0819388116        2.8762696233
Zn              -6.6601724100        1.0665805917        4.4140313215
Zn              -7.8914900920        6.1532046100        4.3967703463
Zn               7.2216720000        0.4114910000        0.8555450000    0   0   0
Zn               5.9857420000        5.4920410000        0.8555450000    0   0   0
Zn               3.0169510488       -0.6121772331        2.9215571311
Zn               1.7842680347        4.4689986920        2.9127182022
Zn               0.4252515158       -1.2306469623        5.8198929859
Zn              -0.8146366733        3.8493946164        5.7880662904
Zn               6.6037070000        2.9517660000        0.8555450000    0   0   0
Zn               5.3677780000        8.0323160000        0.8555450000    0   0   0
Zn               2.3967334324        1.9254849476        2.9230192525
Zn               1.1615248436        7.0093435016        2.9211257044
Zn              -0.1934269249        1.3157524711        5.8203630474
Zn              -1.4246161945        6.3873929232        5.8188592136
C              -10.5748327872        4.8884075040       14.5235674174
C              -10.4935791638        4.7563926438       13.1081101645
C              -10.7785101844        5.8504515578       12.2668835945
C              -10.1248314499        3.5287292800       12.5226565800
C              -10.7068477969        5.7187357356       10.8890152598
C              -10.0567783654        3.3958355779       11.1446208728
C              -10.3512140133        4.4866435585       10.2986120818
N              -10.6468399505        4.9961344360       15.6846730054
N              -10.2533802681        4.3657949831        8.9319219273
H              -10.2405828193        3.4390426512        8.5178510584
H              -10.6903344790        5.0674602758        8.3395566307
H               -9.9006730701        2.6762027775       13.1639514150
H              -11.0592461651        6.8065273263       12.7094276048
H               -9.7683137173        2.4394250860       10.7046733448
H              -10.9318690374        6.5731200626       10.2484857338



     Writing config-only to output data dir ./tmp/02_Zn101_ABN_topsite_upright.save/ :
     XML data file
     NEW-OLD atomic charge density approx. for the potential

     negative rho (up, down):  3.750E-03 0.000E+00

     total cpu time spent up to now is    48441.4 secs

     Self-consistent Calculation

     iteration #  1     ecut=    40.00 Ry     beta= 0.40
     Davidson diagonalization with overlap

---- Real-time Memory Report at c_bands before calling an iterative solver
           784 MiB given to the printing process from OS
             0 MiB allocation reported by mallinfo(arena+hblkhd)
        203681 MiB available memory on the node where the printing process lives
------------------
