--------------------------------------------------------------------------
By default, for Open MPI 4.0 and later, infiniband ports on a device
are not used by default.  The intent is to use UCX for these devices.
You can override this policy by setting the btl_openib_allow_ib MCA parameter
to true.

  Local host:              psid08
  Local adapter:           mlx4_0
  Local port:              1

--------------------------------------------------------------------------
--------------------------------------------------------------------------
WARNING: There was an error initializing an OpenFabrics device.

  Local host:   psid08
  Local device: mlx4_0
--------------------------------------------------------------------------

     Program PWSCF v.7.3.1 starts on 24Mar2025 at 19:11:32 

     This program is part of the open-source Quantum ESPRESSO suite
     for quantum simulation of materials; please cite
         "P. Giannozzi et al., J. Phys.:Condens. Matter 21 395502 (2009);
         "P. Giannozzi et al., J. Phys.:Condens. Matter 29 465901 (2017);
         "P. Giannozzi et al., J. Chem. Phys. 152 154105 (2020);
          URL http://www.quantum-espresso.org", 
     in publications or presentations arising from this work. More details at
     http://www.quantum-espresso.org/quote

     Parallel version (MPI), running on     5 processors

     MPI processes distributed on     1 nodes
     184934 MiB available memory on the printing compute node when the environment starts

     Waiting for input...
     Reading input from standard input

     Current dimensions of program PWSCF are:
     Max number of different atomic species (ntypx) = 10
     Max number of k-points (npk) =  40000
     Max angular momentum in pseudopotentials (lmaxx) =  4
     Message from routine input:
     WARNING: "startingwfc" set to atomic+random may spoil restart
     Message from routine input:
     WARNING: "startingpot" set to atomic may spoil restart
     file O.pbe-n-kjpaw_psl.0.1.UPF: wavefunction(s)  2P renormalized

     gamma-point specific algorithms are used

     R & G space division:  proc/nbgrp/npool/nimage =       5
     Subspace diagonalization in iterative solution of the eigenvalue problem:
     a serial algorithm will be used


     Parallelization info
     --------------------
     sticks:   dense  smooth     PW     G-vecs:    dense   smooth      PW
     Min        1534    1534    382               101174   101174   12614
     Max        1539    1539    386               101180   101180   12618
     Sum        7685    7685   1917               505887   505887   63077

     Using Slab Decomposition



     bravais-lattice index     =            1
     lattice parameter (alat)  =      28.3459  a.u.
     unit-cell volume          =   22775.6289 (a.u.)^3
     number of atoms/cell      =            3
     number of atomic types    =            2
     number of electrons       =         8.00
     number of Kohn-Sham states=            8
     kinetic-energy cutoff     =      30.0000  Ry
     charge density cutoff     =     120.0000  Ry
     scf convergence threshold =      1.0E-08
     mixing beta               =       0.7000
     number of iterations used =            8  plain     mixing
     Exchange-correlation= PBE
                           (   1   4   3   4   0   0   0)

     celldm(1)=  28.345892  celldm(2)=   0.000000  celldm(3)=   0.000000
     celldm(4)=   0.000000  celldm(5)=   0.000000  celldm(6)=   0.000000

     crystal axes: (cart. coord. in units of alat)
               a(1) = (   1.000000   0.000000   0.000000 )  
               a(2) = (   0.000000   1.000000   0.000000 )  
               a(3) = (   0.000000   0.000000   1.000000 )  

     reciprocal axes: (cart. coord. in units 2 pi/alat)
               b(1) = (  1.000000  0.000000  0.000000 )  
               b(2) = (  0.000000  1.000000  0.000000 )  
               b(3) = (  0.000000  0.000000  1.000000 )  


     PseudoPot. # 1 for O  read from file:
     /home/ys/qepseudo/SSSP_1.3.0_PBE_efficiency/O.pbe-n-kjpaw_psl.0.1.UPF
     MD5 check sum: 0234752ac141de4415c5fc33072bef88
     Pseudo is Projector augmented-wave + core cor, Zval =  6.0
     Generated using "atomic" code by A. Dal Corso  v.5.0.99 svn rev. 10869
     Shape of augmentation charge: BESSEL
     Using radial grid of 1095 points,  4 beta functions with: 
                l(1) =   0
                l(2) =   0
                l(3) =   1
                l(4) =   1
     Q(r) pseudized with 0 coefficients 


     PseudoPot. # 2 for H  read from file:
     /home/ys/qepseudo/SSSP_1.3.0_PBE_efficiency/H.pbe-rrkjus_psl.1.0.0.UPF
     MD5 check sum: f52b6d4d1c606e5624b1dc7b2218f220
     Pseudo is Ultrasoft, Zval =  1.0
     Generated using "atomic" code by A. Dal Corso  v.5.1
     Using radial grid of  929 points,  2 beta functions with: 
                l(1) =   0
                l(2) =   0
     Q(r) pseudized with 0 coefficients 


     atomic species   valence    mass     pseudopotential
     O                 6.00    15.99940     O ( 1.00)
     H                 1.00     1.00794     H ( 1.00)

     No symmetry found


                                    s                        frac. trans.

      isym =  1     identity                                     

 cryst.   s( 1) = (     1          0          0      )
                  (     0          1          0      )
                  (     0          0          1      )

 cart.    s( 1) = (  1.0000000  0.0000000  0.0000000 )
                  (  0.0000000  1.0000000  0.0000000 )
                  (  0.0000000  0.0000000  1.0000000 )


     point group C_1 (1)    
     there are  1 classes
     the character table:

       E    
A      1.00

     the symmetry operations in each class and the name of the first element:

     E        1
          identity                                               

   Cartesian axes

     site n.     atom                  positions (alat units)
         1        O      tau(   1) = (   0.0283125   0.0668051   0.0785141  )
         2        H      tau(   2) = (   0.0934685   0.0652319   0.0757163  )
         3        H      tau(   3) = (   0.0096317   0.0360100   0.0241184  )

   Crystallographic axes

     site n.     atom                  positions (cryst. coord.)
         1        O      tau(   1) = (  0.0283125  0.0668051  0.0785141  )
         2        H      tau(   2) = (  0.0934685  0.0652319  0.0757163  )
         3        H      tau(   3) = (  0.0096317  0.0360100  0.0241184  )

     number of k points=     1  Marzari-Vanderbilt smearing, width (Ry)=  0.0200
                       cart. coord. in units 2pi/alat
        k(    1) = (   0.0000000   0.0000000   0.0000000), wk =   2.0000000

                       cryst. coord.
        k(    1) = (   0.0000000   0.0000000   0.0000000), wk =   2.0000000

     Dense  grid:   252944 G-vectors     FFT dimensions: ( 100, 100, 100)

     Dynamical RAM for                 wfc:       0.77 MB

     Dynamical RAM for     wfc (w. buffer):       0.77 MB

     Dynamical RAM for           str. fact:       1.54 MB

     Dynamical RAM for           local pot:       0.00 MB

     Dynamical RAM for          nlocal pot:       1.16 MB

     Dynamical RAM for                qrad:       0.50 MB

     Dynamical RAM for          rho,v,vnew:       6.89 MB

     Dynamical RAM for               rhoin:       2.30 MB

     Dynamical RAM for            rho*nmix:      12.35 MB

     Dynamical RAM for           G-vectors:       3.28 MB

     Dynamical RAM for          h,s,v(r/c):       0.01 MB

     Dynamical RAM for          <psi|beta>:       0.00 MB

     Dynamical RAM for                 psi:       1.54 MB

     Dynamical RAM for                hpsi:       1.54 MB

     Dynamical RAM for                spsi:       1.54 MB

     Dynamical RAM for      wfcinit/wfcrot:       1.54 MB

     Dynamical RAM for           addusdens:      34.74 MB

     Dynamical RAM for          addusforce:      36.67 MB

     Dynamical RAM for         addusstress:      38.60 MB

     Estimated static dynamical RAM per process >      26.39 MB

     Estimated max dynamical RAM per process >      77.34 MB

     Estimated total dynamical RAM >     386.70 MB

     Atomic positions and unit cell read from directory:
     ./tmp/H2O.save/


     Check: negative core charge=   -0.000008
     Cannot read rho : file not found

     Initial potential from superposition of free atoms

     starting charge       8.0000, renormalised to       8.0000

     negative rho (up, down):  2.477E-02 0.000E+00
     Starting wfcs are    6 randomized atomic wfcs +    2 random wfcs
     Checking if some PAW data can be deallocated... 
       PAW data deallocated on    3 nodes for type:  1

     total cpu time spent up to now is        0.4 secs

     Self-consistent Calculation

     iteration #  1     ecut=    30.00 Ry     beta= 0.70
     Davidson diagonalization with overlap

---- Real-time Memory Report at c_bands before calling an iterative solver
            83 MiB given to the printing process from OS
             0 MiB allocation reported by mallinfo(arena+hblkhd)
        184735 MiB available memory on the node where the printing process lives
------------------
     c_bands:  3 eigenvalues not converged
     ethr =  1.00E-05,  avg # of iterations = 20.0

     negative rho (up, down):  3.428E-02 0.000E+00

     total cpu time spent up to now is        1.1 secs

     total energy              =     -43.80635530 Ry
     estimated scf accuracy    <       0.39967107 Ry

     iteration #  2     ecut=    30.00 Ry     beta= 0.70
     Davidson diagonalization with overlap

---- Real-time Memory Report at c_bands before calling an iterative solver
            89 MiB given to the printing process from OS
             0 MiB allocation reported by mallinfo(arena+hblkhd)
        184558 MiB available memory on the node where the printing process lives
------------------
     ethr =  5.00E-03,  avg # of iterations =  2.0

     negative rho (up, down):  3.400E-02 0.000E+00

     total cpu time spent up to now is        1.4 secs

     total energy              =     -43.89669980 Ry
     estimated scf accuracy    <       0.36475733 Ry

     iteration #  3     ecut=    30.00 Ry     beta= 0.70
     Davidson diagonalization with overlap

---- Real-time Memory Report at c_bands before calling an iterative solver
            90 MiB given to the printing process from OS
             0 MiB allocation reported by mallinfo(arena+hblkhd)
        184552 MiB available memory on the node where the printing process lives
------------------
     ethr =  4.56E-03,  avg # of iterations =  2.0

     negative rho (up, down):  3.827E-02 0.000E+00

     total cpu time spent up to now is        1.7 secs

     total energy              =     -43.96862618 Ry
     estimated scf accuracy    <       0.00398202 Ry

     iteration #  4     ecut=    30.00 Ry     beta= 0.70
     Davidson diagonalization with overlap

---- Real-time Memory Report at c_bands before calling an iterative solver
            92 MiB given to the printing process from OS
             0 MiB allocation reported by mallinfo(arena+hblkhd)
        184544 MiB available memory on the node where the printing process lives
------------------
     ethr =  4.98E-05,  avg # of iterations =  7.0

     negative rho (up, down):  3.753E-02 0.000E+00

     total cpu time spent up to now is        2.1 secs

     total energy              =     -43.96937881 Ry
     estimated scf accuracy    <       0.00091807 Ry

     iteration #  5     ecut=    30.00 Ry     beta= 0.70
     Davidson diagonalization with overlap

---- Real-time Memory Report at c_bands before calling an iterative solver
            93 MiB given to the printing process from OS
             0 MiB allocation reported by mallinfo(arena+hblkhd)
        184536 MiB available memory on the node where the printing process lives
------------------
     ethr =  1.15E-05,  avg # of iterations = 17.0

     negative rho (up, down):  3.741E-02 0.000E+00

     total cpu time spent up to now is        2.5 secs

     total energy              =     -43.96934547 Ry
     estimated scf accuracy    <       0.00016366 Ry

     iteration #  6     ecut=    30.00 Ry     beta= 0.70
     Davidson diagonalization with overlap

---- Real-time Memory Report at c_bands before calling an iterative solver
            95 MiB given to the printing process from OS
             0 MiB allocation reported by mallinfo(arena+hblkhd)
        184530 MiB available memory on the node where the printing process lives
------------------
     ethr =  2.05E-06,  avg # of iterations = 18.0

     negative rho (up, down):  3.735E-02 0.000E+00

     total cpu time spent up to now is        3.0 secs

     total energy              =     -43.96936995 Ry
     estimated scf accuracy    <       0.00000574 Ry

     iteration #  7     ecut=    30.00 Ry     beta= 0.70
     Davidson diagonalization with overlap

---- Real-time Memory Report at c_bands before calling an iterative solver
            97 MiB given to the printing process from OS
             0 MiB allocation reported by mallinfo(arena+hblkhd)
        184522 MiB available memory on the node where the printing process lives
------------------
     ethr =  7.18E-08,  avg # of iterations =  2.0

     negative rho (up, down):  3.737E-02 0.000E+00

     total cpu time spent up to now is        3.3 secs

     total energy              =     -43.96937105 Ry
     estimated scf accuracy    <       0.00000057 Ry

     iteration #  8     ecut=    30.00 Ry     beta= 0.70
     Davidson diagonalization with overlap

---- Real-time Memory Report at c_bands before calling an iterative solver
            98 MiB given to the printing process from OS
             0 MiB allocation reported by mallinfo(arena+hblkhd)
        184515 MiB available memory on the node where the printing process lives
------------------
     ethr =  7.11E-09,  avg # of iterations =  2.0

     negative rho (up, down):  3.738E-02 0.000E+00

     total cpu time spent up to now is        3.6 secs

     total energy              =     -43.96937085 Ry
     estimated scf accuracy    <       0.00000053 Ry

     iteration #  9     ecut=    30.00 Ry     beta= 0.70
     Davidson diagonalization with overlap

---- Real-time Memory Report at c_bands before calling an iterative solver
           100 MiB given to the printing process from OS
             0 MiB allocation reported by mallinfo(arena+hblkhd)
        184509 MiB available memory on the node where the printing process lives
------------------
     ethr =  6.65E-09,  avg # of iterations =  2.0

     negative rho (up, down):  3.738E-02 0.000E+00

     total cpu time spent up to now is        4.0 secs

     total energy              =     -43.96937091 Ry
     estimated scf accuracy    <       0.00000004 Ry

     iteration # 10     ecut=    30.00 Ry     beta= 0.70
     Davidson diagonalization with overlap

---- Real-time Memory Report at c_bands before calling an iterative solver
           101 MiB given to the printing process from OS
             0 MiB allocation reported by mallinfo(arena+hblkhd)
        184500 MiB available memory on the node where the printing process lives
------------------
     ethr =  4.52E-10,  avg # of iterations =  3.0

     negative rho (up, down):  3.738E-02 0.000E+00

     total cpu time spent up to now is        4.3 secs

     End of self-consistent calculation

          k = 0.0000 0.0000 0.0000 ( 31539 PWs)   bands (ev):

   -25.3371 -12.9757  -9.3293  -7.1947  -1.4306  -0.7901  -0.5202  -0.4253

     occupation numbers 
     1.0000   1.0000   1.0000   1.0000   0.0000   0.0000   0.0000   0.0000

     the Fermi energy is    -5.2927 ev

!    total energy              =     -43.96937091 Ry
     estimated scf accuracy    <          6.4E-09 Ry
     smearing contrib. (-TS)   =       0.00000000 Ry
     internal energy E=F+TS    =     -43.96937091 Ry

     The total energy is F=E-TS. E is the sum of the following terms:
     one-electron contribution =     -68.94362631 Ry
     hartree contribution      =      36.02593215 Ry
     xc contribution           =      -8.80258615 Ry
     ewald contribution        =       7.26861974 Ry
     one-center paw contrib.   =      -9.51771033 Ry
      -> PAW hartree energy AE =      31.35541001 Ry
      -> PAW hartree energy PS =     -31.24694262 Ry
      -> PAW xc energy AE      =     -17.43323799 Ry
      -> PAW xc energy PS      =       7.80706027 Ry
      -> total E_H with PAW    =      36.13439953 Ry
      -> total E_XC with PAW   =     -18.42876387 Ry

     convergence has been achieved in  10 iterations

     negative rho (up, down):  3.738E-02 0.000E+00

     Forces acting on atoms (cartesian axes, Ry/au):

     atom    1 type  1   force =     0.00000231    0.00000746    0.00019040
     atom    2 type  2   force =     0.00000085   -0.00000632    0.00002616
     atom    3 type  2   force =    -0.00000316   -0.00000114   -0.00021656
     The non-local contrib.  to forces
     atom    1 type  1   force =     1.42722936   -0.99385783   -1.75605229
     atom    2 type  2   force =    -0.10951158    0.00065331    0.00121620
     atom    3 type  2   force =     0.03516208    0.05114760    0.09018004
     The ionic contribution  to forces
     atom    1 type  1   force =    -2.49745764    1.73896694    3.07264666
     atom    2 type  2   force =     3.69290860   -0.01765108   -0.03225516
     atom    3 type  2   force =    -1.19545095   -1.72131586   -3.04039150
     The local contribution  to forces
     atom    1 type  1   force =     1.08470226   -0.75523453   -1.33434528
     atom    2 type  2   force =    -3.58325779    0.01690366    0.03089423
     atom    3 type  2   force =     1.16040179    1.67007125    2.94980957
     The core correction contribution to forces
     atom    1 type  1   force =    -0.01428450    0.01000600    0.01769841
     atom    2 type  2   force =     0.00000000    0.00000000    0.00000000
     atom    3 type  2   force =     0.00000000    0.00000000    0.00000000
     The Hubbard contrib.    to forces
     atom    1 type  1   force =     0.00000000    0.00000000    0.00000000
     atom    2 type  2   force =     0.00000000    0.00000000    0.00000000
     atom    3 type  2   force =     0.00000000    0.00000000    0.00000000
     The SCF correction term to forces
     atom    1 type  1   force =    -0.00007069    0.00004233    0.00007824
     atom    2 type  2   force =    -0.00002189    0.00000325    0.00000622
     atom    3 type  2   force =     0.00000040    0.00001133    0.00002067

     Total force =     0.000290     Total SCF correction =     0.000118
     SCF correction compared to forces is large: reduce conv_thr to get better values


     Computing stress (Cartesian axis) and pressure


     negative rho (up, down):  3.738E-02 0.000E+00
[psid08:243421] 4 more processes have sent help message help-mpi-btl-openib.txt / ib port not selected
[psid08:243421] Set MCA parameter "orte_base_help_aggregate" to 0 to see all help / error messages
[psid08:243421] 4 more processes have sent help message help-mpi-btl-openib.txt / error in device init
          total   stress  (Ry/bohr**3)                   (kbar)     P=       -2.30
  -0.00001493   0.00000017   0.00000030           -2.20        0.02        0.04
   0.00000017  -0.00001641   0.00000070            0.02       -2.41        0.10
   0.00000030   0.00000070  -0.00001557            0.04        0.10       -2.29

     kinetic stress (kbar)     76.40     -1.80     -3.17
                               -1.80     89.06     -5.71
                               -3.17     -5.71     82.21

     local   stress (kbar)   -187.88     -4.89     -8.64
                               -4.89   -155.42    -14.28
                               -8.64    -14.28   -172.67

     nonloc. stress (kbar)     11.56      0.05      0.08
                                0.05     11.85     -0.20
                                0.08     -0.20     11.61

     hartree stress (kbar)     80.92      0.98      1.73
                                0.98     74.03      3.07
                                1.73      3.07     77.74

     exc-cor stress (kbar)    -14.98      0.02      0.04
                                0.02    -15.14      0.07
                                0.04      0.07    -15.05

     corecor stress (kbar)     -2.68      0.00      0.00
                                0.00     -2.70      0.01
                                0.00      0.01     -2.69

     ewald   stress (kbar)     34.47      5.67     10.00
                                5.67     -4.08     17.14
                               10.00     17.14     16.56

     hubbard stress (kbar)      0.00      0.00      0.00
                                0.00      0.00      0.00
                                0.00      0.00      0.00

     DFT-D   stress (kbar)      0.00      0.00      0.00
                                0.00      0.00      0.00
                                0.00      0.00      0.00

     XDM     stress (kbar)      0.00      0.00      0.00
                                0.00      0.00      0.00
                                0.00      0.00      0.00

     dft-nl  stress (kbar)      0.00      0.00      0.00
                                0.00      0.00      0.00
                                0.00      0.00      0.00

     TS-vdW  stress (kbar)      0.00      0.00      0.00
                                0.00      0.00      0.00
                                0.00      0.00      0.00

     MDB     stress (kbar)      0.00      0.00      0.00
                                0.00      0.00      0.00
                                0.00      0.00      0.00

     3D-RISM stress (kbar)      0.00      0.00      0.00
                                0.00      0.00      0.00
                                0.00      0.00      0.00


     Writing all to output data dir ./tmp/H2O.save/ :
     XML data file, charge density, pseudopotentials, collected wavefunctions

     init_run     :      0.33s CPU      0.37s WALL (       1 calls)
     electrons    :      3.69s CPU      3.85s WALL (       1 calls)
     forces       :      0.22s CPU      0.23s WALL (       1 calls)
     stress       :      0.47s CPU      0.47s WALL (       1 calls)

     Called by init_run:
     wfcinit      :      0.03s CPU      0.03s WALL (       1 calls)
     wfcinit:atom :      0.00s CPU      0.00s WALL (       1 calls)
     wfcinit:wfcr :      0.02s CPU      0.03s WALL (       1 calls)
     potinit      :      0.14s CPU      0.16s WALL (       1 calls)
     hinit0       :      0.07s CPU      0.08s WALL (       1 calls)

     Called by electrons:
     c_bands      :      1.25s CPU      1.33s WALL (      10 calls)
     sum_band     :      0.60s CPU      0.62s WALL (      10 calls)
     v_of_rho     :      1.24s CPU      1.28s WALL (      11 calls)
     v_h          :      0.08s CPU      0.08s WALL (      11 calls)
     v_xc         :      1.38s CPU      1.42s WALL (      13 calls)
     newd         :      0.42s CPU      0.44s WALL (      11 calls)
     PAW_pot      :      0.21s CPU      0.21s WALL (      11 calls)
     mix_rho      :      0.11s CPU      0.11s WALL (      10 calls)

     Called by c_bands:
     init_us_2    :      0.02s CPU      0.02s WALL (      21 calls)
     regterg      :      1.23s CPU      1.27s WALL (      10 calls)

     Called by sum_band:
     sum_band:wei :      0.00s CPU      0.00s WALL (      10 calls)
     sum_band:loo :      0.13s CPU      0.14s WALL (      10 calls)
     sum_band:buf :      0.00s CPU      0.00s WALL (      10 calls)
     sum_band:ini :      0.01s CPU      0.01s WALL (      10 calls)
     sum_band:cal :      0.01s CPU      0.01s WALL (      10 calls)
     sum_band:bec :      0.00s CPU      0.00s WALL (      10 calls)
     addusdens    :      0.35s CPU      0.36s WALL (      10 calls)
                                        0.00s GPU  (      10 calls)
     addusd:skk   :      0.00s CPU      0.00s WALL (      20 calls)
                                        0.00s GPU  (      20 calls)

     Called by *egterg:
     rdiaghg      :      0.01s CPU      0.01s WALL (      85 calls)
     regterg:over :      0.09s CPU      0.09s WALL (      75 calls)
     regterg:upda :      0.02s CPU      0.02s WALL (      75 calls)
     regterg:last :      0.05s CPU      0.06s WALL (      35 calls)
     h_psi        :      1.03s CPU      1.07s WALL (      86 calls)
     s_psi        :      0.02s CPU      0.02s WALL (      86 calls)
     g_psi        :      0.00s CPU      0.00s WALL (      75 calls)

     Called by h_psi:
     h_psi:calbec :      0.05s CPU      0.05s WALL (      86 calls)
     vloc_psi     :      0.96s CPU      1.00s WALL (      86 calls)
     add_vuspsi   :      0.02s CPU      0.02s WALL (      86 calls)

     General routines
     calbec       :      0.07s CPU      0.07s WALL (     101 calls)
     fft          :      0.56s CPU      0.61s WALL (     119 calls)
     ffts         :      0.05s CPU      0.05s WALL (      10 calls)
     fftw         :      0.95s CPU      0.99s WALL (     410 calls)

     Parallel routines

     PAW routines
     PAW_pot      :      0.21s CPU      0.21s WALL (      11 calls)

     PWSCF        :      4.77s CPU      5.03s WALL


   This run was terminated on:  19:11:37  24Mar2025            

=------------------------------------------------------------------------------=
   JOB DONE.
=------------------------------------------------------------------------------=
