--------------------------------------------------------------------------
WARNING: There was an error initializing an OpenFabrics device.

  Local host:   ga01
  Local device: mlx5_0
--------------------------------------------------------------------------
--------------------------------------------------------------------------
WARNING: There is at least one non-excluded one OpenFabrics device found,
but there are no active ports detected (or Open MPI was unable to use
them).  This is most certainly not what you wanted.  Check your
cables, subnet manager configuration, etc.  The openib BTL will be
ignored for this job.

  Local host: ga01
--------------------------------------------------------------------------

     Program PWSCF v.7.3.1 starts on 16Apr2025 at 15: 0: 8 

     This program is part of the open-source Quantum ESPRESSO suite
     for quantum simulation of materials; please cite
         "P. Giannozzi et al., J. Phys.:Condens. Matter 21 395502 (2009);
         "P. Giannozzi et al., J. Phys.:Condens. Matter 29 465901 (2017);
         "P. Giannozzi et al., J. Chem. Phys. 152 154105 (2020);
          URL http://www.quantum-espresso.org", 
     in publications or presentations arising from this work. More details at
     http://www.quantum-espresso.org/quote

     Parallel version (MPI), running on    31 processors

     MPI processes distributed on     1 nodes
     160471 MiB available memory on the printing compute node when the environment starts

     Waiting for input...
     Reading input from standard input
Warning: card &CELL ignored
Warning: card   CELL_DOFREE = 'ALL' ignored
Warning: card / ignored

     Current dimensions of program PWSCF are:
     Max number of different atomic species (ntypx) = 10
     Max number of k-points (npk) =  40000
     Max angular momentum in pseudopotentials (lmaxx) =  4
     file C.pbe-n-kjpaw_psl.1.0.0.UPF: wavefunction(s)  2S 2P renormalized

     R & G space division:  proc/nbgrp/npool/nimage =      31
     Subspace diagonalization in iterative solution of the eigenvalue problem:
     one sub-group per band group will be used
     custom distributed-memory algorithm (size of sub-group:  5*  5 procs)


     Parallelization info
     --------------------
     sticks:   dense  smooth     PW     G-vecs:    dense   smooth      PW
     Min         288     164     45                42996    18570    2694
     Max         289     165     46                43005    18578    2699
     Sum        8941    5109   1411              1332973   575857   83601

     Using Slab Decomposition



     bravais-lattice index     =            0
     lattice parameter (alat)  =      20.9009  a.u.
     unit-cell volume          =   16846.7507 (a.u.)^3
     number of atoms/cell      =           62
     number of atomic types    =            4
     number of electrons       =       996.00
     number of Kohn-Sham states=          598
     kinetic-energy cutoff     =      40.0000  Ry
     charge density cutoff     =     280.0000  Ry
     scf convergence threshold =      1.0E-05
     mixing beta               =       0.4000
     number of iterations used =            8  plain     mixing
     energy convergence thresh.=      5.0E-05
     force convergence thresh. =      1.0E-03
     Exchange-correlation= PBE
                           (   1   4   3   4   0   0   0)
     nstep                     =          300


     celldm(1)=  20.900943  celldm(2)=   0.000000  celldm(3)=   0.000000
     celldm(4)=   0.000000  celldm(5)=   0.000000  celldm(6)=   0.000000

     crystal axes: (cart. coord. in units of alat)
               a(1) = (   1.000000   0.000000   0.000000 )  
               a(2) = (  -0.223489   0.918700   0.000000 )  
               a(3) = (  -4.200249  -1.021781   2.008375 )  

     reciprocal axes: (cart. coord. in units 2 pi/alat)
               b(1) = (  1.000000  0.243267  2.215131 )  
               b(2) = ( -0.000000  1.088495  0.553783 )  
               b(3) = (  0.000000 -0.000000  0.497915 )  


     PseudoPot. # 1 for Zn read from file:
     /home/yongsang/Research/PSID_server_room/qe/[00]QE/qepseudo/SSSP_1.3.0_PBE_efficiency/Zn_pbe_v1.uspp.F.UPF
     MD5 check sum: df62231357ef9e81f77b2b3087fa5675
     Pseudo is Ultrasoft, Zval = 20.0
     Generated by new atomic code, or converted to UPF format
     Using radial grid of  943 points,  6 beta functions with: 
                l(1) =   0
                l(2) =   0
                l(3) =   1
                l(4) =   1
                l(5) =   2
                l(6) =   2
     Q(r) pseudized with  8 coefficients,  rinner =    1.100   1.100   1.100
                                                       1.100   1.100

     PseudoPot. # 2 for N  read from file:
     /home/yongsang/Research/PSID_server_room/qe/[00]QE/qepseudo/SSSP_1.3.0_PBE_efficiency/N.pbe-n-radius_5.UPF
     MD5 check sum: 16739722b17309cd8fe442a2ace49922
     Pseudo is Ultrasoft + core correction, Zval =  5.0
     Generated using "atomic" code by A. Dal Corso  v.5.1
     Using radial grid of 1085 points,  4 beta functions with: 
                l(1) =   0
                l(2) =   0
                l(3) =   1
                l(4) =   1
     Q(r) pseudized with 0 coefficients 


     PseudoPot. # 3 for C  read from file:
     /home/yongsang/Research/PSID_server_room/qe/[00]QE/qepseudo/SSSP_1.3.0_PBE_efficiency/C.pbe-n-kjpaw_psl.1.0.0.UPF
     MD5 check sum: 5d2aebdfa2cae82b50a7e79e9516da0f
     Pseudo is Projector augmented-wave + core cor, Zval =  4.0
     Generated using "atomic" code by A. Dal Corso  v.5.1
     Shape of augmentation charge: PSQ
     Using radial grid of 1073 points,  4 beta functions with: 
                l(1) =   0
                l(2) =   0
                l(3) =   1
                l(4) =   1
     Q(r) pseudized with 0 coefficients 


     PseudoPot. # 4 for H  read from file:
     /home/yongsang/Research/PSID_server_room/qe/[00]QE/qepseudo/SSSP_1.3.0_PBE_efficiency/H.pbe-rrkjus_psl.1.0.0.UPF
     MD5 check sum: f52b6d4d1c606e5624b1dc7b2218f220
     Pseudo is Ultrasoft, Zval =  1.0
     Generated using "atomic" code by A. Dal Corso  v.5.1
     Using radial grid of  929 points,  2 beta functions with: 
                l(1) =   0
                l(2) =   0
     Q(r) pseudized with 0 coefficients 


     atomic species   valence    mass     pseudopotential
     Zn               20.00    65.38000     Zn( 1.00)
     N                 5.00    14.00674     N ( 1.00)
     C                 4.00    12.01070     C ( 1.00)
     H                 1.00     1.00794     H ( 1.00)

     No symmetry found


                                    s                        frac. trans.

      isym =  1     identity                                     

 cryst.   s( 1) = (     1          0          0      )
                  (     0          1          0      )
                  (     0          0          1      )

 cart.    s( 1) = (  1.0000000  0.0000000  0.0000000 )
                  (  0.0000000  1.0000000  0.0000000 )
                  (  0.0000000  0.0000000  1.0000000 )


   Cartesian axes

     site n.     atom                  positions (alat units)
         1        Zn     tau(   1) = (  -0.0970639   0.0980210   0.1082940  )
         2        Zn     tau(   2) = (  -0.2088085   0.5573710   0.1082940  )
         3        Zn     tau(   3) = (  -0.4390534   0.0150166   0.3500990  )
         4        Zn     tau(   4) = (  -0.5520818   0.4732227   0.3489135  )
         5        Zn     tau(   5) = (  -0.8150303  -0.0778340   0.5191158  )
         6        Zn     tau(   6) = (  -0.9278163   0.3831546   0.5190419  )
         7        Zn     tau(   7) = (  -0.1529361   0.3276960   0.1082940  )
         8        Zn     tau(   8) = (  -0.2646808   0.7870460   0.1082940  )
         9        Zn     tau(   9) = (  -0.4958897   0.2440467   0.3504621  )
        10        Zn     tau(  10) = (  -0.6070556   0.7035926   0.3489775  )
        11        Zn     tau(  11) = (  -0.8728007   0.1523194   0.5297502  )
        12        Zn     tau(  12) = (  -0.9830798   0.6120236   0.5190547  )
        13        Zn     tau(  13) = (   0.4029362   0.0980210   0.1082940  )
        14        Zn     tau(  14) = (   0.2911915   0.5573710   0.1082940  )
        15        Zn     tau(  15) = (   0.0517510   0.0129124   0.3116201  )
        16        Zn     tau(  16) = (  -0.0609011   0.4711244   0.3073638  )
        17        Zn     tau(  17) = (  -0.2810142  -0.0689496   0.5208741  )
        18        Zn     tau(  18) = (  -0.3932520   0.3912184   0.5207529  )
        19        Zn     tau(  19) = (   0.3470638   0.3276960   0.1082940  )
        20        Zn     tau(  20) = (   0.2353192   0.7870460   0.1082940  )
        21        Zn     tau(  21) = (  -0.0032556   0.2415169   0.3115021  )
        22        Zn     tau(  22) = (  -0.1176807   0.7012957   0.3073567  )
        23        Zn     tau(  23) = (  -0.3368819   0.1615861   0.5206933  )
        24        Zn     tau(  24) = (  -0.4492518   0.6200382   0.5209171  )
        25        Zn     tau(  25) = (   0.1529361   0.0372043   0.0773528  )
        26        Zn     tau(  26) = (   0.0411915   0.4965543   0.0773528  )
        27        Zn     tau(  27) = (  -0.2126442  -0.0514808   0.2672892  )
        28        Zn     tau(  28) = (  -0.3261441   0.4072142   0.2668767  )
        29        Zn     tau(  29) = (  -0.5898948  -0.1435235   0.4516670  )
        30        Zn     tau(  30) = (  -0.7046845   0.3144312   0.4524378  )
        31        Zn     tau(  31) = (   0.0970639   0.2668793   0.0773528  )
        32        Zn     tau(  32) = (  -0.0146808   0.7262293   0.0773528  )
        33        Zn     tau(  33) = (  -0.2695038   0.1778884   0.2671041  )
        34        Zn     tau(  34) = (  -0.3810926   0.6373599   0.2670424  )
        35        Zn     tau(  35) = (  -0.6485834   0.0857544   0.4519333  )
        36        Zn     tau(  36) = (  -0.7577913   0.5451763   0.4522161  )
        37        Zn     tau(  37) = (   0.6529362   0.0372043   0.0773528  )
        38        Zn     tau(  38) = (   0.5411915   0.4965543   0.0773528  )
        39        Zn     tau(  39) = (   0.2856542  -0.0522460   0.2618999  )
        40        Zn     tau(  40) = (   0.1744510   0.4073483   0.2618804  )
        41        Zn     tau(  41) = (  -0.0576699  -0.1362119   0.4648932  )
        42        Zn     tau(  42) = (  -0.1703846   0.3237862   0.4628100  )
        43        Zn     tau(  43) = (   0.5970639   0.2668793   0.0773528  )
        44        Zn     tau(  44) = (   0.4853193   0.7262293   0.0773528  )
        45        Zn     tau(  45) = (   0.2302300   0.1776590   0.2613193  )
        46        Zn     tau(  46) = (   0.1186960   0.6369531   0.2623729  )
        47        Zn     tau(  47) = (  -0.1147659   0.0935825   0.4634524  )
        48        Zn     tau(  48) = (  -0.2261536   0.5530515   0.4612062  )
        49        C      tau(  49) = (  -0.9151366   0.2544761   1.0126687  )
        50        C      tau(  50) = (  -0.9301976   0.2486687   1.1377534  )
        51        C      tau(  51) = (  -0.8820165   0.1512544   0.9471285  )
        52        C      tau(  52) = (  -0.9139736   0.1404347   1.2002528  )
        53        C      tau(  53) = (  -0.8673271   0.0420039   1.0096559  )
        54        C      tau(  54) = (  -0.8827647   0.0374357   1.1347565  )
        55        N      tau(  55) = (  -0.8648968   0.1568371   0.8207608  )
        56        H      tau(  56) = (  -0.9287284   0.3403426   0.9658073  )
        57        H      tau(  57) = (  -0.8399591   0.2401432   0.7912123  )
        58        H      tau(  58) = (  -0.9542284   0.3301697   1.1873402  )
        59        H      tau(  59) = (  -0.8063730   0.0933907   0.7892747  )
        60        H      tau(  60) = (  -0.9235487   0.1368677   1.2982211  )
        61        H      tau(  61) = (  -0.8432680  -0.0400853   0.9603846  )
        62        H      tau(  62) = (  -0.8692751  -0.0478538   1.1819288  )

     --------------------------------------------
     DFT-D3 Dispersion Correction (3-body terms):
     --------------------------------------------
       Reference C6 values for interpolation: 

         atom   Coordination number   C6
         H          0.912             6.05
         H          0.000            15.18
         C          0.000            98.23
         C          0.987            86.49
         C          1.998            58.72
         C          2.999            51.56
         C          3.984            36.41
         N          0.000            50.54
         N          0.994            44.25
         N          2.014            39.35
         N          2.990            31.16
         Zn         0.000           681.04
         Zn         1.942           306.91

       Values used:

         atom   Coordination number  R0_AB[au]  C6      C8
         Zn         5.851            3.053    306.91  23930.67
         Zn         5.949            3.053    306.91  23930.67
         Zn         6.821            3.053    306.91  23930.67
         Zn         6.822            3.053    306.91  23930.67
         Zn         5.239            3.053    306.91  23930.67
         Zn         5.240            3.053    306.91  23930.67
         Zn         5.887            3.053    306.91  23930.67
         Zn         5.908            3.053    306.91  23930.67
         Zn         6.819            3.053    306.91  23930.67
         Zn         6.837            3.053    306.91  23930.67
         Zn         4.863            3.053    306.91  23930.67
         Zn         5.155            3.053    306.91  23930.67
         Zn         5.259            3.053    306.91  23930.67
         Zn         5.269            3.053    306.91  23930.67
         Zn         7.674            3.053    306.91  23930.67
         Zn         7.814            3.053    306.91  23930.67
         Zn         5.421            3.053    306.91  23930.67
         Zn         5.423            3.053    306.91  23930.67
         Zn         5.272            3.053    306.91  23930.67
         Zn         5.256            3.053    306.91  23930.67
         Zn         7.671            3.053    306.91  23930.67
         Zn         7.817            3.053    306.91  23930.67
         Zn         5.441            3.053    306.91  23930.67
         Zn         5.402            3.053    306.91  23930.67
         Zn         5.635            3.053    306.91  23930.67
         Zn         5.674            3.053    306.91  23930.67
         Zn         7.866            3.053    306.91  23930.67
         Zn         7.912            3.053    306.91  23930.67
         Zn         6.540            3.053    306.91  23930.67
         Zn         6.519            3.053    306.91  23930.67
         Zn         5.638            3.053    306.91  23930.67
         Zn         5.671            3.053    306.91  23930.67
         Zn         7.879            3.053    306.91  23930.67
         Zn         7.901            3.053    306.91  23930.67
         Zn         6.519            3.053    306.91  23930.67
         Zn         6.536            3.053    306.91  23930.67
         Zn         5.081            3.053    306.91  23930.67
         Zn         5.099            3.053    306.91  23930.67
         Zn         8.299            3.053    306.91  23930.67
         Zn         8.313            3.053    306.91  23930.67
         Zn         6.640            3.053    306.91  23930.67
         Zn         6.689            3.053    306.91  23930.67
         Zn         5.092            3.053    306.91  23930.67
         Zn         5.087            3.053    306.91  23930.67
         Zn         8.244            3.053    306.91  23930.67
         Zn         8.283            3.053    306.91  23930.67
         Zn         6.689            3.053    306.91  23930.67
         Zn         6.717            3.053    306.91  23930.67
         C          3.165            2.750     50.41   1457.90
         C          3.137            2.750     50.64   1464.50
         C          3.146            2.750     50.57   1462.47
         C          3.124            2.750     50.73   1467.19
         C          3.165            2.750     50.41   1457.86
         C          3.137            2.750     50.64   1464.51
         N          3.089            2.478     31.24    689.21
         H          1.003            2.062      6.18     74.69
         H          1.010            2.062      6.17     74.61
         H          1.003            2.062      6.18     74.68
         H          1.010            2.062      6.17     74.61
         H          1.003            2.062      6.18     74.69
         H          1.003            2.062      6.18     74.69
         H          1.003            2.062      6.18     74.68

         Molecular C6 ( Ry / a.u.^6 ) =    819936.29


   Crystallographic axes

     site n.     atom                  positions (cryst. coord.)
         1        Zn     tau(   1) = (  0.1666667  0.1666667  0.0539212  )
         2        Zn     tau(   2) = (  0.1666668  0.6666667  0.0539212  )
         3        Zn     tau(   3) = (  0.3401150  0.2102243  0.1743196  )
         4        Zn     tau(   4) = (  0.3359268  0.7083227  0.1737293  )
         5        Zn     tau(   5) = (  0.3159450  0.2027555  0.2584756  )
         6        Zn     tau(   6) = (  0.3151385  0.7044982  0.2584388  )
         7        Zn     tau(   7) = (  0.1666668  0.4166667  0.0539212  )
         8        Zn     tau(   8) = (  0.1666667  0.9166667  0.0539212  )
         9        Zn     tau(   9) = (  0.3397984  0.4597234  0.1745003  )
        10        Zn     tau(  10) = (  0.3371362  0.9591145  0.1737611  )
        11        Zn     tau(  11) = (  0.3377199  0.4591654  0.2637706  )
        12        Zn     tau(  12) = (  0.3155796  0.9536280  0.2584451  )
        13        Zn     tau(  13) = (  0.6666668  0.1666667  0.0539212  )
        14        Zn     tau(  14) = (  0.6666667  0.6666667  0.0539212  )
        15        Zn     tau(  15) = (  0.7451716  0.1866249  0.1551603  )
        16        Zn     tau(  16) = (  0.7345591  0.6830292  0.1530410  )
        17        Zn     tau(  17) = (  0.8560172  0.2133999  0.2593510  )
        18        Zn     tau(  18) = (  0.8554546  0.7142231  0.2592907  )
        19        Zn     tau(  19) = (  0.6666668  0.4166667  0.0539212  )
        20        Zn     tau(  20) = (  0.6666668  0.9166667  0.0539212  )
        21        Zn     tau(  21) = (  0.7455156  0.4353943  0.1551016  )
        22        Zn     tau(  22) = (  0.7337567  0.9335655  0.1530375  )
        23        Zn     tau(  23) = (  0.8558308  0.4642366  0.2592610  )
        24        Zn     tau(  24) = (  0.8554827  0.9633832  0.2593724  )
        25        Zn     tau(  25) = (  0.3333333  0.0833333  0.0385151  )
        26        Zn     tau(  26) = (  0.3333333  0.5833333  0.0385151  )
        27        Zn     tau(  27) = (  0.3669129  0.0919836  0.1330873  )
        28        Zn     tau(  28) = (  0.3640845  0.5910422  0.1328819  )
        29        Zn     tau(  29) = (  0.3756924  0.0939008  0.2248918  )
        30        Zn     tau(  30) = (  0.3740153  0.5928089  0.2252755  )
        31        Zn     tau(  31) = (  0.3333333  0.3333333  0.0385151  )
        32        Zn     tau(  32) = (  0.3333333  0.8333333  0.0385151  )
        33        Zn     tau(  33) = (  0.3654412  0.3415482  0.1329951  )
        34        Zn     tau(  34) = (  0.3654900  0.8416463  0.1329644  )
        35        Zn     tau(  35) = (  0.3733694  0.3436161  0.2250244  )
        36        Zn     tau(  36) = (  0.3765502  0.8438510  0.2251652  )
        37        Zn     tau(  37) = (  0.8333333  0.0833333  0.0385151  )
        38        Zn     tau(  38) = (  0.8333333  0.5833333  0.0385151  )
        39        Zn     tau(  39) = (  0.8530871  0.0881661  0.1304039  )
        40        Zn     tau(  40) = (  0.8536448  0.5884213  0.1303942  )
        41        Zn     tau(  41) = (  0.9389938  0.1091839  0.2314773  )
        42        Zn     tau(  42) = (  0.9335667  0.6087357  0.2304400  )
        43        Zn     tau(  43) = (  0.8333333  0.3333333  0.0385151  )
        44        Zn     tau(  44) = (  0.8333333  0.8333333  0.0385151  )
        45        Zn     tau(  45) = (  0.8523050  0.3380950  0.1301148  )
        46        Zn     tau(  46) = (  0.8548361  0.8386176  0.1306394  )
        47        Zn     tau(  47) = (  0.9346077  0.3585160  0.2307599  )
        48        Zn     tau(  48) = (  0.9300179  0.8574017  0.2296415  )
        49        C      tau(  49) = (  1.3899631  0.8377943  0.5042229  )
        50        C      tau(  50) = (  1.6505685  0.9007428  0.5665045  )
        51        C      tau(  51) = (  1.2527928  0.6891430  0.4715895  )
        52        C      tau(  52) = (  1.7789071  0.8175417  0.5976239  )
        53        C      tau(  53) = (  1.3794116  0.6048510  0.5027228  )
        54        C      tau(  54) = (  1.6399768  0.6691571  0.5650123  )
        55        N      tau(  55) = (  0.9913495  0.6252395  0.4086691  )
        56        H      tau(  56) = (  1.2934557  0.9053086  0.4808899  )
        57        H      tau(  57) = (  0.9710990  0.6995543  0.3939565  )
        58        H      tau(  58) = (  1.7562055  1.0169165  0.5911945  )
        59        H      tau(  59) = (  0.9646930  0.5387420  0.3929917  )
        60        H      tau(  60) = (  1.9854770  0.8679122  0.6464038  )
        61        H      tau(  61) = (  1.2743587  0.4882119  0.4781899  )
        62        H      tau(  62) = (  1.7372112  0.6024432  0.5885001  )

     number of k points=     5  Marzari-Vanderbilt smearing, width (Ry)=  0.0200
                       cart. coord. in units 2pi/alat
        k(    1) = (   0.0000000   0.0000000   0.0000000), wk =   0.2222222
        k(    2) = (   0.0000000   0.3628315   0.1845943), wk =   0.4444444
        k(    3) = (   0.3333333   0.0810890   0.7383771), wk =   0.4444444
        k(    4) = (   0.3333333   0.4439205   0.9229714), wk =   0.4444444
        k(    5) = (   0.3333333  -0.2817426   0.5537829), wk =   0.4444444

                       cryst. coord.
        k(    1) = (   0.0000000   0.0000000   0.0000000), wk =   0.2222222
        k(    2) = (   0.0000000   0.3333333   0.0000000), wk =   0.4444444
        k(    3) = (   0.3333333   0.0000000   0.0000000), wk =   0.4444444
        k(    4) = (   0.3333333   0.3333333   0.0000000), wk =   0.4444444
        k(    5) = (   0.3333333  -0.3333333   0.0000000), wk =   0.4444444

     Dense  grid:  1332973 G-vectors     FFT dimensions: ( 120, 108, 540)

     Smooth grid:   575857 G-vectors     FFT dimensions: (  90,  80, 405)

     Dynamical RAM for                 wfc:      21.18 MB

     Dynamical RAM for     wfc (w. buffer):     127.07 MB

     Dynamical RAM for           str. fact:       2.62 MB

     Dynamical RAM for           local pot:       0.00 MB

     Dynamical RAM for          nlocal pot:      33.08 MB

     Dynamical RAM for                qrad:       5.37 MB

     Dynamical RAM for          rho,v,vnew:       7.31 MB

     Dynamical RAM for               rhoin:       2.44 MB

     Dynamical RAM for            rho*nmix:      10.50 MB

     Dynamical RAM for           G-vectors:       2.60 MB

     Dynamical RAM for          h,s,v(r/c):       2.61 MB

     Dynamical RAM for          <psi|beta>:       8.52 MB

     Dynamical RAM for                 psi:      42.36 MB

     Dynamical RAM for                hpsi:      42.36 MB

     Dynamical RAM for                spsi:      42.36 MB

     Dynamical RAM for      wfcinit/wfcrot:      56.62 MB

     Dynamical RAM for           addusdens:     153.54 MB

     Dynamical RAM for          addusforce:     215.74 MB

     Dynamical RAM for         addusstress:     131.89 MB

     Estimated static dynamical RAM per process >     192.67 MB

     Estimated max dynamical RAM per process >     418.91 MB

     Estimated total dynamical RAM >      12.68 GB

     Initial potential from superposition of free atoms

     starting charge     995.9929, renormalised to     996.0000

     negative rho (up, down):  2.021E-03 0.000E+00
     Starting wfcs are  659 randomized atomic wfcs
[ga01:892026] 28 more processes have sent help message help-mpi-btl-openib.txt / error in device init
[ga01:892026] Set MCA parameter "orte_base_help_aggregate" to 0 to see all help / error messages
[ga01:892026] 1 more process has sent help message help-mpi-btl-openib.txt / no active ports found
     Checking if some PAW data can be deallocated... 
       PAW data deallocated on   28 nodes for type:  3

     total cpu time spent up to now is       41.9 secs

     Self-consistent Calculation

     iteration #  1     ecut=    40.00 Ry     beta= 0.40
     Davidson diagonalization with overlap

---- Real-time Memory Report at c_bands before calling an iterative solver
           419 MiB given to the printing process from OS
             0 MiB allocation reported by mallinfo(arena+hblkhd)
        153207 MiB available memory on the node where the printing process lives
------------------
     ethr =  1.00E-02,  avg # of iterations =  7.6

     negative rho (up, down):  2.504E-03 0.000E+00

     total cpu time spent up to now is      190.0 secs

     total energy              =  -22288.28968406 Ry
     estimated scf accuracy    <      11.11460142 Ry

     iteration #  2     ecut=    40.00 Ry     beta= 0.40
     Davidson diagonalization with overlap

---- Real-time Memory Report at c_bands before calling an iterative solver
           555 MiB given to the printing process from OS
             0 MiB allocation reported by mallinfo(arena+hblkhd)
        152354 MiB available memory on the node where the printing process lives
------------------
     ethr =  1.12E-03,  avg # of iterations =  9.6

     negative rho (up, down):  3.678E-03 0.000E+00

     total cpu time spent up to now is      340.0 secs

     total energy              =  -22276.74660082 Ry
     estimated scf accuracy    <     234.24845965 Ry

     iteration #  3     ecut=    40.00 Ry     beta= 0.40
     Davidson diagonalization with overlap

---- Real-time Memory Report at c_bands before calling an iterative solver
           565 MiB given to the printing process from OS
             0 MiB allocation reported by mallinfo(arena+hblkhd)
        152337 MiB available memory on the node where the printing process lives
------------------
     ethr =  1.12E-03,  avg # of iterations =  8.2

     negative rho (up, down):  3.557E-03 0.000E+00

     total cpu time spent up to now is      515.9 secs

     total energy              =  -22292.88523440 Ry
     estimated scf accuracy    <       6.85029224 Ry

     iteration #  4     ecut=    40.00 Ry     beta= 0.40
     Davidson diagonalization with overlap

---- Real-time Memory Report at c_bands before calling an iterative solver
           565 MiB given to the printing process from OS
             0 MiB allocation reported by mallinfo(arena+hblkhd)
        152333 MiB available memory on the node where the printing process lives
------------------
     ethr =  6.88E-04,  avg # of iterations =  3.0

     negative rho (up, down):  3.453E-03 0.000E+00

     total cpu time spent up to now is      636.5 secs

     total energy              =  -22293.34846539 Ry
     estimated scf accuracy    <       4.50262454 Ry

     iteration #  5     ecut=    40.00 Ry     beta= 0.40
     Davidson diagonalization with overlap

---- Real-time Memory Report at c_bands before calling an iterative solver
           565 MiB given to the printing process from OS
             0 MiB allocation reported by mallinfo(arena+hblkhd)
        152304 MiB available memory on the node where the printing process lives
------------------
     ethr =  4.52E-04,  avg # of iterations =  2.0

     negative rho (up, down):  3.440E-03 0.000E+00

     total cpu time spent up to now is      751.6 secs

     total energy              =  -22293.61957277 Ry
     estimated scf accuracy    <       0.32217803 Ry

     iteration #  6     ecut=    40.00 Ry     beta= 0.40
     Davidson diagonalization with overlap

---- Real-time Memory Report at c_bands before calling an iterative solver
           572 MiB given to the printing process from OS
             0 MiB allocation reported by mallinfo(arena+hblkhd)
        152268 MiB available memory on the node where the printing process lives
------------------
     ethr =  3.23E-05,  avg # of iterations = 11.2

     negative rho (up, down):  3.534E-03 0.000E+00

     total cpu time spent up to now is      887.6 secs

     total energy              =  -22293.61986128 Ry
     estimated scf accuracy    <       0.13018847 Ry

     iteration #  7     ecut=    40.00 Ry     beta= 0.40
     Davidson diagonalization with overlap

---- Real-time Memory Report at c_bands before calling an iterative solver
           573 MiB given to the printing process from OS
             0 MiB allocation reported by mallinfo(arena+hblkhd)
        152241 MiB available memory on the node where the printing process lives
------------------
     ethr =  1.31E-05,  avg # of iterations = 10.4

     negative rho (up, down):  3.592E-03 0.000E+00

     total cpu time spent up to now is     1019.4 secs

     total energy              =  -22293.61677730 Ry
     estimated scf accuracy    <       0.07279025 Ry

     iteration #  8     ecut=    40.00 Ry     beta= 0.40
     Davidson diagonalization with overlap

---- Real-time Memory Report at c_bands before calling an iterative solver
           573 MiB given to the printing process from OS
             0 MiB allocation reported by mallinfo(arena+hblkhd)
        152209 MiB available memory on the node where the printing process lives
------------------
     ethr =  7.31E-06,  avg # of iterations =  7.0

     negative rho (up, down):  3.633E-03 0.000E+00

     total cpu time spent up to now is     1142.6 secs

     total energy              =  -22293.61807268 Ry
     estimated scf accuracy    <       0.04567150 Ry

     iteration #  9     ecut=    40.00 Ry     beta= 0.40
     Davidson diagonalization with overlap

---- Real-time Memory Report at c_bands before calling an iterative solver
           576 MiB given to the printing process from OS
             0 MiB allocation reported by mallinfo(arena+hblkhd)
        152175 MiB available memory on the node where the printing process lives
------------------
     c_bands:  3 eigenvalues not converged
     ethr =  4.59E-06,  avg # of iterations = 17.4

     negative rho (up, down):  3.654E-03 0.000E+00

     total cpu time spent up to now is     1282.1 secs

     total energy              =  -22293.61720084 Ry
     estimated scf accuracy    <       0.02672242 Ry

     iteration # 10     ecut=    40.00 Ry     beta= 0.40
     Davidson diagonalization with overlap

---- Real-time Memory Report at c_bands before calling an iterative solver
           578 MiB given to the printing process from OS
             0 MiB allocation reported by mallinfo(arena+hblkhd)
        152146 MiB available memory on the node where the printing process lives
------------------
     c_bands:  1 eigenvalues not converged
     ethr =  2.68E-06,  avg # of iterations =  8.2

     negative rho (up, down):  3.684E-03 0.000E+00

     total cpu time spent up to now is     1404.7 secs

     total energy              =  -22293.61361108 Ry
     estimated scf accuracy    <       0.02266818 Ry

     iteration # 11     ecut=    40.00 Ry     beta= 0.40
     Davidson diagonalization with overlap

---- Real-time Memory Report at c_bands before calling an iterative solver
           579 MiB given to the printing process from OS
             0 MiB allocation reported by mallinfo(arena+hblkhd)
        152141 MiB available memory on the node where the printing process lives
------------------
     c_bands:  1 eigenvalues not converged
     ethr =  2.28E-06,  avg # of iterations = 14.6

     negative rho (up, down):  3.793E-03 0.000E+00

     total cpu time spent up to now is     1544.1 secs

     total energy              =  -22293.60190949 Ry
     estimated scf accuracy    <       0.01596761 Ry

     iteration # 12     ecut=    40.00 Ry     beta= 0.40
     Davidson diagonalization with overlap

---- Real-time Memory Report at c_bands before calling an iterative solver
           579 MiB given to the printing process from OS
             0 MiB allocation reported by mallinfo(arena+hblkhd)
        152131 MiB available memory on the node where the printing process lives
------------------
     c_bands:  2 eigenvalues not converged
     ethr =  1.60E-06,  avg # of iterations = 18.6

     negative rho (up, down):  3.770E-03 0.000E+00

     total cpu time spent up to now is     1715.1 secs

     total energy              =  -22293.60454168 Ry
     estimated scf accuracy    <       0.00123926 Ry

     iteration # 13     ecut=    40.00 Ry     beta= 0.40
     Davidson diagonalization with overlap

---- Real-time Memory Report at c_bands before calling an iterative solver
           579 MiB given to the printing process from OS
             0 MiB allocation reported by mallinfo(arena+hblkhd)
        152129 MiB available memory on the node where the printing process lives
------------------
     ethr =  1.24E-07,  avg # of iterations =  2.0

     negative rho (up, down):  3.757E-03 0.000E+00

     total cpu time spent up to now is     1832.5 secs

     total energy              =  -22293.60467798 Ry
     estimated scf accuracy    <       0.00021589 Ry

     iteration # 14     ecut=    40.00 Ry     beta= 0.40
     Davidson diagonalization with overlap

---- Real-time Memory Report at c_bands before calling an iterative solver
           579 MiB given to the printing process from OS
             0 MiB allocation reported by mallinfo(arena+hblkhd)
        152120 MiB available memory on the node where the printing process lives
------------------
     ethr =  2.17E-08,  avg # of iterations =  2.0

     negative rho (up, down):  3.755E-03 0.000E+00

     total cpu time spent up to now is     1950.6 secs

     total energy              =  -22293.60465666 Ry
     estimated scf accuracy    <       0.00040886 Ry

     iteration # 15     ecut=    40.00 Ry     beta= 0.40
     Davidson diagonalization with overlap

---- Real-time Memory Report at c_bands before calling an iterative solver
           579 MiB given to the printing process from OS
             0 MiB allocation reported by mallinfo(arena+hblkhd)
        152115 MiB available memory on the node where the printing process lives
------------------
     ethr =  2.17E-08,  avg # of iterations =  2.0

     negative rho (up, down):  3.753E-03 0.000E+00

     total cpu time spent up to now is     2067.7 secs

     total energy              =  -22293.60468528 Ry
     estimated scf accuracy    <       0.00041334 Ry

     iteration # 16     ecut=    40.00 Ry     beta= 0.40
     Davidson diagonalization with overlap

---- Real-time Memory Report at c_bands before calling an iterative solver
           579 MiB given to the printing process from OS
             0 MiB allocation reported by mallinfo(arena+hblkhd)
        152114 MiB available memory on the node where the printing process lives
------------------
     ethr =  2.17E-08,  avg # of iterations =  2.0

     negative rho (up, down):  3.752E-03 0.000E+00

     total cpu time spent up to now is     2181.1 secs

     total energy              =  -22293.60471446 Ry
     estimated scf accuracy    <       0.00002364 Ry

     iteration # 17     ecut=    40.00 Ry     beta= 0.40
     Davidson diagonalization with overlap

---- Real-time Memory Report at c_bands before calling an iterative solver
           579 MiB given to the printing process from OS
             0 MiB allocation reported by mallinfo(arena+hblkhd)
        152111 MiB available memory on the node where the printing process lives
------------------
     ethr =  2.37E-09,  avg # of iterations =  2.0

     negative rho (up, down):  3.753E-03 0.000E+00

     total cpu time spent up to now is     2298.0 secs

     End of self-consistent calculation

          k = 0.0000 0.0000 0.0000 ( 71933 PWs)   bands (ev):

  -125.3606-125.3569-125.3559-125.3520-125.2891-125.2882-125.2827-125.2818
  -125.2773-125.2764-125.2727-125.2714-125.2166-125.2131-125.2123-125.2113
  -125.1994-125.1985-125.1965-125.1946-125.1943-125.1931-125.1928-125.1872
  -125.1056-125.1043-125.0985-125.0959-125.0777-125.0750-125.0731-125.0701
  -125.0347-125.0331-125.0330-125.0314-124.9875-124.9839-124.9823-124.9798
  -124.9594-124.9576-124.9571-124.9554-124.9497-124.9474-124.9420-124.9193
   -79.5169 -79.5165 -79.5130 -79.5118 -79.5086 -79.5082 -79.5059 -79.5047
   -79.5034 -79.5019 -79.4999 -79.4909 -79.4470 -79.4466 -79.4455 -79.4402
   -79.4390 -79.4376 -79.4374 -79.4364 -79.4347 -79.4336 -79.4334 -79.4324
   -79.4308 -79.4298 -79.4287 -79.4275 -79.4261 -79.4253 -79.4249 -79.4243
   -79.4210 -79.4207 -79.4197 -79.4119 -79.3754 -79.3743 -79.3707 -79.3698
   -79.3689 -79.3658 -79.3640 -79.3621 -79.3619 -79.3614 -79.3609 -79.3602
   -79.3598 -79.3577 -79.3562 -79.3550 -79.3542 -79.3518 -79.3503 -79.3500
   -79.3483 -79.3473 -79.3449 -79.3444 -79.3437 -79.3430 -79.3428 -79.3423
   -79.3423 -79.3416 -79.3401 -79.3398 -79.3388 -79.3348 -79.3318 -79.3299
   -79.2677 -79.2664 -79.2636 -79.2607 -79.2582 -79.2550 -79.2539 -79.2512
   -79.2490 -79.2481 -79.2456 -79.2403 -79.2377 -79.2365 -79.2364 -79.2356
   -79.2326 -79.2282 -79.2256 -79.2238 -79.2236 -79.2233 -79.2206 -79.2106
   -79.1987 -79.1971 -79.1968 -79.1953 -79.1928 -79.1856 -79.1841 -79.1840
   -79.1826 -79.1804 -79.1804 -79.1681 -79.1543 -79.1505 -79.1488 -79.1464
   -79.1433 -79.1371 -79.1338 -79.1324 -79.1307 -79.1300 -79.1299 -79.1284
   -79.1268 -79.1264 -79.1241 -79.1209 -79.1187 -79.1175 -79.1128 -79.1111
   -79.1100 -79.1084 -79.1084 -79.1049 -79.1024 -79.1020 -79.1001 -79.0992
   -79.0958 -79.0899 -79.0880 -79.0880 -79.0802 -79.0762 -79.0753 -79.0580
   -17.4806 -15.2940 -12.8523 -12.4523  -9.5532  -9.2028  -8.3639  -7.4897
    -7.4335  -7.2380  -7.1135  -7.1063  -7.0749  -7.0235  -6.9961  -6.9663
    -6.9266  -6.9141  -6.8823  -6.8816  -6.8540  -6.8334  -6.8287  -6.8253
    -6.7930  -6.7924  -6.7733  -6.7601  -6.7460  -6.7319  -6.7116  -6.7078
    -6.7029  -6.6947  -6.6762  -6.6679  -6.6631  -6.6478  -6.6462  -6.6252
    -6.6222  -6.6207  -6.6197  -6.6183  -6.6070  -6.6037  -6.5872  -6.5838
    -6.5723  -6.5700  -6.5682  -6.5570  -6.5552  -6.5548  -6.5204  -6.5196
    -6.5157  -6.5150  -6.5103  -6.5088  -6.5046  -6.4873  -6.4835  -6.4758
    -6.4520  -6.4505  -6.4496  -6.4301  -6.4257  -6.4031  -6.3925  -6.3902
    -6.3877  -6.3748  -6.3736  -6.3687  -6.3465  -6.3431  -6.3321  -6.3307
    -6.3279  -6.3208  -6.3073  -6.2968  -6.2946  -6.2914  -6.2896  -6.2760
    -6.2678  -6.2660  -6.2495  -6.2436  -6.2427  -6.2290  -6.2278  -6.2269
    -6.2231  -6.2223  -6.2149  -6.2045  -6.2037  -6.1896  -6.1843  -6.1828
    -6.1757  -6.1711  -6.1655  -6.1645  -6.1590  -6.1577  -6.1569  -6.1389
    -6.1322  -6.1305  -6.1295  -6.1235  -6.1119  -6.1093  -6.1059  -6.0989
    -6.0962  -6.0840  -6.0828  -6.0739  -6.0731  -6.0666  -6.0612  -6.0589
    -6.0556  -6.0461  -6.0358  -6.0282  -6.0256  -6.0221  -6.0142  -6.0133
    -6.0119  -6.0073  -5.9977  -5.9950  -5.9851  -5.9822  -5.9778  -5.9761
    -5.9687  -5.9650  -5.9603  -5.9544  -5.9471  -5.9453  -5.9376  -5.9249
    -5.9246  -5.9138  -5.9114  -5.9036  -5.9014  -5.9007  -5.8986  -5.8823
    -5.8781  -5.8747  -5.8733  -5.8718  -5.8698  -5.8645  -5.8640  -5.8619
    -5.8609  -5.8535  -5.8511  -5.8497  -5.8486  -5.8466  -5.8344  -5.8322
    -5.8289  -5.8276  -5.8249  -5.8211  -5.8184  -5.8033  -5.8022  -5.7977
    -5.7949  -5.7928  -5.7899  -5.7813  -5.7748  -5.7693  -5.7639  -5.7601
    -5.7537  -5.7506  -5.7472  -5.7436  -5.7416  -5.7385  -5.7355  -5.7303
    -5.7282  -5.7256  -5.7201  -5.7171  -5.7161  -5.7154  -5.7116  -5.7091
    -5.7061  -5.7059  -5.7041  -5.6974  -5.6952  -5.6927  -5.6915  -5.6887
    -5.6776  -5.6765  -5.6736  -5.6677  -5.6648  -5.6611  -5.6535  -5.6498
    -5.6487  -5.6395  -5.6316  -5.6307  -5.6299  -5.6224  -5.6217  -5.6034
    -5.5993  -5.5990  -5.5903  -5.5871  -5.5836  -5.5822  -5.5559  -5.5533
    -5.5416  -5.5364  -5.5361  -5.5293  -5.5229  -5.5126  -5.5098  -5.4989
    -5.4692  -5.4668  -5.4384  -5.4233  -5.3995  -5.3736  -5.3684  -5.3088
    -5.3070  -4.9929  -4.9063  -4.7769  -4.5727  -4.4287  -4.4280  -4.2005
    -4.1002  -4.0994  -3.9283  -3.7701  -3.7656  -3.0872  -2.8595  -2.6092
    -2.4589  -2.4057  -2.3995  -2.2236  -2.1645  -2.1275  -2.1163  -1.8821
    -1.8479  -1.8126  -1.5986  -1.5446  -1.5420  -1.5201  -1.1146  -0.8753
    -0.8727  -0.7137  -0.5672  -0.3974  -0.3711  -0.2402  -0.1954  -0.1911
     0.1489   0.2140   0.2935   0.3384   0.4506   0.4692   0.4749   0.4942
     0.8358   0.8440   1.1712   1.5164   1.5465   1.7835   1.8044   2.1190
     2.2134   2.3284   2.3542   2.3580   2.3903   2.4982   2.5067   2.8445
     2.9188   2.9242   2.9589   3.0085   3.1247   3.1896   3.3609   3.6256
     3.7373   3.8398   3.8519   3.8618   4.1988   4.2135   4.2349   4.3491
     4.6416   4.7810   4.8126   4.8789   4.9325   4.9755   5.2647   5.2741
     5.3325   5.3810   5.3911   5.3997   5.4648   5.4804   5.6088   5.6311
     5.7493   5.8314   5.8595   5.8865   5.9243   5.9726   5.9820   6.0337
     6.0796   6.0872   6.1087   6.1164   6.1634   6.1831   6.1982   6.2068
     6.3280   6.3585   6.3831   6.4451   6.4945   6.5310   6.5949   6.6563
     6.6984   6.7322   6.7888   6.8562   6.8976   7.0619   7.0744   7.1084
     7.1360   7.1551   7.2603   7.3348   7.3417   7.3801   7.4108   7.4779
     7.4920   7.5136   7.5779   7.7185   7.7665   7.7807   7.7845   7.8642
     7.8968   7.9019   7.9325   7.9613   8.0236   8.1332

     occupation numbers 
     1.0000   1.0000   1.0000   1.0000   1.0000   1.0000   1.0000   1.0000
     1.0000   1.0000   1.0000   1.0000   1.0000   1.0000   1.0000   1.0000
     1.0000   1.0000   1.0000   1.0000   1.0000   1.0000   1.0000   1.0000
     1.0000   1.0000   1.0000   1.0000   1.0000   1.0000   1.0000   1.0000
     1.0000   1.0000   1.0000   1.0000   1.0000   1.0000   1.0000   1.0000
     1.0000   1.0000   1.0000   1.0000   1.0000   1.0000   1.0000   1.0000
     1.0000   1.0000   1.0000   1.0000   1.0000   1.0000   1.0000   1.0000
     1.0000   1.0000   1.0000   1.0000   1.0000   1.0000   1.0000   1.0000
     1.0000   1.0000   1.0000   1.0000   1.0000   1.0000   1.0000   1.0000
     1.0000   1.0000   1.0000   1.0000   1.0000   1.0000   1.0000   1.0000
     1.0000   1.0000   1.0000   1.0000   1.0000   1.0000   1.0000   1.0000
     1.0000   1.0000   1.0000   1.0000   1.0000   1.0000   1.0000   1.0000
     1.0000   1.0000   1.0000   1.0000   1.0000   1.0000   1.0000   1.0000
     1.0000   1.0000   1.0000   1.0000   1.0000   1.0000   1.0000   1.0000
     1.0000   1.0000   1.0000   1.0000   1.0000   1.0000   1.0000   1.0000
     1.0000   1.0000   1.0000   1.0000   1.0000   1.0000   1.0000   1.0000
     1.0000   1.0000   1.0000   1.0000   1.0000   1.0000   1.0000   1.0000
     1.0000   1.0000   1.0000   1.0000   1.0000   1.0000   1.0000   1.0000
     1.0000   1.0000   1.0000   1.0000   1.0000   1.0000   1.0000   1.0000
     1.0000   1.0000   1.0000   1.0000   1.0000   1.0000   1.0000   1.0000
     1.0000   1.0000   1.0000   1.0000   1.0000   1.0000   1.0000   1.0000
     1.0000   1.0000   1.0000   1.0000   1.0000   1.0000   1.0000   1.0000
     1.0000   1.0000   1.0000   1.0000   1.0000   1.0000   1.0000   1.0000
     1.0000   1.0000   1.0000   1.0000   1.0000   1.0000   1.0000   1.0000
     1.0000   1.0000   1.0000   1.0000   1.0000   1.0000   1.0000   1.0000
     1.0000   1.0000   1.0000   1.0000   1.0000   1.0000   1.0000   1.0000
     1.0000   1.0000   1.0000   1.0000   1.0000   1.0000   1.0000   1.0000
     1.0000   1.0000   1.0000   1.0000   1.0000   1.0000   1.0000   1.0000
     1.0000   1.0000   1.0000   1.0000   1.0000   1.0000   1.0000   1.0000
     1.0000   1.0000   1.0000   1.0000   1.0000   1.0000   1.0000   1.0000
     1.0000   1.0000   1.0000   1.0000   1.0000   1.0000   1.0000   1.0000
     1.0000   1.0000   1.0000   1.0000   1.0000   1.0000   1.0000   1.0000
     1.0000   1.0000   1.0000   1.0000   1.0000   1.0000   1.0000   1.0000
     1.0000   1.0000   1.0000   1.0000   1.0000   1.0000   1.0000   1.0000
     1.0000   1.0000   1.0000   1.0000   1.0000   1.0000   1.0000   1.0000
     1.0000   1.0000   1.0000   1.0000   1.0000   1.0000   1.0000   1.0000
     1.0000   1.0000   1.0000   1.0000   1.0000   1.0000   1.0000   1.0000
     1.0000   1.0000   1.0000   1.0000   1.0000   1.0000   1.0000   1.0000
     1.0000   1.0000   1.0000   1.0000   1.0000   1.0000   1.0000   1.0000
     1.0000   1.0000   1.0000   1.0000   1.0000   1.0000   1.0000   1.0000
     1.0000   1.0000   1.0000   1.0000   1.0000   1.0000   1.0000   1.0000
     1.0000   1.0000   1.0000   1.0000   1.0000   1.0000   1.0000   1.0000
     1.0000   1.0000   1.0000   1.0000   1.0000   1.0000   1.0000   1.0000
     1.0000   1.0000   1.0000   1.0000   1.0000   1.0000   1.0000   1.0000
     1.0000   1.0000   1.0000   1.0000   1.0000   1.0000   1.0000   1.0000
     1.0000   1.0000   1.0000   1.0000   1.0000   1.0000   1.0000   1.0000
     1.0000   1.0000   1.0000   1.0000   1.0000   1.0000   1.0000   1.0000
     1.0000   1.0000   1.0000   1.0000   1.0000   1.0000   1.0000   1.0000
     1.0000   1.0000   1.0000   1.0000   1.0000   1.0000   1.0000   1.0000
     1.0000   1.0000   1.0000   1.0000   1.0000   1.0000   1.0000   1.0000
     1.0000   1.0000   1.0000   1.0000   1.0000   1.0000   1.0000   1.0000
     1.0000   1.0000   1.0000   1.0000   1.0000   1.0000   1.0000   1.0000
     1.0000   1.0000   1.0000   1.0000   1.0000   1.0000   1.0000   1.0000
     1.0000   1.0000   1.0000   1.0000   1.0000   1.0000   1.0000   1.0000
     1.0000   1.0000   1.0000   1.0000   1.0000   1.0000   1.0000   1.0000
     1.0000   1.0000   1.0000   1.0000   1.0000   1.0000   1.0000   1.0000
     1.0000   1.0000   1.0000   1.0000   1.0000   1.0000   1.0000   1.0000
     1.0000   1.0000   1.0000   1.0000   1.0000   1.0000   1.0000   1.0000
     1.0000   1.0000   1.0000   1.0000   1.0000   1.0000   1.0000   1.0000
     1.0000   1.0000   1.0000   1.0000   1.0000   1.0000   1.0000   1.0000
     1.0000   1.0000   1.0000   1.0000   1.0000   1.0000   1.0000   1.0000
     1.0000   1.0001   1.0003   1.0008   1.0046   1.0059   1.0064   1.0082
     1.0806   1.0786   0.4570   0.0147   0.0094   0.0001   0.0001   0.0000
     0.0000   0.0000   0.0000   0.0000   0.0000   0.0000   0.0000   0.0000
     0.0000   0.0000   0.0000   0.0000   0.0000   0.0000   0.0000   0.0000
     0.0000   0.0000   0.0000   0.0000   0.0000   0.0000   0.0000   0.0000
     0.0000   0.0000   0.0000   0.0000   0.0000   0.0000   0.0000   0.0000
     0.0000   0.0000   0.0000   0.0000   0.0000   0.0000   0.0000   0.0000
     0.0000   0.0000   0.0000   0.0000   0.0000   0.0000   0.0000   0.0000
     0.0000   0.0000   0.0000   0.0000   0.0000   0.0000   0.0000   0.0000
     0.0000   0.0000   0.0000   0.0000   0.0000   0.0000   0.0000   0.0000
     0.0000   0.0000   0.0000   0.0000   0.0000   0.0000   0.0000   0.0000
     0.0000   0.0000   0.0000   0.0000   0.0000   0.0000   0.0000   0.0000
     0.0000   0.0000   0.0000   0.0000   0.0000   0.0000   0.0000   0.0000
     0.0000   0.0000   0.0000   0.0000   0.0000   0.0000

          k = 0.0000 0.3628 0.1846 ( 71963 PWs)   bands (ev):

  -125.3606-125.3569-125.3559-125.3520-125.2891-125.2882-125.2827-125.2818
  -125.2773-125.2764-125.2727-125.2714-125.2166-125.2132-125.2122-125.2113
  -125.1994-125.1985-125.1965-125.1946-125.1943-125.1931-125.1928-125.1872
  -125.1056-125.1043-125.0985-125.0959-125.0777-125.0750-125.0731-125.0701
  -125.0347-125.0333-125.0328-125.0314-124.9875-124.9839-124.9823-124.9798
  -124.9594-124.9576-124.9571-124.9554-124.9497-124.9474-124.9420-124.9193
   -79.5165 -79.5155 -79.5130 -79.5118 -79.5102 -79.5085 -79.5082 -79.5048
   -79.5033 -79.4999 -79.4977 -79.4923 -79.4466 -79.4458 -79.4454 -79.4403
   -79.4398 -79.4389 -79.4373 -79.4364 -79.4362 -79.4334 -79.4324 -79.4308
   -79.4307 -79.4298 -79.4287 -79.4286 -79.4274 -79.4260 -79.4249 -79.4219
   -79.4210 -79.4197 -79.4189 -79.4133 -79.3744 -79.3737 -79.3708 -79.3698
   -79.3693 -79.3685 -79.3658 -79.3622 -79.3615 -79.3609 -79.3603 -79.3598
   -79.3567 -79.3562 -79.3561 -79.3550 -79.3531 -79.3519 -79.3516 -79.3513
   -79.3502 -79.3483 -79.3482 -79.3448 -79.3442 -79.3436 -79.3429 -79.3416
   -79.3401 -79.3398 -79.3389 -79.3387 -79.3371 -79.3348 -79.3331 -79.3312
   -79.2677 -79.2664 -79.2625 -79.2607 -79.2582 -79.2556 -79.2549 -79.2539
   -79.2481 -79.2456 -79.2447 -79.2403 -79.2377 -79.2375 -79.2356 -79.2351
   -79.2326 -79.2292 -79.2282 -79.2255 -79.2236 -79.2207 -79.2178 -79.2119
   -79.1987 -79.1972 -79.1967 -79.1953 -79.1913 -79.1865 -79.1856 -79.1843
   -79.1838 -79.1825 -79.1744 -79.1696 -79.1543 -79.1505 -79.1488 -79.1464
   -79.1421 -79.1371 -79.1360 -79.1338 -79.1323 -79.1299 -79.1284 -79.1269
   -79.1264 -79.1247 -79.1241 -79.1209 -79.1188 -79.1187 -79.1128 -79.1111
   -79.1100 -79.1084 -79.1084 -79.1041 -79.1024 -79.1008 -79.1002 -79.1001
   -79.0958 -79.0945 -79.0880 -79.0836 -79.0798 -79.0763 -79.0762 -79.0581
   -17.4806 -15.2940 -12.8523 -12.4523  -9.5532  -9.2028  -8.1988  -7.7281
    -7.4336  -7.3918  -7.1089  -7.1065  -6.9968  -6.9831  -6.9357  -6.9006
    -6.8969  -6.8609  -6.8589  -6.8539  -6.8444  -6.8361  -6.8211  -6.8050
    -6.7881  -6.7797  -6.7712  -6.7688  -6.7424  -6.7402  -6.7373  -6.7290
    -6.7232  -6.7175  -6.7128  -6.7076  -6.7048  -6.6925  -6.6768  -6.6737
    -6.6552  -6.6449  -6.6424  -6.6374  -6.6255  -6.6213  -6.6196  -6.6060
    -6.5854  -6.5781  -6.5765  -6.5748  -6.5460  -6.5387  -6.5354  -6.5254
    -6.5119  -6.5092  -6.4912  -6.4901  -6.4860  -6.4743  -6.4728  -6.4614
    -6.4577  -6.4456  -6.4288  -6.4274  -6.4122  -6.4034  -6.3942  -6.3928
    -6.3778  -6.3768  -6.3691  -6.3678  -6.3565  -6.3533  -6.3461  -6.3370
    -6.3308  -6.3264  -6.3179  -6.3108  -6.3073  -6.3069  -6.2988  -6.2949
    -6.2903  -6.2875  -6.2730  -6.2534  -6.2516  -6.2495  -6.2427  -6.2401
    -6.2242  -6.2218  -6.2206  -6.2165  -6.2132  -6.2077  -6.2015  -6.1950
    -6.1934  -6.1829  -6.1796  -6.1790  -6.1714  -6.1695  -6.1637  -6.1602
    -6.1522  -6.1416  -6.1394  -6.1362  -6.1320  -6.1294  -6.1215  -6.1174
    -6.1100  -6.0956  -6.0932  -6.0817  -6.0756  -6.0723  -6.0701  -6.0683
    -6.0616  -6.0558  -6.0416  -6.0390  -6.0370  -6.0321  -6.0256  -6.0177
    -6.0145  -6.0021  -5.9983  -5.9920  -5.9872  -5.9846  -5.9828  -5.9819
    -5.9721  -5.9567  -5.9518  -5.9453  -5.9437  -5.9254  -5.9229  -5.9092
    -5.9051  -5.9039  -5.9016  -5.8965  -5.8936  -5.8863  -5.8855  -5.8823
    -5.8809  -5.8713  -5.8662  -5.8616  -5.8566  -5.8556  -5.8551  -5.8505
    -5.8459  -5.8447  -5.8419  -5.8259  -5.8234  -5.8213  -5.8127  -5.8103
    -5.8083  -5.8042  -5.8012  -5.8002  -5.7882  -5.7848  -5.7792  -5.7774
    -5.7742  -5.7678  -5.7653  -5.7644  -5.7552  -5.7548  -5.7534  -5.7450
    -5.7416  -5.7387  -5.7367  -5.7348  -5.7341  -5.7288  -5.7281  -5.7272
    -5.7210  -5.7160  -5.7144  -5.7123  -5.7067  -5.7012  -5.6981  -5.6954
    -5.6903  -5.6864  -5.6839  -5.6798  -5.6752  -5.6692  -5.6673  -5.6646
    -5.6640  -5.6589  -5.6558  -5.6506  -5.6492  -5.6436  -5.6389  -5.6346
    -5.6272  -5.6246  -5.6240  -5.6209  -5.6191  -5.6120  -5.6113  -5.6046
    -5.5984  -5.5933  -5.5927  -5.5895  -5.5828  -5.5821  -5.5751  -5.5690
    -5.5665  -5.5627  -5.5492  -5.5485  -5.5440  -5.5309  -5.5168  -5.4866
    -5.4841  -5.4829  -5.4592  -5.4350  -5.4169  -5.4066  -5.3474  -5.0599
    -4.9965  -4.9888  -4.9465  -4.9036  -4.6467  -4.5975  -4.5732  -4.3218
    -3.9827  -3.9244  -3.5861  -3.3619  -3.3526  -3.3066  -3.0853  -2.8949
    -2.8078  -2.7329  -2.6093  -2.5779  -2.5169  -2.2743  -2.1341  -1.8744
    -1.8042  -1.7018  -1.6080  -1.4687  -1.4643  -1.2000  -1.1056  -0.9161
    -0.7883  -0.7139  -0.6400  -0.6096  -0.5300  -0.5126  -0.1563  -0.0039
     0.0213   0.1898   0.3203   0.3978   0.5469   0.5728   0.6870   0.7901
     0.8780   1.1353   1.3055   1.3984   1.5775   1.7199   1.8377   2.1028
     2.1363   2.3048   2.3408   2.4457   2.4945   2.5709   2.9704   3.0735
     3.0806   3.2840   3.3242   3.4156   3.5968   3.6389   3.6818   3.7179
     3.7246   3.8685   3.9543   4.0456   4.2088   4.3228   4.3353   4.3406
     4.3657   4.4187   4.5390   4.5982   4.6314   4.6823   4.7464   4.7858
     4.8840   4.9341   4.9410   5.0570   5.0623   5.2319   5.2742   5.3689
     5.4531   5.4711   5.5192   5.5712   5.5969   5.7363   5.8090   5.8205
     5.8885   5.9590   6.1088   6.1578   6.1859   6.2341   6.2662   6.2934
     6.3224   6.3482   6.4215   6.4502   6.5313   6.6847   6.7121   6.7258
     6.7898   6.8359   6.8968   6.9408   7.0560   7.0699   7.1402   7.1962
     7.2542   7.2698   7.2808   7.3561   7.4041   7.4380   7.4668   7.5177
     7.5699   7.6245   7.6550   7.6930   7.7341   7.7604   7.7793   7.8454
     7.9006   7.9761   8.0070   8.0373   8.0931   8.1249

     occupation numbers 
     1.0000   1.0000   1.0000   1.0000   1.0000   1.0000   1.0000   1.0000
     1.0000   1.0000   1.0000   1.0000   1.0000   1.0000   1.0000   1.0000
     1.0000   1.0000   1.0000   1.0000   1.0000   1.0000   1.0000   1.0000
     1.0000   1.0000   1.0000   1.0000   1.0000   1.0000   1.0000   1.0000
     1.0000   1.0000   1.0000   1.0000   1.0000   1.0000   1.0000   1.0000
     1.0000   1.0000   1.0000   1.0000   1.0000   1.0000   1.0000   1.0000
     1.0000   1.0000   1.0000   1.0000   1.0000   1.0000   1.0000   1.0000
     1.0000   1.0000   1.0000   1.0000   1.0000   1.0000   1.0000   1.0000
     1.0000   1.0000   1.0000   1.0000   1.0000   1.0000   1.0000   1.0000
     1.0000   1.0000   1.0000   1.0000   1.0000   1.0000   1.0000   1.0000
     1.0000   1.0000   1.0000   1.0000   1.0000   1.0000   1.0000   1.0000
     1.0000   1.0000   1.0000   1.0000   1.0000   1.0000   1.0000   1.0000
     1.0000   1.0000   1.0000   1.0000   1.0000   1.0000   1.0000   1.0000
     1.0000   1.0000   1.0000   1.0000   1.0000   1.0000   1.0000   1.0000
     1.0000   1.0000   1.0000   1.0000   1.0000   1.0000   1.0000   1.0000
     1.0000   1.0000   1.0000   1.0000   1.0000   1.0000   1.0000   1.0000
     1.0000   1.0000   1.0000   1.0000   1.0000   1.0000   1.0000   1.0000
     1.0000   1.0000   1.0000   1.0000   1.0000   1.0000   1.0000   1.0000
     1.0000   1.0000   1.0000   1.0000   1.0000   1.0000   1.0000   1.0000
     1.0000   1.0000   1.0000   1.0000   1.0000   1.0000   1.0000   1.0000
     1.0000   1.0000   1.0000   1.0000   1.0000   1.0000   1.0000   1.0000
     1.0000   1.0000   1.0000   1.0000   1.0000   1.0000   1.0000   1.0000
     1.0000   1.0000   1.0000   1.0000   1.0000   1.0000   1.0000   1.0000
     1.0000   1.0000   1.0000   1.0000   1.0000   1.0000   1.0000   1.0000
     1.0000   1.0000   1.0000   1.0000   1.0000   1.0000   1.0000   1.0000
     1.0000   1.0000   1.0000   1.0000   1.0000   1.0000   1.0000   1.0000
     1.0000   1.0000   1.0000   1.0000   1.0000   1.0000   1.0000   1.0000
     1.0000   1.0000   1.0000   1.0000   1.0000   1.0000   1.0000   1.0000
     1.0000   1.0000   1.0000   1.0000   1.0000   1.0000   1.0000   1.0000
     1.0000   1.0000   1.0000   1.0000   1.0000   1.0000   1.0000   1.0000
     1.0000   1.0000   1.0000   1.0000   1.0000   1.0000   1.0000   1.0000
     1.0000   1.0000   1.0000   1.0000   1.0000   1.0000   1.0000   1.0000
     1.0000   1.0000   1.0000   1.0000   1.0000   1.0000   1.0000   1.0000
     1.0000   1.0000   1.0000   1.0000   1.0000   1.0000   1.0000   1.0000
     1.0000   1.0000   1.0000   1.0000   1.0000   1.0000   1.0000   1.0000
     1.0000   1.0000   1.0000   1.0000   1.0000   1.0000   1.0000   1.0000
     1.0000   1.0000   1.0000   1.0000   1.0000   1.0000   1.0000   1.0000
     1.0000   1.0000   1.0000   1.0000   1.0000   1.0000   1.0000   1.0000
     1.0000   1.0000   1.0000   1.0000   1.0000   1.0000   1.0000   1.0000
     1.0000   1.0000   1.0000   1.0000   1.0000   1.0000   1.0000   1.0000
     1.0000   1.0000   1.0000   1.0000   1.0000   1.0000   1.0000   1.0000
     1.0000   1.0000   1.0000   1.0000   1.0000   1.0000   1.0000   1.0000
     1.0000   1.0000   1.0000   1.0000   1.0000   1.0000   1.0000   1.0000
     1.0000   1.0000   1.0000   1.0000   1.0000   1.0000   1.0000   1.0000
     1.0000   1.0000   1.0000   1.0000   1.0000   1.0000   1.0000   1.0000
     1.0000   1.0000   1.0000   1.0000   1.0000   1.0000   1.0000   1.0000
     1.0000   1.0000   1.0000   1.0000   1.0000   1.0000   1.0000   1.0000
     1.0000   1.0000   1.0000   1.0000   1.0000   1.0000   1.0000   1.0000
     1.0000   1.0000   1.0000   1.0000   1.0000   1.0000   1.0000   1.0000
     1.0000   1.0000   1.0000   1.0000   1.0000   1.0000   1.0000   1.0000
     1.0000   1.0000   1.0000   1.0000   1.0000   1.0000   1.0000   1.0000
     1.0000   1.0000   1.0000   1.0000   1.0000   1.0000   1.0000   1.0000
     1.0000   1.0000   1.0000   1.0000   1.0000   1.0000   1.0000   1.0000
     1.0000   1.0000   1.0000   1.0000   1.0000   1.0000   1.0000   1.0000
     1.0000   1.0000   1.0000   1.0000   1.0000   1.0000   1.0000   1.0000
     1.0000   1.0000   1.0000   1.0000   1.0000   1.0000   1.0000   1.0000
     1.0000   1.0000   1.0000   1.0000   1.0000   1.0000   1.0000   1.0000
     1.0000   1.0000   1.0000   1.0000   1.0000   1.0000   1.0000   1.0000
     1.0000   1.0000   1.0000   1.0000   1.0000   1.0000   1.0000   1.0000
     1.0000   1.0000   1.0000   1.0000   1.0000   1.0000   1.0000   1.0000
     1.0000   1.0000   1.0000   1.0000   1.0000   1.0000   1.0000   1.0000
     1.0000   1.0000   1.0006   1.0021   1.0156   1.0206   1.0541   1.0823
     1.0637   0.5545   0.1703   0.0665   0.0058   0.0005   0.0000   0.0000
     0.0000   0.0000   0.0000   0.0000   0.0000   0.0000   0.0000   0.0000
     0.0000   0.0000   0.0000   0.0000   0.0000   0.0000   0.0000   0.0000
     0.0000   0.0000   0.0000   0.0000   0.0000   0.0000   0.0000   0.0000
     0.0000   0.0000   0.0000   0.0000   0.0000   0.0000   0.0000   0.0000
     0.0000   0.0000   0.0000   0.0000   0.0000   0.0000   0.0000   0.0000
     0.0000   0.0000   0.0000   0.0000   0.0000   0.0000   0.0000   0.0000
     0.0000   0.0000   0.0000   0.0000   0.0000   0.0000   0.0000   0.0000
     0.0000   0.0000   0.0000   0.0000   0.0000   0.0000   0.0000   0.0000
     0.0000   0.0000   0.0000   0.0000   0.0000   0.0000   0.0000   0.0000
     0.0000   0.0000   0.0000   0.0000   0.0000   0.0000   0.0000   0.0000
     0.0000   0.0000   0.0000   0.0000   0.0000   0.0000   0.0000   0.0000
     0.0000   0.0000   0.0000   0.0000   0.0000   0.0000

          k = 0.3333 0.0811 0.7384 ( 72005 PWs)   bands (ev):

  -125.3606-125.3569-125.3559-125.3520-125.2891-125.2882-125.2827-125.2818
  -125.2773-125.2764-125.2727-125.2714-125.2166-125.2131-125.2123-125.2113
  -125.1994-125.1985-125.1965-125.1946-125.1943-125.1931-125.1928-125.1872
  -125.1056-125.1043-125.0985-125.0959-125.0777-125.0750-125.0731-125.0701
  -125.0347-125.0331-125.0330-125.0314-124.9875-124.9839-124.9823-124.9798
  -124.9594-124.9576-124.9571-124.9554-124.9497-124.9474-124.9420-124.9193
   -79.5169 -79.5165 -79.5130 -79.5118 -79.5086 -79.5082 -79.5059 -79.5047
   -79.5034 -79.5019 -79.4999 -79.4909 -79.4470 -79.4466 -79.4455 -79.4402
   -79.4390 -79.4376 -79.4374 -79.4364 -79.4347 -79.4336 -79.4334 -79.4324
   -79.4308 -79.4298 -79.4287 -79.4275 -79.4261 -79.4253 -79.4249 -79.4243
   -79.4210 -79.4207 -79.4197 -79.4119 -79.3754 -79.3743 -79.3707 -79.3698
   -79.3689 -79.3658 -79.3640 -79.3621 -79.3619 -79.3614 -79.3609 -79.3602
   -79.3598 -79.3577 -79.3562 -79.3550 -79.3542 -79.3518 -79.3503 -79.3500
   -79.3483 -79.3473 -79.3449 -79.3444 -79.3437 -79.3430 -79.3428 -79.3423
   -79.3423 -79.3416 -79.3401 -79.3398 -79.3388 -79.3348 -79.3318 -79.3299
   -79.2677 -79.2664 -79.2636 -79.2607 -79.2582 -79.2550 -79.2539 -79.2512
   -79.2490 -79.2481 -79.2456 -79.2403 -79.2377 -79.2365 -79.2364 -79.2356
   -79.2326 -79.2282 -79.2256 -79.2238 -79.2236 -79.2233 -79.2206 -79.2106
   -79.1987 -79.1971 -79.1968 -79.1953 -79.1928 -79.1856 -79.1841 -79.1840
   -79.1826 -79.1804 -79.1804 -79.1681 -79.1543 -79.1505 -79.1488 -79.1464
   -79.1434 -79.1371 -79.1338 -79.1324 -79.1307 -79.1300 -79.1299 -79.1284
   -79.1268 -79.1264 -79.1241 -79.1209 -79.1187 -79.1175 -79.1128 -79.1111
   -79.1100 -79.1084 -79.1084 -79.1049 -79.1024 -79.1020 -79.1001 -79.0992
   -79.0958 -79.0899 -79.0880 -79.0880 -79.0802 -79.0762 -79.0753 -79.0580
   -17.4806 -15.2940 -12.8523 -12.4523  -9.5532  -9.2029  -8.2481  -7.8207
    -7.4337  -7.1431  -7.1379  -7.0636  -7.0438  -7.0139  -6.9961  -6.9710
    -6.9277  -6.8925  -6.8903  -6.8842  -6.8828  -6.8401  -6.8302  -6.8095
    -6.7800  -6.7785  -6.7744  -6.7720  -6.7478  -6.7414  -6.7242  -6.7076
    -6.7032  -6.6869  -6.6794  -6.6579  -6.6556  -6.6463  -6.6399  -6.6386
    -6.6298  -6.6225  -6.6177  -6.6145  -6.5888  -6.5848  -6.5833  -6.5817
    -6.5804  -6.5720  -6.5671  -6.5577  -6.5558  -6.5543  -6.5300  -6.5212
    -6.5196  -6.5179  -6.5087  -6.5040  -6.5023  -6.4892  -6.4848  -6.4811
    -6.4546  -6.4467  -6.4319  -6.4255  -6.4229  -6.4149  -6.4048  -6.3980
    -6.3781  -6.3773  -6.3694  -6.3651  -6.3619  -6.3330  -6.3299  -6.3253
    -6.3197  -6.3050  -6.3040  -6.3004  -6.2950  -6.2928  -6.2882  -6.2823
    -6.2768  -6.2722  -6.2583  -6.2507  -6.2455  -6.2401  -6.2296  -6.2266
    -6.2205  -6.2116  -6.2108  -6.2106  -6.2040  -6.2011  -6.1871  -6.1860
    -6.1821  -6.1696  -6.1672  -6.1647  -6.1633  -6.1563  -6.1471  -6.1415
    -6.1370  -6.1358  -6.1252  -6.1219  -6.1172  -6.1091  -6.1075  -6.1014
    -6.0954  -6.0917  -6.0774  -6.0735  -6.0693  -6.0623  -6.0573  -6.0503
    -6.0466  -6.0369  -6.0348  -6.0222  -6.0203  -6.0138  -6.0100  -6.0083
    -6.0063  -6.0058  -6.0013  -5.9923  -5.9842  -5.9779  -5.9731  -5.9705
    -5.9613  -5.9586  -5.9531  -5.9503  -5.9429  -5.9392  -5.9279  -5.9273
    -5.9241  -5.9217  -5.9197  -5.9128  -5.9094  -5.9056  -5.9019  -5.9008
    -5.8974  -5.8937  -5.8835  -5.8797  -5.8778  -5.8732  -5.8715  -5.8678
    -5.8656  -5.8624  -5.8561  -5.8511  -5.8420  -5.8364  -5.8326  -5.8323
    -5.8267  -5.8217  -5.8207  -5.8192  -5.8169  -5.8105  -5.8094  -5.8026
    -5.7988  -5.7977  -5.7793  -5.7748  -5.7706  -5.7664  -5.7640  -5.7619
    -5.7593  -5.7559  -5.7548  -5.7466  -5.7406  -5.7380  -5.7336  -5.7328
    -5.7268  -5.7237  -5.7217  -5.7191  -5.7157  -5.7103  -5.7052  -5.7046
    -5.7021  -5.6996  -5.6985  -5.6941  -5.6875  -5.6830  -5.6787  -5.6780
    -5.6775  -5.6753  -5.6698  -5.6617  -5.6572  -5.6563  -5.6494  -5.6430
    -5.6391  -5.6355  -5.6334  -5.6309  -5.6293  -5.6206  -5.6190  -5.6072
    -5.6060  -5.5900  -5.5883  -5.5863  -5.5847  -5.5746  -5.5531  -5.5431
    -5.5414  -5.5413  -5.5310  -5.5238  -5.5186  -5.5127  -5.5033  -5.4807
    -5.4639  -5.4396  -5.4355  -5.4147  -5.3942  -5.3696  -5.3645  -5.1453
    -5.0872  -5.0602  -4.9907  -4.9062  -4.5728  -4.5661  -4.4737  -4.3016
    -4.0319  -3.9350  -3.9188  -3.5507  -3.4973  -3.4666  -3.0854  -2.8468
    -2.8374  -2.7849  -2.6087  -2.3604  -2.1318  -1.9768  -1.9761  -1.8878
    -1.8687  -1.5930  -1.5376  -1.3155  -1.2008  -1.1680  -1.1583  -0.7138
    -0.6698  -0.6436  -0.5669  -0.4439  -0.4378  -0.4213  -0.3988  -0.3136
    -0.2262   0.2510   0.3628   0.3981   0.5890   0.5914   0.6843   0.7027
     0.9695   1.2618   1.3827   1.3962   1.4141   1.4449   1.6458   1.9091
     1.9816   2.0044   2.0728   2.3257   2.5694   2.6251   2.7467   2.8437
     2.8888   2.9051   2.9158   3.3505   3.4204   3.5007   3.5935   3.6059
     3.7772   3.7915   3.9882   4.1895   4.2769   4.3028   4.3405   4.4198
     4.4266   4.4977   4.5157   4.6475   4.7420   4.7895   4.8214   4.9463
     4.9690   4.9812   5.0304   5.0891   5.2430   5.2596   5.3732   5.4194
     5.4855   5.5081   5.6010   5.6788   5.7394   5.7617   5.9939   6.0003
     6.0662   6.0867   6.2578   6.2715   6.3049   6.4270   6.4892   6.4984
     6.5230   6.5800   6.6143   6.6418   6.6906   6.7521   6.8343   6.8603
     6.8837   6.9094   6.9552   6.9999   7.0412   7.0615   7.1743   7.2061
     7.2545   7.2795   7.3492   7.3824   7.3993   7.4384   7.4631   7.4954
     7.5225   7.5699   7.6159   7.6402   7.6779   7.7700   7.8321   7.8627
     7.8996   7.9115   7.9447   7.9687   8.0378   8.0838

     occupation numbers 
     1.0000   1.0000   1.0000   1.0000   1.0000   1.0000   1.0000   1.0000
     1.0000   1.0000   1.0000   1.0000   1.0000   1.0000   1.0000   1.0000
     1.0000   1.0000   1.0000   1.0000   1.0000   1.0000   1.0000   1.0000
     1.0000   1.0000   1.0000   1.0000   1.0000   1.0000   1.0000   1.0000
     1.0000   1.0000   1.0000   1.0000   1.0000   1.0000   1.0000   1.0000
     1.0000   1.0000   1.0000   1.0000   1.0000   1.0000   1.0000   1.0000
     1.0000   1.0000   1.0000   1.0000   1.0000   1.0000   1.0000   1.0000
     1.0000   1.0000   1.0000   1.0000   1.0000   1.0000   1.0000   1.0000
     1.0000   1.0000   1.0000   1.0000   1.0000   1.0000   1.0000   1.0000
     1.0000   1.0000   1.0000   1.0000   1.0000   1.0000   1.0000   1.0000
     1.0000   1.0000   1.0000   1.0000   1.0000   1.0000   1.0000   1.0000
     1.0000   1.0000   1.0000   1.0000   1.0000   1.0000   1.0000   1.0000
     1.0000   1.0000   1.0000   1.0000   1.0000   1.0000   1.0000   1.0000
     1.0000   1.0000   1.0000   1.0000   1.0000   1.0000   1.0000   1.0000
     1.0000   1.0000   1.0000   1.0000   1.0000   1.0000   1.0000   1.0000
     1.0000   1.0000   1.0000   1.0000   1.0000   1.0000   1.0000   1.0000
     1.0000   1.0000   1.0000   1.0000   1.0000   1.0000   1.0000   1.0000
     1.0000   1.0000   1.0000   1.0000   1.0000   1.0000   1.0000   1.0000
     1.0000   1.0000   1.0000   1.0000   1.0000   1.0000   1.0000   1.0000
     1.0000   1.0000   1.0000   1.0000   1.0000   1.0000   1.0000   1.0000
     1.0000   1.0000   1.0000   1.0000   1.0000   1.0000   1.0000   1.0000
     1.0000   1.0000   1.0000   1.0000   1.0000   1.0000   1.0000   1.0000
     1.0000   1.0000   1.0000   1.0000   1.0000   1.0000   1.0000   1.0000
     1.0000   1.0000   1.0000   1.0000   1.0000   1.0000   1.0000   1.0000
     1.0000   1.0000   1.0000   1.0000   1.0000   1.0000   1.0000   1.0000
     1.0000   1.0000   1.0000   1.0000   1.0000   1.0000   1.0000   1.0000
     1.0000   1.0000   1.0000   1.0000   1.0000   1.0000   1.0000   1.0000
     1.0000   1.0000   1.0000   1.0000   1.0000   1.0000   1.0000   1.0000
     1.0000   1.0000   1.0000   1.0000   1.0000   1.0000   1.0000   1.0000
     1.0000   1.0000   1.0000   1.0000   1.0000   1.0000   1.0000   1.0000
     1.0000   1.0000   1.0000   1.0000   1.0000   1.0000   1.0000   1.0000
     1.0000   1.0000   1.0000   1.0000   1.0000   1.0000   1.0000   1.0000
     1.0000   1.0000   1.0000   1.0000   1.0000   1.0000   1.0000   1.0000
     1.0000   1.0000   1.0000   1.0000   1.0000   1.0000   1.0000   1.0000
     1.0000   1.0000   1.0000   1.0000   1.0000   1.0000   1.0000   1.0000
     1.0000   1.0000   1.0000   1.0000   1.0000   1.0000   1.0000   1.0000
     1.0000   1.0000   1.0000   1.0000   1.0000   1.0000   1.0000   1.0000
     1.0000   1.0000   1.0000   1.0000   1.0000   1.0000   1.0000   1.0000
     1.0000   1.0000   1.0000   1.0000   1.0000   1.0000   1.0000   1.0000
     1.0000   1.0000   1.0000   1.0000   1.0000   1.0000   1.0000   1.0000
     1.0000   1.0000   1.0000   1.0000   1.0000   1.0000   1.0000   1.0000
     1.0000   1.0000   1.0000   1.0000   1.0000   1.0000   1.0000   1.0000
     1.0000   1.0000   1.0000   1.0000   1.0000   1.0000   1.0000   1.0000
     1.0000   1.0000   1.0000   1.0000   1.0000   1.0000   1.0000   1.0000
     1.0000   1.0000   1.0000   1.0000   1.0000   1.0000   1.0000   1.0000
     1.0000   1.0000   1.0000   1.0000   1.0000   1.0000   1.0000   1.0000
     1.0000   1.0000   1.0000   1.0000   1.0000   1.0000   1.0000   1.0000
     1.0000   1.0000   1.0000   1.0000   1.0000   1.0000   1.0000   1.0000
     1.0000   1.0000   1.0000   1.0000   1.0000   1.0000   1.0000   1.0000
     1.0000   1.0000   1.0000   1.0000   1.0000   1.0000   1.0000   1.0000
     1.0000   1.0000   1.0000   1.0000   1.0000   1.0000   1.0000   1.0000
     1.0000   1.0000   1.0000   1.0000   1.0000   1.0000   1.0000   1.0000
     1.0000   1.0000   1.0000   1.0000   1.0000   1.0000   1.0000   1.0000
     1.0000   1.0000   1.0000   1.0000   1.0000   1.0000   1.0000   1.0000
     1.0000   1.0000   1.0000   1.0000   1.0000   1.0000   1.0000   1.0000
     1.0000   1.0000   1.0000   1.0000   1.0000   1.0000   1.0000   1.0000
     1.0000   1.0000   1.0000   1.0000   1.0000   1.0000   1.0000   1.0000
     1.0000   1.0000   1.0000   1.0000   1.0000   1.0000   1.0000   1.0000
     1.0000   1.0000   1.0000   1.0000   1.0000   1.0000   1.0000   1.0000
     1.0000   1.0000   1.0000   1.0000   1.0000   1.0000   1.0000   1.0000
     1.0000   1.0000   1.0000   1.0000   1.0000   1.0000   1.0000   1.0000
     1.0000   1.0002   1.0012   1.0021   1.0242   1.0248   1.0532   1.0595
     0.9581   0.2463   0.0791   0.0681   0.0555   0.0383   0.0018   0.0000
     0.0000   0.0000   0.0000   0.0000   0.0000   0.0000   0.0000   0.0000
     0.0000   0.0000   0.0000   0.0000   0.0000   0.0000   0.0000   0.0000
     0.0000   0.0000   0.0000   0.0000   0.0000   0.0000   0.0000   0.0000
     0.0000   0.0000   0.0000   0.0000   0.0000   0.0000   0.0000   0.0000
     0.0000   0.0000   0.0000   0.0000   0.0000   0.0000   0.0000   0.0000
     0.0000   0.0000   0.0000   0.0000   0.0000   0.0000   0.0000   0.0000
     0.0000   0.0000   0.0000   0.0000   0.0000   0.0000   0.0000   0.0000
     0.0000   0.0000   0.0000   0.0000   0.0000   0.0000   0.0000   0.0000
     0.0000   0.0000   0.0000   0.0000   0.0000   0.0000   0.0000   0.0000
     0.0000   0.0000   0.0000   0.0000   0.0000   0.0000   0.0000   0.0000
     0.0000   0.0000   0.0000   0.0000   0.0000   0.0000   0.0000   0.0000
     0.0000   0.0000   0.0000   0.0000   0.0000   0.0000

          k = 0.3333 0.4439 0.9230 ( 71974 PWs)   bands (ev):

  -125.3606-125.3569-125.3559-125.3520-125.2891-125.2882-125.2827-125.2818
  -125.2773-125.2764-125.2727-125.2714-125.2166-125.2132-125.2122-125.2113
  -125.1994-125.1985-125.1965-125.1946-125.1943-125.1931-125.1928-125.1872
  -125.1056-125.1043-125.0985-125.0959-125.0777-125.0750-125.0731-125.0701
  -125.0347-125.0333-125.0328-125.0314-124.9875-124.9839-124.9823-124.9798
  -124.9594-124.9576-124.9571-124.9554-124.9497-124.9474-124.9420-124.9193
   -79.5165 -79.5155 -79.5130 -79.5118 -79.5102 -79.5085 -79.5082 -79.5048
   -79.5033 -79.4999 -79.4977 -79.4923 -79.4466 -79.4458 -79.4454 -79.4403
   -79.4398 -79.4389 -79.4373 -79.4364 -79.4362 -79.4334 -79.4324 -79.4308
   -79.4307 -79.4298 -79.4287 -79.4286 -79.4274 -79.4260 -79.4249 -79.4219
   -79.4210 -79.4197 -79.4189 -79.4133 -79.3744 -79.3737 -79.3708 -79.3698
   -79.3693 -79.3685 -79.3658 -79.3622 -79.3615 -79.3609 -79.3603 -79.3598
   -79.3567 -79.3562 -79.3561 -79.3550 -79.3531 -79.3519 -79.3516 -79.3513
   -79.3502 -79.3483 -79.3482 -79.3448 -79.3442 -79.3436 -79.3429 -79.3416
   -79.3401 -79.3398 -79.3389 -79.3387 -79.3371 -79.3348 -79.3331 -79.3312
   -79.2677 -79.2664 -79.2625 -79.2607 -79.2582 -79.2556 -79.2549 -79.2539
   -79.2481 -79.2456 -79.2447 -79.2403 -79.2377 -79.2375 -79.2356 -79.2351
   -79.2326 -79.2292 -79.2282 -79.2255 -79.2236 -79.2207 -79.2178 -79.2119
   -79.1987 -79.1972 -79.1967 -79.1953 -79.1913 -79.1865 -79.1856 -79.1843
   -79.1838 -79.1825 -79.1744 -79.1696 -79.1543 -79.1505 -79.1488 -79.1464
   -79.1421 -79.1371 -79.1360 -79.1338 -79.1323 -79.1299 -79.1284 -79.1269
   -79.1264 -79.1247 -79.1241 -79.1209 -79.1188 -79.1187 -79.1128 -79.1111
   -79.1100 -79.1084 -79.1084 -79.1041 -79.1024 -79.1008 -79.1002 -79.1001
   -79.0958 -79.0945 -79.0880 -79.0836 -79.0798 -79.0763 -79.0762 -79.0581
   -17.4806 -15.2940 -12.8523 -12.4523  -9.5532  -9.2028  -8.0428  -7.7545
    -7.7279  -7.4330  -7.1076  -7.0436  -6.9963  -6.9539  -6.9294  -6.9024
    -6.8993  -6.8679  -6.8606  -6.8543  -6.8441  -6.8055  -6.7999  -6.7967
    -6.7879  -6.7813  -6.7789  -6.7677  -6.7489  -6.7455  -6.7419  -6.7393
    -6.7215  -6.7180  -6.7136  -6.7121  -6.7073  -6.6919  -6.6874  -6.6763
    -6.6551  -6.6431  -6.6379  -6.6255  -6.6233  -6.6212  -6.6192  -6.5925
    -6.5778  -6.5770  -6.5655  -6.5479  -6.5459  -6.5401  -6.5382  -6.5276
    -6.5123  -6.5103  -6.5092  -6.4950  -6.4910  -6.4886  -6.4619  -6.4608
    -6.4576  -6.4467  -6.4288  -6.4126  -6.4045  -6.4020  -6.4002  -6.3901
    -6.3825  -6.3775  -6.3692  -6.3674  -6.3561  -6.3533  -6.3507  -6.3450
    -6.3275  -6.3247  -6.3133  -6.3078  -6.3073  -6.3022  -6.2954  -6.2904
    -6.2860  -6.2839  -6.2750  -6.2731  -6.2644  -6.2520  -6.2496  -6.2426
    -6.2415  -6.2238  -6.2185  -6.2167  -6.2079  -6.2054  -6.1985  -6.1955
    -6.1930  -6.1842  -6.1828  -6.1794  -6.1700  -6.1666  -6.1636  -6.1567
    -6.1518  -6.1416  -6.1375  -6.1313  -6.1272  -6.1235  -6.1185  -6.1101
    -6.0947  -6.0899  -6.0846  -6.0756  -6.0723  -6.0699  -6.0678  -6.0628
    -6.0609  -6.0543  -6.0508  -6.0416  -6.0387  -6.0350  -6.0167  -6.0138
    -6.0078  -6.0041  -5.9987  -5.9919  -5.9905  -5.9858  -5.9829  -5.9817
    -5.9724  -5.9636  -5.9555  -5.9518  -5.9438  -5.9389  -5.9320  -5.9237
    -5.9185  -5.9141  -5.9050  -5.9036  -5.8993  -5.8958  -5.8857  -5.8829
    -5.8816  -5.8735  -5.8710  -5.8662  -5.8558  -5.8552  -5.8506  -5.8459
    -5.8451  -5.8424  -5.8407  -5.8359  -5.8245  -5.8230  -5.8191  -5.8124
    -5.8057  -5.8044  -5.8010  -5.8008  -5.7878  -5.7845  -5.7795  -5.7748
    -5.7735  -5.7710  -5.7657  -5.7647  -5.7552  -5.7498  -5.7469  -5.7446
    -5.7402  -5.7385  -5.7365  -5.7346  -5.7326  -5.7278  -5.7264  -5.7235
    -5.7147  -5.7127  -5.7067  -5.7047  -5.7010  -5.6985  -5.6976  -5.6924
    -5.6903  -5.6868  -5.6839  -5.6800  -5.6766  -5.6753  -5.6690  -5.6661
    -5.6639  -5.6612  -5.6587  -5.6574  -5.6505  -5.6492  -5.6442  -5.6429
    -5.6345  -5.6271  -5.6242  -5.6189  -5.6165  -5.6088  -5.6072  -5.6042
    -5.5986  -5.5977  -5.5930  -5.5897  -5.5872  -5.5797  -5.5747  -5.5682
    -5.5667  -5.5563  -5.5525  -5.5443  -5.5429  -5.5424  -5.5077  -5.4887
    -5.4860  -5.4781  -5.4443  -5.4393  -5.4006  -5.2704  -5.0606  -5.0521
    -4.9959  -4.9872  -4.9467  -4.9034  -4.6969  -4.5972  -4.5731  -4.3217
    -4.0802  -3.9278  -3.7406  -3.3620  -3.3526  -3.0953  -3.0685  -2.8949
    -2.8082  -2.7804  -2.6718  -2.6092  -2.5171  -2.3743  -2.2665  -2.2069
    -2.1171  -2.0459  -1.8729  -1.4687  -1.4641  -1.1058  -1.0334  -0.7883
    -0.7140  -0.6099  -0.5302  -0.4440  -0.1567  -0.0572  -0.0043   0.0228
     0.1035   0.3031   0.5482   0.5723   0.6490   0.6770   0.6842   0.7908
     1.0124   1.0413   1.3962   1.4062   1.5652   1.7200   1.8372   2.0087
     2.1028   2.2810   2.3377   2.3391   2.3436   2.5715   2.7679   2.9401
     2.9718   3.0783   3.1979   3.2204   3.3260   3.4160   3.5306   3.5964
     3.7165   3.7448   3.8119   4.0329   4.0654   4.1735   4.2081   4.2560
     4.3275   4.3396   4.4206   4.5204   4.5861   4.6337   4.7049   4.7877
     4.9343   5.0482   5.0689   5.0871   5.2461   5.3576   5.3996   5.4264
     5.4777   5.5293   5.5700   5.6019   5.6314   5.7741   5.8597   5.8683
     5.9867   6.0599   6.1236   6.1831   6.1922   6.2851   6.3126   6.3233
     6.3630   6.4208   6.4770   6.5140   6.5608   6.6491   6.6793   6.7167
     6.7287   6.7491   6.7979   6.8482   6.9974   7.0954   7.1393   7.1761
     7.2592   7.2682   7.2946   7.3822   7.4544   7.4823   7.5040   7.5490
     7.6331   7.6972   7.7437   7.8016   7.8472   7.8742   7.9692   8.0312
     8.0808   8.1011   8.1354   8.1551   8.2126   8.2423

     occupation numbers 
     1.0000   1.0000   1.0000   1.0000   1.0000   1.0000   1.0000   1.0000
     1.0000   1.0000   1.0000   1.0000   1.0000   1.0000   1.0000   1.0000
     1.0000   1.0000   1.0000   1.0000   1.0000   1.0000   1.0000   1.0000
     1.0000   1.0000   1.0000   1.0000   1.0000   1.0000   1.0000   1.0000
     1.0000   1.0000   1.0000   1.0000   1.0000   1.0000   1.0000   1.0000
     1.0000   1.0000   1.0000   1.0000   1.0000   1.0000   1.0000   1.0000
     1.0000   1.0000   1.0000   1.0000   1.0000   1.0000   1.0000   1.0000
     1.0000   1.0000   1.0000   1.0000   1.0000   1.0000   1.0000   1.0000
     1.0000   1.0000   1.0000   1.0000   1.0000   1.0000   1.0000   1.0000
     1.0000   1.0000   1.0000   1.0000   1.0000   1.0000   1.0000   1.0000
     1.0000   1.0000   1.0000   1.0000   1.0000   1.0000   1.0000   1.0000
     1.0000   1.0000   1.0000   1.0000   1.0000   1.0000   1.0000   1.0000
     1.0000   1.0000   1.0000   1.0000   1.0000   1.0000   1.0000   1.0000
     1.0000   1.0000   1.0000   1.0000   1.0000   1.0000   1.0000   1.0000
     1.0000   1.0000   1.0000   1.0000   1.0000   1.0000   1.0000   1.0000
     1.0000   1.0000   1.0000   1.0000   1.0000   1.0000   1.0000   1.0000
     1.0000   1.0000   1.0000   1.0000   1.0000   1.0000   1.0000   1.0000
     1.0000   1.0000   1.0000   1.0000   1.0000   1.0000   1.0000   1.0000
     1.0000   1.0000   1.0000   1.0000   1.0000   1.0000   1.0000   1.0000
     1.0000   1.0000   1.0000   1.0000   1.0000   1.0000   1.0000   1.0000
     1.0000   1.0000   1.0000   1.0000   1.0000   1.0000   1.0000   1.0000
     1.0000   1.0000   1.0000   1.0000   1.0000   1.0000   1.0000   1.0000
     1.0000   1.0000   1.0000   1.0000   1.0000   1.0000   1.0000   1.0000
     1.0000   1.0000   1.0000   1.0000   1.0000   1.0000   1.0000   1.0000
     1.0000   1.0000   1.0000   1.0000   1.0000   1.0000   1.0000   1.0000
     1.0000   1.0000   1.0000   1.0000   1.0000   1.0000   1.0000   1.0000
     1.0000   1.0000   1.0000   1.0000   1.0000   1.0000   1.0000   1.0000
     1.0000   1.0000   1.0000   1.0000   1.0000   1.0000   1.0000   1.0000
     1.0000   1.0000   1.0000   1.0000   1.0000   1.0000   1.0000   1.0000
     1.0000   1.0000   1.0000   1.0000   1.0000   1.0000   1.0000   1.0000
     1.0000   1.0000   1.0000   1.0000   1.0000   1.0000   1.0000   1.0000
     1.0000   1.0000   1.0000   1.0000   1.0000   1.0000   1.0000   1.0000
     1.0000   1.0000   1.0000   1.0000   1.0000   1.0000   1.0000   1.0000
     1.0000   1.0000   1.0000   1.0000   1.0000   1.0000   1.0000   1.0000
     1.0000   1.0000   1.0000   1.0000   1.0000   1.0000   1.0000   1.0000
     1.0000   1.0000   1.0000   1.0000   1.0000   1.0000   1.0000   1.0000
     1.0000   1.0000   1.0000   1.0000   1.0000   1.0000   1.0000   1.0000
     1.0000   1.0000   1.0000   1.0000   1.0000   1.0000   1.0000   1.0000
     1.0000   1.0000   1.0000   1.0000   1.0000   1.0000   1.0000   1.0000
     1.0000   1.0000   1.0000   1.0000   1.0000   1.0000   1.0000   1.0000
     1.0000   1.0000   1.0000   1.0000   1.0000   1.0000   1.0000   1.0000
     1.0000   1.0000   1.0000   1.0000   1.0000   1.0000   1.0000   1.0000
     1.0000   1.0000   1.0000   1.0000   1.0000   1.0000   1.0000   1.0000
     1.0000   1.0000   1.0000   1.0000   1.0000   1.0000   1.0000   1.0000
     1.0000   1.0000   1.0000   1.0000   1.0000   1.0000   1.0000   1.0000
     1.0000   1.0000   1.0000   1.0000   1.0000   1.0000   1.0000   1.0000
     1.0000   1.0000   1.0000   1.0000   1.0000   1.0000   1.0000   1.0000
     1.0000   1.0000   1.0000   1.0000   1.0000   1.0000   1.0000   1.0000
     1.0000   1.0000   1.0000   1.0000   1.0000   1.0000   1.0000   1.0000
     1.0000   1.0000   1.0000   1.0000   1.0000   1.0000   1.0000   1.0000
     1.0000   1.0000   1.0000   1.0000   1.0000   1.0000   1.0000   1.0000
     1.0000   1.0000   1.0000   1.0000   1.0000   1.0000   1.0000   1.0000
     1.0000   1.0000   1.0000   1.0000   1.0000   1.0000   1.0000   1.0000
     1.0000   1.0000   1.0000   1.0000   1.0000   1.0000   1.0000   1.0000
     1.0000   1.0000   1.0000   1.0000   1.0000   1.0000   1.0000   1.0000
     1.0000   1.0000   1.0000   1.0000   1.0000   1.0000   1.0000   1.0000
     1.0000   1.0000   1.0000   1.0000   1.0000   1.0000   1.0000   1.0000
[...]
     estimated scf accuracy    <       0.00010124 Ry

     iteration #179     ecut=    40.00 Ry     beta= 0.40
     Davidson diagonalization with overlap

---- Real-time Memory Report at c_bands before calling an iterative solver
           661 MiB given to the printing process from OS
             0 MiB allocation reported by mallinfo(arena+hblkhd)
        151559 MiB available memory on the node where the printing process lives
------------------
     ethr =  1.19E-09,  avg # of iterations =  5.8

     negative rho (up, down):  3.751E-03 0.000E+00

     total cpu time spent up to now is    30976.5 secs

     total energy              =  -22293.60581332 Ry
     estimated scf accuracy    <       0.00002122 Ry

     iteration #180     ecut=    40.00 Ry     beta= 0.40
     Davidson diagonalization with overlap

---- Real-time Memory Report at c_bands before calling an iterative solver
           661 MiB given to the printing process from OS
             0 MiB allocation reported by mallinfo(arena+hblkhd)
        151556 MiB available memory on the node where the printing process lives
------------------
     ethr =  1.19E-09,  avg # of iterations =  3.0

     negative rho (up, down):  3.750E-03 0.000E+00

     total cpu time spent up to now is    31099.5 secs

     total energy              =  -22293.60591066 Ry
     estimated scf accuracy    <       0.00004787 Ry

     iteration #181     ecut=    40.00 Ry     beta= 0.40
     Davidson diagonalization with overlap

---- Real-time Memory Report at c_bands before calling an iterative solver
           661 MiB given to the printing process from OS
             0 MiB allocation reported by mallinfo(arena+hblkhd)
        151555 MiB available memory on the node where the printing process lives
------------------
     ethr =  1.19E-09,  avg # of iterations = 11.4

     negative rho (up, down):  3.753E-03 0.000E+00

     total cpu time spent up to now is    31238.8 secs

     total energy              =  -22293.60578677 Ry
     estimated scf accuracy    <       0.00019282 Ry

     iteration #182     ecut=    40.00 Ry     beta= 0.40
     Davidson diagonalization with overlap

---- Real-time Memory Report at c_bands before calling an iterative solver
           661 MiB given to the printing process from OS
             0 MiB allocation reported by mallinfo(arena+hblkhd)
        151554 MiB available memory on the node where the printing process lives
------------------
     ethr =  1.19E-09,  avg # of iterations = 12.2

     negative rho (up, down):  3.754E-03 0.000E+00

     total cpu time spent up to now is    31410.3 secs

     total energy              =  -22293.60569102 Ry
     estimated scf accuracy    <       0.00003686 Ry

     iteration #183     ecut=    40.00 Ry     beta= 0.40
     Davidson diagonalization with overlap

---- Real-time Memory Report at c_bands before calling an iterative solver
           661 MiB given to the printing process from OS
             0 MiB allocation reported by mallinfo(arena+hblkhd)
        151552 MiB available memory on the node where the printing process lives
------------------
     ethr =  1.19E-09,  avg # of iterations =  5.0

     negative rho (up, down):  3.753E-03 0.000E+00

     total cpu time spent up to now is    31537.6 secs

     total energy              =  -22293.60571273 Ry
     estimated scf accuracy    <       0.00021447 Ry

     iteration #184     ecut=    40.00 Ry     beta= 0.40
     Davidson diagonalization with overlap

---- Real-time Memory Report at c_bands before calling an iterative solver
           661 MiB given to the printing process from OS
             0 MiB allocation reported by mallinfo(arena+hblkhd)
        151551 MiB available memory on the node where the printing process lives
------------------
     ethr =  1.19E-09,  avg # of iterations =  3.4

     negative rho (up, down):  3.755E-03 0.000E+00

     total cpu time spent up to now is    31661.7 secs

     total energy              =  -22293.60562010 Ry
     estimated scf accuracy    <       0.00008550 Ry

     iteration #185     ecut=    40.00 Ry     beta= 0.40
     Davidson diagonalization with overlap

---- Real-time Memory Report at c_bands before calling an iterative solver
           661 MiB given to the printing process from OS
             0 MiB allocation reported by mallinfo(arena+hblkhd)
        151549 MiB available memory on the node where the printing process lives
------------------
     ethr =  1.19E-09,  avg # of iterations =  7.4

     negative rho (up, down):  3.755E-03 0.000E+00

     total cpu time spent up to now is    31795.1 secs

     total energy              =  -22293.60558214 Ry
     estimated scf accuracy    <       0.00039810 Ry

     iteration #186     ecut=    40.00 Ry     beta= 0.40
     Davidson diagonalization with overlap

---- Real-time Memory Report at c_bands before calling an iterative solver
           661 MiB given to the printing process from OS
             0 MiB allocation reported by mallinfo(arena+hblkhd)
        151548 MiB available memory on the node where the printing process lives
------------------
     ethr =  1.19E-09,  avg # of iterations =  3.0

     negative rho (up, down):  3.753E-03 0.000E+00

     total cpu time spent up to now is    31915.2 secs

     total energy              =  -22293.60581852 Ry
     estimated scf accuracy    <       0.00029357 Ry

     iteration #187     ecut=    40.00 Ry     beta= 0.40
     Davidson diagonalization with overlap

---- Real-time Memory Report at c_bands before calling an iterative solver
           661 MiB given to the printing process from OS
             0 MiB allocation reported by mallinfo(arena+hblkhd)
        151546 MiB available memory on the node where the printing process lives
------------------
     ethr =  1.19E-09,  avg # of iterations =  6.0

     negative rho (up, down):  3.753E-03 0.000E+00

     total cpu time spent up to now is    32043.2 secs

     total energy              =  -22293.60572052 Ry
     estimated scf accuracy    <       0.00004739 Ry

     iteration #188     ecut=    40.00 Ry     beta= 0.40
     Davidson diagonalization with overlap

---- Real-time Memory Report at c_bands before calling an iterative solver
           661 MiB given to the printing process from OS
             0 MiB allocation reported by mallinfo(arena+hblkhd)
        151545 MiB available memory on the node where the printing process lives
------------------
     ethr =  1.19E-09,  avg # of iterations =  2.0

     negative rho (up, down):  3.752E-03 0.000E+00

     total cpu time spent up to now is    32161.0 secs

     total energy              =  -22293.60580341 Ry
     estimated scf accuracy    <       0.00003644 Ry

     iteration #189     ecut=    40.00 Ry     beta= 0.40
     Davidson diagonalization with overlap

---- Real-time Memory Report at c_bands before calling an iterative solver
           661 MiB given to the printing process from OS
             0 MiB allocation reported by mallinfo(arena+hblkhd)
        151543 MiB available memory on the node where the printing process lives
------------------
     ethr =  1.19E-09,  avg # of iterations =  4.0

     negative rho (up, down):  3.752E-03 0.000E+00

     total cpu time spent up to now is    32284.1 secs

     total energy              =  -22293.60575343 Ry
     estimated scf accuracy    <       0.00001198 Ry

     iteration #190     ecut=    40.00 Ry     beta= 0.40
     Davidson diagonalization with overlap

---- Real-time Memory Report at c_bands before calling an iterative solver
           661 MiB given to the printing process from OS
             0 MiB allocation reported by mallinfo(arena+hblkhd)
        151542 MiB available memory on the node where the printing process lives
------------------
     ethr =  1.19E-09,  avg # of iterations =  2.0

     negative rho (up, down):  3.752E-03 0.000E+00

     total cpu time spent up to now is    32399.2 secs

     total energy              =  -22293.60575887 Ry
     estimated scf accuracy    <       0.00001281 Ry

     iteration #191     ecut=    40.00 Ry     beta= 0.40
     Davidson diagonalization with overlap

---- Real-time Memory Report at c_bands before calling an iterative solver
           661 MiB given to the printing process from OS
             0 MiB allocation reported by mallinfo(arena+hblkhd)
        151538 MiB available memory on the node where the printing process lives
------------------
     ethr =  1.19E-09,  avg # of iterations =  2.0

     negative rho (up, down):  3.752E-03 0.000E+00

     total cpu time spent up to now is    32515.6 secs

     total energy              =  -22293.60576285 Ry
     estimated scf accuracy    <       0.00001197 Ry

     iteration #192     ecut=    40.00 Ry     beta= 0.40
     Davidson diagonalization with overlap

---- Real-time Memory Report at c_bands before calling an iterative solver
           661 MiB given to the printing process from OS
             0 MiB allocation reported by mallinfo(arena+hblkhd)
        151539 MiB available memory on the node where the printing process lives
------------------
     ethr =  1.19E-09,  avg # of iterations =  2.0

     negative rho (up, down):  3.751E-03 0.000E+00

     total cpu time spent up to now is    32631.7 secs

     total energy              =  -22293.60576877 Ry
     estimated scf accuracy    <       0.00001231 Ry

     iteration #193     ecut=    40.00 Ry     beta= 0.40
     Davidson diagonalization with overlap

---- Real-time Memory Report at c_bands before calling an iterative solver
           661 MiB given to the printing process from OS
             0 MiB allocation reported by mallinfo(arena+hblkhd)
        151538 MiB available memory on the node where the printing process lives
------------------
     ethr =  1.19E-09,  avg # of iterations =  2.0

     negative rho (up, down):  3.751E-03 0.000E+00

     total cpu time spent up to now is    32749.3 secs

     total energy              =  -22293.60577235 Ry
     estimated scf accuracy    <       0.00001379 Ry

     iteration #194     ecut=    40.00 Ry     beta= 0.40
     Davidson diagonalization with overlap

---- Real-time Memory Report at c_bands before calling an iterative solver
           661 MiB given to the printing process from OS
             0 MiB allocation reported by mallinfo(arena+hblkhd)
        151537 MiB available memory on the node where the printing process lives
------------------
     ethr =  1.19E-09,  avg # of iterations =  2.0

     negative rho (up, down):  3.750E-03 0.000E+00

     total cpu time spent up to now is    32866.7 secs

     total energy              =  -22293.60589481 Ry
     estimated scf accuracy    <       0.00001544 Ry

     iteration #195     ecut=    40.00 Ry     beta= 0.40
     Davidson diagonalization with overlap

---- Real-time Memory Report at c_bands before calling an iterative solver
           661 MiB given to the printing process from OS
             0 MiB allocation reported by mallinfo(arena+hblkhd)
        151536 MiB available memory on the node where the printing process lives
------------------
     c_bands:  1 eigenvalues not converged
     ethr =  1.19E-09,  avg # of iterations = 13.4

     negative rho (up, down):  3.751E-03 0.000E+00

     total cpu time spent up to now is    33011.0 secs

     total energy              =  -22293.60579676 Ry
     estimated scf accuracy    <       0.00013429 Ry

     iteration #196     ecut=    40.00 Ry     beta= 0.40
     Davidson diagonalization with overlap

---- Real-time Memory Report at c_bands before calling an iterative solver
           661 MiB given to the printing process from OS
             0 MiB allocation reported by mallinfo(arena+hblkhd)
        151726 MiB available memory on the node where the printing process lives
------------------
     ethr =  1.19E-09,  avg # of iterations =  4.0

     negative rho (up, down):  3.751E-03 0.000E+00

     total cpu time spent up to now is    33135.2 secs

     total energy              =  -22293.60577315 Ry
     estimated scf accuracy    <       0.00003512 Ry

     iteration #197     ecut=    40.00 Ry     beta= 0.40
     Davidson diagonalization with overlap

---- Real-time Memory Report at c_bands before calling an iterative solver
           661 MiB given to the printing process from OS
             0 MiB allocation reported by mallinfo(arena+hblkhd)
        151720 MiB available memory on the node where the printing process lives
------------------
     ethr =  1.19E-09,  avg # of iterations =  6.8

     negative rho (up, down):  3.752E-03 0.000E+00

     total cpu time spent up to now is    33261.6 secs

     total energy              =  -22293.60575694 Ry
     estimated scf accuracy    <       0.00001393 Ry

     iteration #198     ecut=    40.00 Ry     beta= 0.40
     Davidson diagonalization with overlap

---- Real-time Memory Report at c_bands before calling an iterative solver
           661 MiB given to the printing process from OS
             0 MiB allocation reported by mallinfo(arena+hblkhd)
        151719 MiB available memory on the node where the printing process lives
------------------
     ethr =  1.19E-09,  avg # of iterations =  6.4

     negative rho (up, down):  3.753E-03 0.000E+00

     total cpu time spent up to now is    33387.5 secs

     total energy              =  -22293.60573621 Ry
     estimated scf accuracy    <       0.00001426 Ry

     iteration #199     ecut=    40.00 Ry     beta= 0.40
     Davidson diagonalization with overlap

---- Real-time Memory Report at c_bands before calling an iterative solver
           661 MiB given to the printing process from OS
             0 MiB allocation reported by mallinfo(arena+hblkhd)
        151717 MiB available memory on the node where the printing process lives
------------------
     ethr =  1.19E-09,  avg # of iterations =  4.0

     negative rho (up, down):  3.753E-03 0.000E+00

     total cpu time spent up to now is    33511.2 secs

     total energy              =  -22293.60571469 Ry
     estimated scf accuracy    <       0.00003564 Ry

     iteration #200     ecut=    40.00 Ry     beta= 0.40
     Davidson diagonalization with overlap

---- Real-time Memory Report at c_bands before calling an iterative solver
           661 MiB given to the printing process from OS
             0 MiB allocation reported by mallinfo(arena+hblkhd)
        151716 MiB available memory on the node where the printing process lives
------------------
     ethr =  1.19E-09,  avg # of iterations =  2.0

     negative rho (up, down):  3.753E-03 0.000E+00

     total cpu time spent up to now is    33625.4 secs

     total energy              =  -22293.60570619 Ry
     estimated scf accuracy    <       0.00004354 Ry

     End of self-consistent calculation

     convergence NOT achieved after 200 iterations: stopping

     Writing config to output data dir ./tmp/Zn101_3layer_aniline_relax.save/ :
     XML data file, charge density

     init_run     :     41.35s CPU     41.74s WALL (       1 calls)
     electrons    :  32193.83s CPU  32392.11s WALL (       7 calls)
     update_pot   :      1.83s CPU      1.94s WALL (       6 calls)
     forces       :    125.41s CPU    126.80s WALL (       6 calls)
     force_dftd3  :      1.38s CPU      1.40s WALL (       6 calls)
     stress       :   1026.21s CPU   1030.76s WALL (       6 calls)
     stres_dftd3  :      1.37s CPU      1.38s WALL (       6 calls)

     Called by init_run:
     wfcinit      :     39.59s CPU     39.83s WALL (       1 calls)
     wfcinit:atom :      0.08s CPU      0.08s WALL (       5 calls)
     wfcinit:wfcr :     39.02s CPU     39.24s WALL (       5 calls)
     potinit      :      0.52s CPU      0.57s WALL (       1 calls)
     hinit0       :      0.57s CPU      0.59s WALL (       1 calls)

     Called by electrons:
     c_bands      :  27935.34s CPU  28091.50s WALL (     260 calls)
     sum_band     :   4090.97s CPU   4120.46s WALL (     260 calls)
     v_of_rho     :     58.38s CPU     61.13s WALL (     261 calls)
     v_h          :      3.24s CPU      3.91s WALL (     261 calls)
     v_xc         :     57.46s CPU     59.69s WALL (     273 calls)
     newd         :     85.17s CPU     93.49s WALL (     261 calls)
     PAW_pot      :     14.67s CPU     14.74s WALL (     267 calls)
     mix_rho      :      7.45s CPU      8.03s WALL (     260 calls)
     energy_dftd3 :      0.82s CPU      0.82s WALL (       7 calls)

     Called by c_bands:
     init_us_2    :     62.34s CPU     62.76s WALL (    2695 calls)
     cegterg      :  27809.87s CPU  27964.09s WALL (    1300 calls)

     Called by sum_band:
     sum_band:wei :      0.31s CPU      0.33s WALL (     260 calls)
     sum_band:loo :   4001.13s CPU   4017.41s WALL (     260 calls)
     sum_band:buf :     15.61s CPU     15.96s WALL (    1300 calls)
     sum_band:ini :     30.43s CPU     30.61s WALL (    1300 calls)
     sum_band:cal :   1894.60s CPU   1900.13s WALL (    1330 calls)
     sum_band:bec :      8.30s CPU      8.34s WALL (    1330 calls)
     addusdens    :     85.77s CPU     97.93s WALL (     260 calls)
                                        0.00s GPU  (     260 calls)
     addusd:skk   :      4.43s CPU      5.24s WALL (    1040 calls)
                                        0.00s GPU  (    1040 calls)

     Called by *egterg:
     cdiaghg      :   2489.05s CPU   2498.32s WALL (    6897 calls)
     cegterg:over :   2869.70s CPU   2879.59s WALL (    5657 calls)
     cegterg:upda :   1758.64s CPU   1772.02s WALL (    5657 calls)
     cegterg:last :   5104.19s CPU   5119.33s WALL (    2539 calls)
     cdiaghg:chol :    180.03s CPU    180.52s WALL (    6897 calls)
     cdiaghg:inve :     25.19s CPU     25.26s WALL (    6897 calls)
     cdiaghg:para :    658.43s CPU    662.56s WALL (   13794 calls)
     h_psi        :  12161.38s CPU  12231.78s WALL (    6962 calls)
     s_psi        :   2475.65s CPU   2483.19s WALL (    6962 calls)
     g_psi        :     14.21s CPU     14.30s WALL (    5657 calls)

     Called by h_psi:
     h_psi:calbec :   3173.98s CPU   3183.99s WALL (    6962 calls)
     vloc_psi     :   6482.50s CPU   6516.94s WALL (    6962 calls)
     add_vuspsi   :   2478.72s CPU   2486.56s WALL (    6962 calls)

     General routines
     calbec       :   5210.46s CPU   5226.43s WALL (    8442 calls)
     fft          :     38.92s CPU     43.26s WALL (    3543 calls)
     ffts         :      1.51s CPU      2.12s WALL (     521 calls)
     fftw         :   6666.74s CPU   6699.52s WALL ( 4109610 calls)
     interpolate  :      3.74s CPU      4.22s WALL (     261 calls)
     davcio       :      0.00s CPU      0.08s WALL (      23 calls)

     Parallel routines

     PAW routines
     PAW_pot      :     14.67s CPU     14.74s WALL (     267 calls)

     PWSCF        :      9h17m CPU      9h20m WALL


   This run was terminated on:   0:20:36  17Apr2025            

=------------------------------------------------------------------------------=
   JOB DONE.
=------------------------------------------------------------------------------=
Note: The following floating-point exceptions are signalling: IEEE_DENORMAL
Note: The following floating-point exceptions are signalling: IEEE_DENORMAL
Note: The following floating-point exceptions are signalling: IEEE_DENORMAL
Note: The following floating-point exceptions are signalling: IEEE_DENORMAL
Note: The following floating-point exceptions are signalling: IEEE_DENORMAL
Note: The following floating-point exceptions are signalling: IEEE_DENORMAL
Note: The following floating-point exceptions are signalling: IEEE_DENORMAL
Note: The following floating-point exceptions are signalling: IEEE_DENORMAL
Note: The following floating-point exceptions are signalling: IEEE_DENORMAL
Note: The following floating-point exceptions are signalling: IEEE_DENORMAL
Note: The following floating-point exceptions are signalling: IEEE_DENORMAL
Note: The following floating-point exceptions are signalling: IEEE_DENORMAL
