--------------------------------------------------------------------------
By default, for Open MPI 4.0 and later, infiniband ports on a device
are not used by default.  The intent is to use UCX for these devices.
You can override this policy by setting the btl_openib_allow_ib MCA parameter
to true.

  Local host:              psid02
  Local adapter:           mlx5_0
  Local port:              1

--------------------------------------------------------------------------
--------------------------------------------------------------------------
WARNING: There was an error initializing an OpenFabrics device.

  Local host:   psid02
  Local device: mlx5_0
--------------------------------------------------------------------------

     Program PWSCF v.7.3.1 starts on 25Mar2025 at  3:56:25 

     This program is part of the open-source Quantum ESPRESSO suite
     for quantum simulation of materials; please cite
         "P. Giannozzi et al., J. Phys.:Condens. Matter 21 395502 (2009);
         "P. Giannozzi et al., J. Phys.:Condens. Matter 29 465901 (2017);
         "P. Giannozzi et al., J. Chem. Phys. 152 154105 (2020);
          URL http://www.quantum-espresso.org", 
     in publications or presentations arising from this work. More details at
     http://www.quantum-espresso.org/quote

     Parallel version (MPI), running on    34 processors

     MPI processes distributed on     1 nodes
     55457 MiB available memory on the printing compute node when the environment starts

     Waiting for input...
     Reading input from standard input
Warning: card &CELL ignored
Warning: card   CELL_DOFREE = 'ALL' ignored
Warning: card / ignored

     Current dimensions of program PWSCF are:
     Max number of different atomic species (ntypx) = 10
     Max number of k-points (npk) =  40000
     Max angular momentum in pseudopotentials (lmaxx) =  4
     Message from routine input:
     WARNING: "startingwfc" set to atomic+random may spoil restart
     Message from routine input:
     WARNING: "startingpot" set to atomic may spoil restart
     file C.pbe-n-kjpaw_psl.1.0.0.UPF: wavefunction(s)  2S 2P renormalized

     R & G space division:  proc/nbgrp/npool/nimage =      34
     Subspace diagonalization in iterative solution of the eigenvalue problem:
     one sub-group per band group will be used
     custom distributed-memory algorithm (size of sub-group:  5*  5 procs)


     Parallelization info
     --------------------
     sticks:   dense  smooth     PW     G-vecs:    dense   smooth      PW
     Min         112     112     33                10995    10995    1772
     Max         113     113     34                11005    11005    1779
     Sum        3835    3835   1129               374027   374027   60327

     Using Slab Decomposition



     bravais-lattice index     =            0
     lattice parameter (alat)  =      20.9009  a.u.
     unit-cell volume          =   16846.7507 (a.u.)^3
     number of atoms/cell      =           79
     number of atomic types    =            4
     number of electrons       =      1324.00
     number of Kohn-Sham states=          794
     kinetic-energy cutoff     =      30.0000  Ry
     charge density cutoff     =     120.0000  Ry
     scf convergence threshold =      7.3E-07
     mixing beta               =       0.7000
     number of iterations used =            8  plain     mixing
     energy convergence thresh.=      1.0E-05
     force convergence thresh. =      5.0E-04
     Exchange-correlation= PBE
                           (   1   4   3   4   0   0   0)
     nstep                     =          100


     celldm(1)=  20.900943  celldm(2)=   0.000000  celldm(3)=   0.000000
     celldm(4)=   0.000000  celldm(5)=   0.000000  celldm(6)=   0.000000

     crystal axes: (cart. coord. in units of alat)
               a(1) = (   1.000000   0.000000   0.000000 )  
               a(2) = (  -0.223489   0.918700   0.000000 )  
               a(3) = (  -4.200249  -1.021781   2.008375 )  

     reciprocal axes: (cart. coord. in units 2 pi/alat)
               b(1) = (  1.000000  0.243267  2.215131 )  
               b(2) = ( -0.000000  1.088495  0.553783 )  
               b(3) = (  0.000000 -0.000000  0.497915 )  


     PseudoPot. # 1 for Zn read from file:
     /home/ys/qepseudo/SSSP_1.3.0_PBE_efficiency/Zn_pbe_v1.uspp.F.UPF
     MD5 check sum: df62231357ef9e81f77b2b3087fa5675
     Pseudo is Ultrasoft, Zval = 20.0
     Generated by new atomic code, or converted to UPF format
     Using radial grid of  943 points,  6 beta functions with: 
                l(1) =   0
                l(2) =   0
                l(3) =   1
                l(4) =   1
                l(5) =   2
                l(6) =   2
     Q(r) pseudized with  8 coefficients,  rinner =    1.100   1.100   1.100
                                                       1.100   1.100

     PseudoPot. # 2 for C  read from file:
     /home/ys/qepseudo/SSSP_1.3.0_PBE_efficiency/C.pbe-n-kjpaw_psl.1.0.0.UPF
     MD5 check sum: 5d2aebdfa2cae82b50a7e79e9516da0f
     Pseudo is Projector augmented-wave + core cor, Zval =  4.0
     Generated using "atomic" code by A. Dal Corso  v.5.1
     Shape of augmentation charge: PSQ
     Using radial grid of 1073 points,  4 beta functions with: 
                l(1) =   0
                l(2) =   0
                l(3) =   1
                l(4) =   1
     Q(r) pseudized with 0 coefficients 


     PseudoPot. # 3 for N  read from file:
     /home/ys/qepseudo/SSSP_1.3.0_PBE_efficiency/N.pbe-n-radius_5.UPF
     MD5 check sum: 16739722b17309cd8fe442a2ace49922
     Pseudo is Ultrasoft + core correction, Zval =  5.0
     Generated using "atomic" code by A. Dal Corso  v.5.1
     Using radial grid of 1085 points,  4 beta functions with: 
                l(1) =   0
                l(2) =   0
                l(3) =   1
                l(4) =   1
     Q(r) pseudized with 0 coefficients 


     PseudoPot. # 4 for H  read from file:
     /home/ys/qepseudo/SSSP_1.3.0_PBE_efficiency/H.pbe-rrkjus_psl.1.0.0.UPF
     MD5 check sum: f52b6d4d1c606e5624b1dc7b2218f220
     Pseudo is Ultrasoft, Zval =  1.0
     Generated using "atomic" code by A. Dal Corso  v.5.1
     Using radial grid of  929 points,  2 beta functions with: 
                l(1) =   0
                l(2) =   0
     Q(r) pseudized with 0 coefficients 


     atomic species   valence    mass     pseudopotential
     Zn               20.00    65.38000     Zn( 1.00)
     C                 4.00    12.01070     C ( 1.00)
     N                 5.00    14.00670     N ( 1.00)
     H                 1.00     1.00800     H ( 1.00)

     No symmetry found


                                    s                        frac. trans.

      isym =  1     identity                                     

 cryst.   s( 1) = (     1          0          0      )
                  (     0          1          0      )
                  (     0          0          1      )

 cart.    s( 1) = (  1.0000000  0.0000000  0.0000000 )
                  (  0.0000000  1.0000000  0.0000000 )
                  (  0.0000000  0.0000000  1.0000000 )


   Cartesian axes

     site n.     atom                  positions (alat units)
         1        Zn     tau(   1) = (  -0.0970639   0.0980210   0.1082939  )
         2        Zn     tau(   2) = (  -0.2088085   0.5573710   0.1082939  )
         3        Zn     tau(   3) = (  -0.4853192   0.0035714   0.2939406  )
         4        Zn     tau(   4) = (  -0.5970639   0.4629214   0.2939406  )
         5        Zn     tau(   5) = (  -0.8581346  -0.0889204   0.4941152  )
         6        Zn     tau(   6) = (  -0.9699341   0.3704825   0.4941086  )
         7        Zn     tau(   7) = (  -1.2238216  -0.1771856   0.6884522  )
         8        Zn     tau(   8) = (  -1.3352557   0.2823443   0.6894635  )
         9        Zn     tau(   9) = (  -0.1529362   0.3276960   0.1082939  )
        10        Zn     tau(  10) = (  -0.2646808   0.7870460   0.1082939  )
        11        Zn     tau(  11) = (  -0.5411915   0.2332464   0.2939406  )
        12        Zn     tau(  12) = (  -0.6529362   0.6925964   0.2939406  )
        13        Zn     tau(  13) = (  -0.9142951   0.1406603   0.4941813  )
        14        Zn     tau(  14) = (  -1.0254924   0.6002657   0.4937924  )
        15        Zn     tau(  15) = (  -1.2800757   0.0524596   0.6889265  )
        16        Zn     tau(  16) = (  -1.3907776   0.5120344   0.6884216  )
        17        Zn     tau(  17) = (   0.4029361   0.0980210   0.1082939  )
        18        Zn     tau(  18) = (   0.2911915   0.5573710   0.1082939  )
        19        Zn     tau(  19) = (   0.0146808   0.0035714   0.2939406  )
        20        Zn     tau(  20) = (  -0.0970639   0.4629214   0.2939406  )
        21        Zn     tau(  21) = (  -0.3571279  -0.0886717   0.4907470  )
        22        Zn     tau(  22) = (  -0.4680358   0.3710853   0.4908660  )
        23        Zn     tau(  23) = (  -0.7188488  -0.1761207   0.6876765  )
        24        Zn     tau(  24) = (  -0.8307547   0.2830726   0.6870239  )
        25        Zn     tau(  25) = (   0.3470638   0.3276960   0.1082939  )
        26        Zn     tau(  26) = (   0.2353192   0.7870460   0.1082939  )
        27        Zn     tau(  27) = (  -0.0411915   0.2332464   0.2939406  )
        28        Zn     tau(  28) = (  -0.1529362   0.6925964   0.2939406  )
        29        Zn     tau(  29) = (  -0.4122249   0.1411047   0.4905416  )
        30        Zn     tau(  30) = (  -0.5246610   0.6005329   0.4908126  )
        31        Zn     tau(  31) = (  -0.7744837   0.0535749   0.6869417  )
        32        Zn     tau(  32) = (  -0.8866854   0.5128335   0.6877816  )
        33        Zn     tau(  33) = (   0.1529362   0.0372043   0.0773528  )
        34        Zn     tau(  34) = (   0.0411915   0.4965543   0.0773528  )
        35        Zn     tau(  35) = (  -0.2353192  -0.0572454   0.2629995  )
        36        Zn     tau(  36) = (  -0.3470638   0.4021046   0.2629995  )
        37        Zn     tau(  37) = (  -0.6098033  -0.1492910   0.4476837  )
        38        Zn     tau(  38) = (  -0.7220153   0.3100993   0.4469592  )
        39        Zn     tau(  39) = (  -0.9878869  -0.2419297   0.6535703  )
        40        Zn     tau(  40) = (  -1.1002936   0.2171322   0.6533530  )
        41        Zn     tau(  41) = (   0.0970639   0.2668793   0.0773528  )
        42        Zn     tau(  42) = (  -0.0146808   0.7262293   0.0773528  )
        43        Zn     tau(  43) = (  -0.2911915   0.1724296   0.2629995  )
        44        Zn     tau(  44) = (  -0.4029361   0.6317796   0.2629995  )
        45        Zn     tau(  45) = (  -0.6660805   0.0800802   0.4469998  )
        46        Zn     tau(  46) = (  -0.7775316   0.5397467   0.4475796  )
        47        Zn     tau(  47) = (  -1.0444682  -0.0124655   0.6534982  )
        48        Zn     tau(  48) = (  -1.1553690   0.4470271   0.6536081  )
        49        Zn     tau(  49) = (   0.6529362   0.0372043   0.0773528  )
        50        Zn     tau(  50) = (   0.5411915   0.4965543   0.0773528  )
        51        Zn     tau(  51) = (   0.2646808  -0.0572454   0.2629995  )
        52        Zn     tau(  52) = (   0.1529362   0.4021046   0.2629995  )
        53        Zn     tau(  53) = (  -0.1099025  -0.1493720   0.4469396  )
        54        Zn     tau(  54) = (  -0.2211707   0.3102297   0.4468374  )
        55        Zn     tau(  55) = (  -0.4828727  -0.2409446   0.6555234  )
        56        Zn     tau(  56) = (  -0.5943330   0.2184752   0.6503750  )
        57        Zn     tau(  57) = (   0.5970639   0.2668793   0.0773528  )
        58        Zn     tau(  58) = (   0.4853192   0.7262293   0.0773528  )
        59        Zn     tau(  59) = (   0.2088085   0.1724296   0.2629995  )
        60        Zn     tau(  60) = (   0.0970639   0.6317796   0.2629995  )
        61        Zn     tau(  61) = (  -0.1657082   0.0803412   0.4468960  )
        62        Zn     tau(  62) = (  -0.2772194   0.5398431   0.4469558  )
        63        Zn     tau(  63) = (  -0.5382555  -0.0111540   0.6552109  )
        64        Zn     tau(  64) = (  -0.6503185   0.4481492   0.6545861  )
        65        C      tau(  65) = (  -0.5705392   0.2375904   1.4940924  )
        66        C      tau(  66) = (  -0.5782092   0.2348077   1.3655168  )
        67        C      tau(  67) = (  -0.6152078   0.3373014   1.2991697  )
        68        C      tau(  68) = (  -0.5495343   0.1282199   1.3016293  )
        69        C      tau(  69) = (  -0.5571426   0.1244169   1.1766192  )
        70        C      tau(  70) = (  -0.6231882   0.3336101   1.1741356  )
        71        C      tau(  71) = (  -0.5948117   0.2267815   1.1100746  )
        72        N      tau(  72) = (  -0.5651193   0.2391636   1.6001308  )
        73        N      tau(  73) = (  -0.5997183   0.2236973   0.9859316  )
        74        H      tau(  74) = (  -0.5990124   0.1421057   0.9431946  )
        75        H      tau(  75) = (  -0.6464089   0.2892601   0.9410658  )
        76        H      tau(  76) = (  -0.6390402   0.4201845   1.3474814  )
        77        H      tau(  77) = (  -0.5207985   0.0478984   1.3515741  )
        78        H      tau(  78) = (  -0.5334816   0.0412275   1.1283515  )
        79        H      tau(  79) = (  -0.6518856   0.4142188   1.1242782  )

   Crystallographic axes

     site n.     atom                  positions (cryst. coord.)
         1        Zn     tau(   1) = (  0.1666667  0.1666667  0.0539212  )
         2        Zn     tau(   2) = (  0.1666667  0.6666667  0.0539212  )
         3        Zn     tau(   3) = (  0.1666667  0.1666667  0.1463574  )
         4        Zn     tau(   4) = (  0.1666667  0.6666667  0.1463574  )
         5        Zn     tau(   5) = (  0.2147640  0.1768430  0.2460274  )
         6        Zn     tau(   6) = (  0.2147075  0.6768970  0.2460241  )
         7        Zn     tau(   7) = (  0.2580872  0.1883874  0.3427907  )
         8        Zn     tau(   8) = (  0.2606814  0.6891432  0.3432942  )
         9        Zn     tau(   9) = (  0.1666667  0.4166667  0.0539212  )
        10        Zn     tau(  10) = (  0.1666667  0.9166667  0.0539212  )
        11        Zn     tau(  11) = (  0.1666667  0.4166667  0.1463574  )
        12        Zn     tau(  12) = (  0.1666667  0.9166667  0.1463574  )
        13        Zn     tau(  13) = (  0.2145994  0.4267771  0.2460603  )
        14        Zn     tau(  14) = (  0.2143474  0.9268397  0.2458666  )
        15        Zn     tau(  15) = (  0.2587485  0.4386176  0.3430268  )
        16        Zn     tau(  16) = (  0.2587276  0.9385827  0.3427754  )
        17        Zn     tau(  17) = (  0.6666667  0.1666667  0.0539212  )
        18        Zn     tau(  18) = (  0.6666667  0.6666667  0.0539212  )
        19        Zn     tau(  19) = (  0.6666667  0.1666667  0.1463574  )
        20        Zn     tau(  20) = (  0.6666667  0.6666667  0.1463574  )
        21        Zn     tau(  21) = (  0.7083703  0.1752485  0.2443503  )
        22        Zn     tau(  22) = (  0.7095695  0.6757575  0.2444095  )
        23        Zn     tau(  23) = (  0.7616006  0.1891170  0.3424044  )
        24        Zn     tau(  24) = (  0.7599557  0.6885851  0.3420795  )
        25        Zn     tau(  25) = (  0.6666667  0.4166667  0.0539212  )
        26        Zn     tau(  26) = (  0.6666667  0.9166667  0.0539212  )
        27        Zn     tau(  27) = (  0.6666667  0.4166667  0.1463574  )
        28        Zn     tau(  28) = (  0.6666667  0.9166667  0.1463574  )
        29        Zn     tau(  29) = (  0.7087152  0.4252452  0.2442480  )
        30        Zn     tau(  30) = (  0.7086432  0.9254804  0.2443830  )
        31        Zn     tau(  31) = (  0.7602153  0.4387325  0.3420386  )
        32        Zn     tau(  32) = (  0.7615966  0.9390981  0.3424568  )
        33        Zn     tau(  33) = (  0.3333333  0.0833333  0.0385151  )
        34        Zn     tau(  34) = (  0.3333333  0.5833333  0.0385151  )
        35        Zn     tau(  35) = (  0.3333333  0.0833333  0.1309514  )
        36        Zn     tau(  36) = (  0.3333333  0.5833333  0.1309514  )
        37        Zn     tau(  37) = (  0.3455574  0.0854171  0.2229084  )
        38        Zn     tau(  38) = (  0.3434950  0.5850597  0.2225477  )
        39        Zn     tau(  39) = (  0.4010037  0.0985968  0.3254224  )
        40        Zn     tau(  40) = (  0.3997903  0.5981629  0.3253143  )
        41        Zn     tau(  41) = (  0.3333333  0.3333333  0.0385151  )
        42        Zn     tau(  42) = (  0.3333333  0.8333333  0.0385151  )
        43        Zn     tau(  43) = (  0.3333333  0.3333333  0.1309514  )
        44        Zn     tau(  44) = (  0.3333333  0.8333333  0.1309514  )
        45        Zn     tau(  45) = (  0.3435637  0.3347076  0.2225679  )
        46        Zn     tau(  46) = (  0.3452185  0.8353733  0.2228566  )
        47        Zn     tau(  47) = (  0.4000837  0.3483274  0.3253865  )
        48        Zn     tau(  48) = (  0.4012057  0.8485435  0.3254413  )
        49        Zn     tau(  49) = (  0.8333333  0.0833333  0.0385151  )
        50        Zn     tau(  50) = (  0.8333333  0.5833333  0.0385151  )
        51        Zn     tau(  51) = (  0.8333333  0.0833333  0.1309514  )
        52        Zn     tau(  52) = (  0.8333333  0.5833333  0.1309514  )
        53        Zn     tau(  53) = (  0.8437901  0.0849169  0.2225379  )
        54        Zn     tau(  54) = (  0.8441014  0.5851342  0.2224870  )
        55        Zn     tau(  55) = (  0.9105839  0.1007506  0.3263949  )
        56        Zn     tau(  56) = (  0.8994808  0.5979755  0.3238315  )
        57        Zn     tau(  57) = (  0.8333333  0.3333333  0.0385151  )
        58        Zn     tau(  58) = (  0.8333333  0.8333333  0.0385151  )
        59        Zn     tau(  59) = (  0.8333333  0.3333333  0.1309514  )
        60        Zn     tau(  60) = (  0.8333333  0.8333333  0.1309514  )
        61        Zn     tau(  61) = (  0.8437695  0.3349343  0.2225162  )
        62        Zn     tau(  62) = (  0.8441723  0.8351327  0.2225460  )
        63        Zn     tau(  63) = (  0.9104094  0.3507034  0.3262393  )
        64        Zn     tau(  64) = (  0.9086956  0.8503066  0.3259283  )
        65        C      tau(  65) = (  2.7968695  1.0860185  0.7439310  )
        66        C      tau(  66) = (  2.5037109  1.0117866  0.6799113  )
        67        C      tau(  67) = (  2.3446779  1.0866086  0.6468761  )
        68        C      tau(  68) = (  2.3649372  0.8603866  0.6481007  )
        69        C      tau(  69) = (  2.0794900  0.7870186  0.5858563  )
        70        C      tau(  70) = (  2.0588327  1.0133489  0.5846197  )
        71        C      tau(  71) = (  1.9193178  0.8615907  0.5527228  )
        72        N      tau(  72) = (  3.0375611  1.1464531  0.7967291  )
        73        N      tau(  73) = (  1.6386679  0.7894853  0.4909102  )
        74        H      tau(  74) = (  1.5248572  0.6770063  0.4696307  )
        75        H      tau(  75) = (  1.5085429  0.8360041  0.4685708  )
        76        H      tau(  76) = (  2.4480251  1.2035806  0.6709312  )
        77        H      tau(  77) = (  2.4847678  0.8006156  0.6729690  )
        78        H      tau(  78) = (  1.9759944  0.6697375  0.5618231  )
        79        H      tau(  79) = (  1.9393040  1.0734809  0.5597950  )

     number of k points=     4  Marzari-Vanderbilt smearing, width (Ry)=  0.0200
                       cart. coord. in units 2pi/alat
        k(    1) = (   0.0000000   0.0000000   0.0000000), wk =   0.5000000
        k(    2) = (   0.0000000  -0.5442473  -0.2768914), wk =   0.5000000
        k(    3) = (  -0.5000000  -0.1216334  -1.1075657), wk =   0.5000000
        k(    4) = (  -0.5000000  -0.6658807  -1.3844571), wk =   0.5000000

                       cryst. coord.
        k(    1) = (   0.0000000   0.0000000   0.0000000), wk =   0.5000000
        k(    2) = (   0.0000000  -0.5000000   0.0000000), wk =   0.5000000
        k(    3) = (  -0.5000000   0.0000000   0.0000000), wk =   0.5000000
        k(    4) = (  -0.5000000  -0.5000000   0.0000000), wk =   0.5000000

     Dense  grid:   374027 G-vectors     FFT dimensions: (  75,  72, 360)

     Dynamical RAM for                 wfc:      16.65 MB

     Dynamical RAM for     wfc (w. buffer):      83.23 MB

     Dynamical RAM for           str. fact:       0.67 MB

     Dynamical RAM for           local pot:       0.00 MB

     Dynamical RAM for          nlocal pot:      25.91 MB

     Dynamical RAM for                qrad:       3.52 MB

     Dynamical RAM for          rho,v,vnew:       1.86 MB

     Dynamical RAM for               rhoin:       0.62 MB

     Dynamical RAM for            rho*nmix:       2.69 MB

     Dynamical RAM for           G-vectors:       0.71 MB

     Dynamical RAM for          h,s,v(r/c):       4.60 MB

     Dynamical RAM for          <psi|beta>:      14.97 MB

     Dynamical RAM for                 psi:      33.29 MB

     Dynamical RAM for                hpsi:      33.29 MB

     Dynamical RAM for                spsi:      33.29 MB

     Dynamical RAM for      wfcinit/wfcrot:      54.14 MB

     Dynamical RAM for           addusdens:      41.98 MB

     Dynamical RAM for          addusforce:      63.47 MB

     Dynamical RAM for         addusstress:      33.75 MB

     Estimated static dynamical RAM per process >     119.64 MB

     Estimated max dynamical RAM per process >     241.79 MB

     Estimated total dynamical RAM >       8.03 GB

     Atomic positions and unit cell read from directory:
     ./tmp/Zn101_2x4x4_primitive_atoms32_14Avacumn_ABN_topsite_upright.save/


     Check: negative core charge=   -0.000052
     Cannot read rho : file not found

     Initial potential from superposition of free atoms

     starting charge    1323.9906, renormalised to    1324.0000

     negative rho (up, down):  8.483E-03 0.000E+00
     Starting wfcs are  874 randomized atomic wfcs
[psid02:59334] 33 more processes have sent help message help-mpi-btl-openib.txt / ib port not selected
[psid02:59334] Set MCA parameter "orte_base_help_aggregate" to 0 to see all help / error messages
[psid02:59334] 33 more processes have sent help message help-mpi-btl-openib.txt / error in device init
     Checking if some PAW data can be deallocated... 
       PAW data deallocated on   30 nodes for type:  2
     Calculation restarted from scf iteration #     8

     total cpu time spent up to now is       67.3 secs

     Self-consistent Calculation

     iteration #  8     ecut=    30.00 Ry     beta= 0.70
     Calculation restarted from kpoint #     2
     Davidson diagonalization with overlap

---- Real-time Memory Report at c_bands before calling an iterative solver
           208 MiB given to the printing process from OS
             0 MiB allocation reported by mallinfo(arena+hblkhd)
         50893 MiB available memory on the node where the printing process lives
------------------
     c_bands:  2 eigenvalues not converged
     c_bands:  1 eigenvalues not converged
     ethr =  1.39E-10,  avg # of iterations = 30.2

     negative rho (up, down):  3.858E-02 0.000E+00

     total cpu time spent up to now is     1331.9 secs

     total energy              =  -29734.02205182 Ry
     estimated scf accuracy    <      10.55719086 Ry

     iteration #  9     ecut=    30.00 Ry     beta= 0.70
     Davidson diagonalization with overlap

---- Real-time Memory Report at c_bands before calling an iterative solver
           286 MiB given to the printing process from OS
             0 MiB allocation reported by mallinfo(arena+hblkhd)
         49179 MiB available memory on the node where the printing process lives
------------------
     c_bands:  2 eigenvalues not converged
     ethr =  1.39E-10,  avg # of iterations = 18.2

     negative rho (up, down):  3.858E-02 0.000E+00

     total cpu time spent up to now is     2378.1 secs

     End of self-consistent calculation

          k = 0.0000 0.0000 0.0000 ( 46769 PWs)   bands (ev):

  -123.7927-123.7923-123.7915-123.7913-123.7910-123.7901-123.7899-123.7887
  -123.7400-123.7384-123.7378-123.7369-123.7359-123.7348-123.7343-123.7332
  -123.7229-123.7224-123.7212-123.7198-123.7158-123.7154-123.7113-123.7104
  -123.7037-123.7031-123.7003-123.7000-123.6908-123.6901-123.6896-123.6892
  -123.6336-123.6327-123.6324-123.6319-123.6251-123.6244-123.6239-123.6238
  -123.5925-123.5663-123.5661-123.5654-123.5647-123.5644-123.5640-123.5591
  -123.4975-123.4969-123.4952-123.4947-123.4787-123.4776-123.4771-123.4769
  -123.4334-123.4328-123.4324-123.4319-123.4302-123.4265-123.4236-123.4230
   -77.8991 -77.8981 -77.8867 -77.8856 -77.8844 -77.8841 -77.8839 -77.8829
   -77.8828 -77.8815 -77.8792 -77.8791 -77.8766 -77.8750 -77.8749 -77.8729
   -77.8723 -77.8721 -77.8714 -77.8709 -77.8704 -77.8694 -77.8663 -77.8651
   -77.8385 -77.8360 -77.8342 -77.8339 -77.8335 -77.8329 -77.8324 -77.8309
   -77.8302 -77.8293 -77.8279 -77.8245 -77.8238 -77.8225 -77.8212 -77.8206
   -77.8200 -77.8195 -77.8189 -77.8183 -77.8177 -77.8172 -77.8169 -77.8165
   -77.8159 -77.8151 -77.8127 -77.8122 -77.8117 -77.8106 -77.8104 -77.8089
   -77.8085 -77.8079 -77.8074 -77.8065 -77.8062 -77.8055 -77.8035 -77.8025
   -77.8022 -77.8015 -77.7996 -77.7989 -77.7971 -77.7965 -77.7926 -77.7923
   -77.7918 -77.7915 -77.7903 -77.7891 -77.7879 -77.7873 -77.7869 -77.7867
   -77.7862 -77.7844 -77.7838 -77.7801 -77.7799 -77.7788 -77.7782 -77.7777
   -77.7771 -77.7766 -77.7761 -77.7739 -77.7734 -77.7730 -77.7728 -77.7681
   -77.7365 -77.7357 -77.7353 -77.7348 -77.7307 -77.7282 -77.7274 -77.7271
   -77.7267 -77.7220 -77.7177 -77.7155 -77.7150 -77.7144 -77.7109 -77.7103
   -77.7073 -77.7064 -77.7062 -77.7058 -77.7007 -77.7006 -77.6988 -77.6902
   -77.6890 -77.6823 -77.6771 -77.6681 -77.6646 -77.6638 -77.6632 -77.6629
   -77.6626 -77.6607 -77.6560 -77.6556 -77.6525 -77.6508 -77.6500 -77.6492
   -77.6490 -77.6485 -77.6483 -77.6467 -77.6444 -77.6436 -77.6357 -77.6352
   -77.5998 -77.5992 -77.5975 -77.5971 -77.5928 -77.5852 -77.5827 -77.5819
   -77.5813 -77.5806 -77.5802 -77.5797 -77.5796 -77.5734 -77.5721 -77.5720
   -77.5644 -77.5633 -77.5630 -77.5625 -77.5605 -77.5523 -77.5518 -77.5412
   -77.5392 -77.5390 -77.5383 -77.5381 -77.5358 -77.5320 -77.5307 -77.5299
   -77.5259 -77.5225 -77.5212 -77.5189 -77.5183 -77.5176 -77.5163 -77.5133
   -77.5098 -77.5090 -77.5060 -77.5046 -77.5008 -77.4986 -77.4926 -77.4876
   -16.3033 -14.9390 -14.0957 -11.7134 -11.6245  -8.6958  -8.4056  -7.0654
    -6.5203  -6.0240  -5.9233  -5.9102  -5.9070  -5.8548  -5.7364  -5.7361
    -5.4597  -5.4399  -5.3964  -5.3957  -5.3876  -5.3670  -5.3581  -5.3400
    -5.3391  -5.3115  -5.3036  -5.3022  -5.2614  -5.2582  -5.2167  -5.2009
    -5.1978  -5.1936  -5.1858  -5.1851  -5.1791  -5.1782  -5.1495  -5.1493
    -5.1490  -5.1439  -5.1117  -5.1111  -5.0978  -5.0961  -5.0924  -5.0864
    -5.0860  -5.0723  -5.0718  -5.0571  -5.0557  -5.0552  -5.0347  -5.0341
    -5.0340  -5.0333  -5.0319  -5.0244  -5.0241  -5.0162  -4.9950  -4.9944
    -4.9834  -4.9705  -4.9703  -4.9660  -4.9609  -4.9582  -4.9580  -4.9487
    -4.9486  -4.9369  -4.9292  -4.9119  -4.9118  -4.9100  -4.9012  -4.8891
    -4.8887  -4.8886  -4.8872  -4.8602  -4.8595  -4.8543  -4.8520  -4.8459
    -4.8432  -4.8388  -4.8356  -4.8309  -4.8300  -4.8293  -4.8120  -4.8102
    -4.8085  -4.8050  -4.8044  -4.8012  -4.7836  -4.7829  -4.7786  -4.7648
    -4.7608  -4.7605  -4.7597  -4.7563  -4.7550  -4.7514  -4.7442  -4.7356
    -4.7273  -4.7258  -4.7147  -4.7056  -4.7050  -4.6965  -4.6953  -4.6851
    -4.6850  -4.6820  -4.6810  -4.6785  -4.6768  -4.6710  -4.6662  -4.6508
    -4.6505  -4.6493  -4.6360  -4.6351  -4.6316  -4.6242  -4.6195  -4.6184
    -4.6126  -4.6125  -4.5934  -4.5780  -4.5771  -4.5768  -4.5692  -4.5675
    -4.5667  -4.5625  -4.5566  -4.5546  -4.5522  -4.5500  -4.5315  -4.5306
    -4.5241  -4.5202  -4.5197  -4.5146  -4.5101  -4.5095  -4.5052  -4.5040
    -4.5032  -4.4935  -4.4917  -4.4909  -4.4893  -4.4880  -4.4817  -4.4735
    -4.4730  -4.4713  -4.4704  -4.4669  -4.4539  -4.4535  -4.4457  -4.4454
    -4.4434  -4.4404  -4.4257  -4.4241  -4.4228  -4.4175  -4.4169  -4.4168
    -4.4078  -4.4070  -4.3924  -4.3828  -4.3822  -4.3747  -4.3740  -4.3733
    -4.3722  -4.3700  -4.3678  -4.3640  -4.3628  -4.3623  -4.3611  -4.3439
    -4.3412  -4.3335  -4.3302  -4.3298  -4.3251  -4.3102  -4.3085  -4.2995
    -4.2978  -4.2914  -4.2911  -4.2857  -4.2836  -4.2829  -4.2827  -4.2795
    -4.2737  -4.2730  -4.2720  -4.2636  -4.2620  -4.2608  -4.2532  -4.2522
    -4.2501  -4.2498  -4.2450  -4.2432  -4.2416  -4.2408  -4.2394  -4.2356
    -4.2295  -4.2287  -4.2284  -4.2282  -4.2279  -4.2232  -4.2229  -4.2133
    -4.2124  -4.2107  -4.2064  -4.2018  -4.2014  -4.1999  -4.1882  -4.1879
    -4.1838  -4.1826  -4.1821  -4.1814  -4.1759  -4.1756  -4.1676  -4.1667
    -4.1542  -4.1497  -4.1484  -4.1451  -4.1442  -4.1423  -4.1350  -4.1313
    -4.1293  -4.1271  -4.1249  -4.1198  -4.1191  -4.1190  -4.1171  -4.1107
    -4.1082  -4.1054  -4.1051  -4.1018  -4.0880  -4.0878  -4.0837  -4.0834
    -4.0786  -4.0766  -4.0757  -4.0721  -4.0618  -4.0616  -4.0591  -4.0559
    -4.0549  -4.0541  -4.0539  -4.0536  -4.0467  -4.0421  -4.0405  -4.0398
    -4.0389  -4.0352  -4.0254  -4.0142  -4.0135  -4.0127  -4.0077  -4.0073
    -4.0039  -4.0029  -4.0001  -3.9996  -3.9905  -3.9902  -3.9893  -3.9805
    -3.9698  -3.9691  -3.9678  -3.9672  -3.9619  -3.9586  -3.9552  -3.9422
    -3.9414  -3.9203  -3.9202  -3.9171  -3.8985  -3.8914  -3.8864  -3.8826
    -3.8780  -3.8730  -3.8664  -3.8597  -3.8546  -3.8387  -3.8216  -3.8063
    -3.7933  -3.7858  -3.7624  -3.7592  -3.6893  -3.5717  -3.5326  -3.5324
    -3.3628  -3.1171  -2.9354  -2.9343  -2.8583  -2.7885  -2.7872  -2.5928
    -1.9423  -1.7179  -1.7142  -1.6872  -1.6404  -1.6384  -1.6380  -1.4911
    -1.0854  -0.9983  -0.9969  -0.9563  -0.9061  -0.8498  -0.8495  -0.4815
    -0.4476  -0.4334  -0.3853  -0.3264  -0.3090  -0.2462   0.1463   0.2984
     0.3113   0.3120   0.4068   0.4080   0.4945   0.7359   0.7441   0.7508
     0.8066   0.8264   0.9565   0.9587   0.9613   1.5840   1.5950   1.6532
     1.6586   1.6815   1.7788   1.7796   1.8508   2.2751   2.4460   2.4504
     2.4658   2.4719   2.4760   2.4774   2.4799   2.8988   2.9161   2.9261
     2.9282   3.0541   3.0552   3.1603   3.5493   3.6325   3.6434   3.7760
     3.8178   3.9728   4.0080   4.2524   4.2588   4.3811   4.8687   4.8749
     5.1395   5.1432   5.1458   5.1829   5.1930   5.2013   5.2028   5.2602
     5.3437   5.3656   5.3703   5.3793   5.3999   5.5249   5.6145   5.6820
     5.6995   5.7138   5.7191   5.9797   6.0785   6.1148   6.4336   6.4473
     6.4656   6.4695   6.5530   6.6300   6.6592   6.6596   6.6798   6.7507
     6.9322   6.9467   6.9843   7.0033   7.0354   7.0647   7.1686   7.1822
     7.2139   7.2630   7.2644   7.3773   7.4421   7.5040   7.5162   7.5538
     7.6633   7.7534   7.7711   7.8194   7.8291   7.8729   7.8810   7.8872
     7.9069   7.9326   7.9726   8.0191   8.0351   8.0822   8.1708   8.2116
     8.2370   8.2973   8.3485   8.3667   8.4086   8.4213   8.4306   8.4843
     8.5098   8.5139   8.5631   8.5834   8.5961   8.6096   8.6405   8.6675
     8.6792   8.6861   8.7726   8.9887   8.9969   9.0204   9.0844   9.1188
     9.1249   9.1692   9.1836   9.2636   9.2890   9.4220   9.4402   9.4750
     9.5601   9.6282   9.6748   9.7209   9.7440   9.7706   9.7864   9.7944
     9.8389   9.8581   9.9313   9.9941  10.0934  10.1920  10.2398  10.2499
    10.2608  10.2999

     occupation numbers 
     1.0000   1.0000   1.0000   1.0000   1.0000   1.0000   1.0000   1.0000
     1.0000   1.0000   1.0000   1.0000   1.0000   1.0000   1.0000   1.0000
     1.0000   1.0000   1.0000   1.0000   1.0000   1.0000   1.0000   1.0000
     1.0000   1.0000   1.0000   1.0000   1.0000   1.0000   1.0000   1.0000
     1.0000   1.0000   1.0000   1.0000   1.0000   1.0000   1.0000   1.0000
     1.0000   1.0000   1.0000   1.0000   1.0000   1.0000   1.0000   1.0000
     1.0000   1.0000   1.0000   1.0000   1.0000   1.0000   1.0000   1.0000
     1.0000   1.0000   1.0000   1.0000   1.0000   1.0000   1.0000   1.0000
     1.0000   1.0000   1.0000   1.0000   1.0000   1.0000   1.0000   1.0000
     1.0000   1.0000   1.0000   1.0000   1.0000   1.0000   1.0000   1.0000
     1.0000   1.0000   1.0000   1.0000   1.0000   1.0000   1.0000   1.0000
     1.0000   1.0000   1.0000   1.0000   1.0000   1.0000   1.0000   1.0000
     1.0000   1.0000   1.0000   1.0000   1.0000   1.0000   1.0000   1.0000
     1.0000   1.0000   1.0000   1.0000   1.0000   1.0000   1.0000   1.0000
     1.0000   1.0000   1.0000   1.0000   1.0000   1.0000   1.0000   1.0000
     1.0000   1.0000   1.0000   1.0000   1.0000   1.0000   1.0000   1.0000
     1.0000   1.0000   1.0000   1.0000   1.0000   1.0000   1.0000   1.0000
     1.0000   1.0000   1.0000   1.0000   1.0000   1.0000   1.0000   1.0000
     1.0000   1.0000   1.0000   1.0000   1.0000   1.0000   1.0000   1.0000
     1.0000   1.0000   1.0000   1.0000   1.0000   1.0000   1.0000   1.0000
     1.0000   1.0000   1.0000   1.0000   1.0000   1.0000   1.0000   1.0000
     1.0000   1.0000   1.0000   1.0000   1.0000   1.0000   1.0000   1.0000
     1.0000   1.0000   1.0000   1.0000   1.0000   1.0000   1.0000   1.0000
     1.0000   1.0000   1.0000   1.0000   1.0000   1.0000   1.0000   1.0000
     1.0000   1.0000   1.0000   1.0000   1.0000   1.0000   1.0000   1.0000
     1.0000   1.0000   1.0000   1.0000   1.0000   1.0000   1.0000   1.0000
     1.0000   1.0000   1.0000   1.0000   1.0000   1.0000   1.0000   1.0000
     1.0000   1.0000   1.0000   1.0000   1.0000   1.0000   1.0000   1.0000
     1.0000   1.0000   1.0000   1.0000   1.0000   1.0000   1.0000   1.0000
     1.0000   1.0000   1.0000   1.0000   1.0000   1.0000   1.0000   1.0000
     1.0000   1.0000   1.0000   1.0000   1.0000   1.0000   1.0000   1.0000
     1.0000   1.0000   1.0000   1.0000   1.0000   1.0000   1.0000   1.0000
     1.0000   1.0000   1.0000   1.0000   1.0000   1.0000   1.0000   1.0000
     1.0000   1.0000   1.0000   1.0000   1.0000   1.0000   1.0000   1.0000
     1.0000   1.0000   1.0000   1.0000   1.0000   1.0000   1.0000   1.0000
     1.0000   1.0000   1.0000   1.0000   1.0000   1.0000   1.0000   1.0000
     1.0000   1.0000   1.0000   1.0000   1.0000   1.0000   1.0000   1.0000
     1.0000   1.0000   1.0000   1.0000   1.0000   1.0000   1.0000   1.0000
     1.0000   1.0000   1.0000   1.0000   1.0000   1.0000   1.0000   1.0000
     1.0000   1.0000   1.0000   1.0000   1.0000   1.0000   1.0000   1.0000
     1.0000   1.0000   1.0000   1.0000   1.0000   1.0000   1.0000   1.0000
     1.0000   1.0000   1.0000   1.0000   1.0000   1.0000   1.0000   1.0000
     1.0000   1.0000   1.0000   1.0000   1.0000   1.0000   1.0000   1.0000
     1.0000   1.0000   1.0000   1.0000   1.0000   1.0000   1.0000   1.0000
     1.0000   1.0000   1.0000   1.0000   1.0000   1.0000   1.0000   1.0000
     1.0000   1.0000   1.0000   1.0000   1.0000   1.0000   1.0000   1.0000
     1.0000   1.0000   1.0000   1.0000   1.0000   1.0000   1.0000   1.0000
     1.0000   1.0000   1.0000   1.0000   1.0000   1.0000   1.0000   1.0000
     1.0000   1.0000   1.0000   1.0000   1.0000   1.0000   1.0000   1.0000
     1.0000   1.0000   1.0000   1.0000   1.0000   1.0000   1.0000   1.0000
     1.0000   1.0000   1.0000   1.0000   1.0000   1.0000   1.0000   1.0000
     1.0000   1.0000   1.0000   1.0000   1.0000   1.0000   1.0000   1.0000
     1.0000   1.0000   1.0000   1.0000   1.0000   1.0000   1.0000   1.0000
     1.0000   1.0000   1.0000   1.0000   1.0000   1.0000   1.0000   1.0000
     1.0000   1.0000   1.0000   1.0000   1.0000   1.0000   1.0000   1.0000
     1.0000   1.0000   1.0000   1.0000   1.0000   1.0000   1.0000   1.0000
     1.0000   1.0000   1.0000   1.0000   1.0000   1.0000   1.0000   1.0000
     1.0000   1.0000   1.0000   1.0000   1.0000   1.0000   1.0000   1.0000
     1.0000   1.0000   1.0000   1.0000   1.0000   1.0000   1.0000   1.0000
     1.0000   1.0000   1.0000   1.0000   1.0000   1.0000   1.0000   1.0000
     1.0000   1.0000   1.0000   1.0000   1.0000   1.0000   1.0000   1.0000
     1.0000   1.0000   1.0000   1.0000   1.0000   1.0000   1.0000   1.0000
     1.0000   1.0000   1.0000   1.0000   1.0000   1.0000   1.0000   1.0000
     1.0000   1.0000   1.0000   1.0000   1.0000   1.0000   1.0000   1.0000
     1.0000   1.0000   1.0000   1.0000   1.0000   1.0000   1.0000   1.0000
     1.0000   1.0000   1.0000   1.0000   1.0000   1.0000   1.0000   1.0000
     1.0000   1.0000   1.0000   1.0000   1.0000   1.0000   1.0000   1.0000
     1.0000   1.0000   1.0000   1.0000   1.0000   1.0000   1.0000   1.0000
     1.0000   1.0000   1.0000   1.0000   1.0000   1.0000   1.0000   1.0000
     1.0000   1.0000   1.0000   1.0000   1.0000   1.0000   1.0000   1.0000
     1.0000   1.0000   1.0000   1.0000   1.0000   1.0000   1.0000   1.0000
     1.0000   1.0000   1.0000   1.0000   1.0000   1.0000   1.0000   1.0000
     1.0000   1.0000   1.0000   1.0000   1.0000   1.0000   1.0000   1.0000
     1.0000   1.0000   1.0000   1.0000   1.0000   1.0000   1.0000   1.0000
     1.0000   1.0000   1.0000   1.0000   1.0000   1.0000   1.0000   1.0000
     1.0000   1.0000   1.0000   1.0000   1.0000   1.0000   1.0000   1.0000
     1.0000   1.0000   1.0000   1.0000   1.0000   1.0000   1.0000   1.0000
     1.0000   1.0000   1.0000   1.0000   1.0000   1.0000   1.0000   1.0000
     1.0000   1.0000   1.0000   1.0000   1.0000   1.0000   1.0000   1.0000
     1.0000   1.0000   1.0000   1.0000   1.0000   1.0000   1.0000   1.0000
     1.0000   1.0000   1.0000   1.0000   1.0000   1.0000   1.0000   1.0000
     1.0000   1.0000   1.0000   1.0000   1.0000   1.0206   1.0727   1.0739
     1.0778   1.0791   1.0799   1.0801   1.0806   0.3922   0.3501   0.3267
     0.3219   0.1095   0.1083   0.0324   0.0000   0.0000   0.0000   0.0000
     0.0000   0.0000   0.0000   0.0000   0.0000   0.0000   0.0000   0.0000
     0.0000   0.0000   0.0000   0.0000   0.0000   0.0000   0.0000   0.0000
     0.0000   0.0000   0.0000   0.0000   0.0000   0.0000   0.0000   0.0000
     0.0000   0.0000   0.0000   0.0000   0.0000   0.0000   0.0000   0.0000
     0.0000   0.0000   0.0000   0.0000   0.0000   0.0000   0.0000   0.0000
     0.0000   0.0000   0.0000   0.0000   0.0000   0.0000   0.0000   0.0000
     0.0000   0.0000   0.0000   0.0000   0.0000   0.0000   0.0000   0.0000
     0.0000   0.0000   0.0000   0.0000   0.0000   0.0000   0.0000   0.0000
     0.0000   0.0000   0.0000   0.0000   0.0000   0.0000   0.0000   0.0000
     0.0000   0.0000   0.0000   0.0000   0.0000   0.0000   0.0000   0.0000
     0.0000   0.0000   0.0000   0.0000   0.0000   0.0000   0.0000   0.0000
     0.0000   0.0000   0.0000   0.0000   0.0000   0.0000   0.0000   0.0000
     0.0000   0.0000   0.0000   0.0000   0.0000   0.0000   0.0000   0.0000
     0.0000   0.0000   0.0000   0.0000   0.0000   0.0000   0.0000   0.0000
     0.0000   0.0000   0.0000   0.0000   0.0000   0.0000   0.0000   0.0000
     0.0000   0.0000

          k = 0.0000-0.5442-0.2769 ( 46780 PWs)   bands (ev):

  -123.7928-123.7921-123.7917-123.7913-123.7910-123.7902-123.7899-123.7887
  -123.7399-123.7383-123.7381-123.7370-123.7356-123.7349-123.7343-123.7333
  -123.7229-123.7224-123.7213-123.7198-123.7159-123.7154-123.7114-123.7104
  -123.7038-123.7032-123.7005-123.7000-123.6907-123.6903-123.6897-123.6893
  -123.6335-123.6330-123.6324-123.6320-123.6249-123.6246-123.6241-123.6237
  -123.5925-123.5662-123.5661-123.5655-123.5649-123.5644-123.5641-123.5591
  -123.4975-123.4969-123.4954-123.4947-123.4786-123.4777-123.4772-123.4769
  -123.4334-123.4329-123.4325-123.4319-123.4303-123.4265-123.4237-123.4230
   -77.8928 -77.8917 -77.8915 -77.8898 -77.8865 -77.8853 -77.8851 -77.8842
   -77.8835 -77.8827 -77.8817 -77.8802 -77.8760 -77.8747 -77.8728 -77.8719
   -77.8715 -77.8712 -77.8706 -77.8704 -77.8698 -77.8688 -77.8684 -77.8669
   -77.8359 -77.8344 -77.8333 -77.8326 -77.8325 -77.8320 -77.8316 -77.8312
   -77.8293 -77.8286 -77.8274 -77.8267 -77.8265 -77.8257 -77.8241 -77.8231
   -77.8203 -77.8196 -77.8186 -77.8183 -77.8177 -77.8172 -77.8160 -77.8145
   -77.8128 -77.8124 -77.8117 -77.8115 -77.8109 -77.8103 -77.8087 -77.8083
   -77.8083 -77.8077 -77.8068 -77.8064 -77.8059 -77.8055 -77.8053 -77.8049
   -77.8043 -77.8029 -77.8007 -77.8005 -77.7973 -77.7965 -77.7949 -77.7946
   -77.7935 -77.7927 -77.7900 -77.7891 -77.7882 -77.7876 -77.7871 -77.7867
   -77.7865 -77.7845 -77.7842 -77.7835 -77.7830 -77.7806 -77.7773 -77.7767
   -77.7759 -77.7753 -77.7739 -77.7734 -77.7733 -77.7727 -77.7725 -77.7720
   -77.7362 -77.7356 -77.7349 -77.7344 -77.7279 -77.7275 -77.7264 -77.7260
   -77.7242 -77.7237 -77.7168 -77.7165 -77.7156 -77.7154 -77.7148 -77.7146
   -77.7065 -77.7062 -77.7059 -77.7057 -77.7028 -77.7024 -77.6943 -77.6939
   -77.6887 -77.6814 -77.6769 -77.6645 -77.6637 -77.6633 -77.6626 -77.6618
   -77.6615 -77.6608 -77.6603 -77.6592 -77.6555 -77.6522 -77.6517 -77.6500
   -77.6490 -77.6478 -77.6476 -77.6465 -77.6432 -77.6396 -77.6391 -77.6368
   -77.5995 -77.5988 -77.5974 -77.5966 -77.5869 -77.5854 -77.5846 -77.5835
   -77.5818 -77.5809 -77.5804 -77.5797 -77.5795 -77.5792 -77.5671 -77.5664
   -77.5653 -77.5639 -77.5635 -77.5627 -77.5625 -77.5623 -77.5455 -77.5448
   -77.5388 -77.5387 -77.5380 -77.5379 -77.5355 -77.5317 -77.5305 -77.5295
   -77.5212 -77.5205 -77.5203 -77.5192 -77.5181 -77.5172 -77.5170 -77.5149
   -77.5126 -77.5121 -77.5093 -77.5085 -77.4987 -77.4954 -77.4950 -77.4896
   -16.3033 -14.9389 -14.0958 -11.7134 -11.6245  -8.6957  -8.4057  -6.6961
    -6.6925  -6.5202  -5.9183  -5.9074  -5.8762  -5.8739  -5.5483  -5.5449
    -5.5115  -5.5103  -5.3168  -5.3154  -5.2941  -5.2922  -5.2862  -5.2840
    -5.2824  -5.2810  -5.2644  -5.2618  -5.2509  -5.2491  -5.2401  -5.2379
    -5.2257  -5.2248  -5.2154  -5.2146  -5.2067  -5.2055  -5.1993  -5.1981
    -5.1796  -5.1792  -5.1703  -5.1673  -5.1620  -5.1618  -5.1164  -5.1147
    -5.0952  -5.0946  -5.0830  -5.0812  -5.0743  -5.0719  -5.0468  -5.0449
    -5.0436  -5.0429  -5.0421  -5.0415  -5.0319  -5.0262  -5.0041  -5.0018
    -5.0001  -4.9989  -4.9929  -4.9918  -4.9776  -4.9769  -4.9493  -4.9482
    -4.9312  -4.9293  -4.9176  -4.9145  -4.9130  -4.9118  -4.9018  -4.9007
    -4.8935  -4.8927  -4.8825  -4.8815  -4.8715  -4.8696  -4.8540  -4.8532
    -4.8524  -4.8515  -4.8430  -4.8384  -4.8377  -4.8361  -4.8345  -4.8336
    -4.8237  -4.8219  -4.8210  -4.8191  -4.8184  -4.8168  -4.7961  -4.7935
    -4.7770  -4.7764  -4.7609  -4.7604  -4.7411  -4.7395  -4.7342  -4.7329
    -4.7261  -4.7257  -4.7204  -4.7184  -4.7152  -4.7127  -4.7091  -4.7087
    -4.6943  -4.6935  -4.6842  -4.6836  -4.6729  -4.6727  -4.6696  -4.6675
    -4.6586  -4.6568  -4.6513  -4.6496  -4.6426  -4.6423  -4.6247  -4.6244
    -4.6235  -4.6231  -4.6040  -4.6028  -4.6013  -4.6007  -4.5802  -4.5795
    -4.5630  -4.5625  -4.5616  -4.5594  -4.5585  -4.5574  -4.5548  -4.5538
    -4.5504  -4.5501  -4.5449  -4.5432  -4.5246  -4.5243  -4.5213  -4.5209
    -4.5163  -4.5156  -4.5014  -4.5001  -4.4911  -4.4904  -4.4761  -4.4739
    -4.4707  -4.4696  -4.4633  -4.4627  -4.4483  -4.4470  -4.4390  -4.4374
    -4.4228  -4.4218  -4.4141  -4.4131  -4.4125  -4.4113  -4.4056  -4.4048
    -4.4036  -4.4008  -4.3990  -4.3972  -4.3821  -4.3806  -4.3766  -4.3765
    -4.3709  -4.3702  -4.3567  -4.3559  -4.3555  -4.3538  -4.3505  -4.3489
    -4.3410  -4.3397  -4.3242  -4.3228  -4.3222  -4.3209  -4.3197  -4.3185
    -4.3060  -4.3049  -4.2938  -4.2934  -4.2851  -4.2835  -4.2814  -4.2789
    -4.2769  -4.2759  -4.2740  -4.2734  -4.2627  -4.2620  -4.2459  -4.2448
    -4.2357  -4.2351  -4.2347  -4.2344  -4.2279  -4.2270  -4.2159  -4.2156
    -4.2150  -4.2113  -4.2058  -4.2046  -4.2031  -4.2025  -4.1859  -4.1855
    -4.1808  -4.1791  -4.1749  -4.1736  -4.1729  -4.1725  -4.1698  -4.1692
    -4.1552  -4.1522  -4.1481  -4.1476  -4.1458  -4.1453  -4.1285  -4.1276
    -4.1222  -4.1218  -4.1188  -4.1185  -4.1174  -4.1173  -4.1033  -4.1019
    -4.1002  -4.0998  -4.0982  -4.0979  -4.0920  -4.0912  -4.0861  -4.0847
    -4.0821  -4.0813  -4.0802  -4.0795  -4.0716  -4.0714  -4.0663  -4.0656
    -4.0612  -4.0609  -4.0594  -4.0586  -4.0516  -4.0501  -4.0454  -4.0435
    -4.0420  -4.0405  -4.0351  -4.0350  -4.0339  -4.0338  -4.0299  -4.0294
    -4.0282  -4.0274  -4.0131  -4.0122  -4.0089  -4.0084  -4.0082  -4.0068
    -4.0031  -4.0016  -3.9999  -3.9993  -3.9952  -3.9948  -3.9842  -3.9837
    -3.9717  -3.9709  -3.9692  -3.9687  -3.9679  -3.9668  -3.9610  -3.9580
    -3.9474  -3.9454  -3.9363  -3.9359  -3.9265  -3.9255  -3.9194  -3.9187
    -3.9131  -3.9108  -3.9058  -3.9054  -3.8893  -3.8847  -3.8648  -3.8610
    -3.8567  -3.7938  -3.7928  -3.7846  -3.4929  -3.4921  -3.3640  -2.9775
    -2.9760  -2.9573  -2.9569  -2.8580  -2.7411  -2.7371  -2.6895  -2.6889
    -2.5876  -1.8389  -1.8377  -1.7690  -1.7648  -1.6827  -1.5086  -1.5028
    -1.4881  -1.2699  -1.2693  -1.0718  -1.0682  -0.9063  -0.7679  -0.7676
    -0.4823  -0.2477  -0.2156  -0.2071   0.0100   0.0136   0.0528   0.0548
     0.1748   0.1770   0.2321   0.2338   0.3084   0.3112   0.4942   0.6269
     0.6280   0.8860   0.8935   1.2395   1.2427   1.5226   1.5237   1.5343
     1.5397   1.8454   1.9269   1.9374   2.3084   2.3104   2.3756   2.3800
     2.5234   2.5239   2.7016   2.7042   3.0328   3.0348   3.0973   3.1003
     3.3453   3.3468   3.3532   3.3544   3.3746   3.3834   4.1407   4.1424
     4.1500   4.1646   4.2704   4.2742   4.4435   4.4512   4.7122   4.7133
     5.0035   5.0076   5.0961   5.1001   5.2353   5.2362   5.3901   5.4415
     5.4826   5.5192   5.5292   5.6123   5.6997   5.7035   5.7255   5.7283
     5.9538   5.9567   5.9679   5.9841   6.0750   6.0773   6.1380   6.1398
     6.1643   6.1858   6.2008   6.2639   6.2669   6.2788   6.2865   6.2882
     6.2904   6.3351   6.5211   6.6259   6.7732   6.7769   6.9227   6.9868
     7.0031   7.0415   7.1297   7.1545   7.1778   7.1943   7.2462   7.2528
     7.2670   7.4123   7.4193   7.5165   7.6005   7.6064   7.6104   7.8513
     7.9269   7.9690   7.9924   8.0284   8.0699   8.0973   8.1186   8.1495
     8.1533   8.1762   8.2302   8.2645   8.2928   8.2970   8.3220   8.3470
     8.4303   8.5106   8.5768   8.6438   8.7013   8.7114   8.7835   8.8428
     8.9076   8.9185   8.9477   8.9757   8.9992   9.0803   9.1120   9.1319
     9.1572   9.1681   9.2139   9.3039   9.3193   9.3669   9.5128   9.5319
     9.6133   9.6414   9.7526   9.8262   9.9161  10.0005  10.0260  10.1075
    10.1174  10.1385  10.2421  10.2657  10.2914  10.3121  10.3268  10.3499
    10.4024  10.4156

     occupation numbers 
     1.0000   1.0000   1.0000   1.0000   1.0000   1.0000   1.0000   1.0000
     1.0000   1.0000   1.0000   1.0000   1.0000   1.0000   1.0000   1.0000
     1.0000   1.0000   1.0000   1.0000   1.0000   1.0000   1.0000   1.0000
     1.0000   1.0000   1.0000   1.0000   1.0000   1.0000   1.0000   1.0000
     1.0000   1.0000   1.0000   1.0000   1.0000   1.0000   1.0000   1.0000
     1.0000   1.0000   1.0000   1.0000   1.0000   1.0000   1.0000   1.0000
     1.0000   1.0000   1.0000   1.0000   1.0000   1.0000   1.0000   1.0000
     1.0000   1.0000   1.0000   1.0000   1.0000   1.0000   1.0000   1.0000
     1.0000   1.0000   1.0000   1.0000   1.0000   1.0000   1.0000   1.0000
     1.0000   1.0000   1.0000   1.0000   1.0000   1.0000   1.0000   1.0000
     1.0000   1.0000   1.0000   1.0000   1.0000   1.0000   1.0000   1.0000
     1.0000   1.0000   1.0000   1.0000   1.0000   1.0000   1.0000   1.0000
     1.0000   1.0000   1.0000   1.0000   1.0000   1.0000   1.0000   1.0000
     1.0000   1.0000   1.0000   1.0000   1.0000   1.0000   1.0000   1.0000
     1.0000   1.0000   1.0000   1.0000   1.0000   1.0000   1.0000   1.0000
     1.0000   1.0000   1.0000   1.0000   1.0000   1.0000   1.0000   1.0000
     1.0000   1.0000   1.0000   1.0000   1.0000   1.0000   1.0000   1.0000
     1.0000   1.0000   1.0000   1.0000   1.0000   1.0000   1.0000   1.0000
     1.0000   1.0000   1.0000   1.0000   1.0000   1.0000   1.0000   1.0000
     1.0000   1.0000   1.0000   1.0000   1.0000   1.0000   1.0000   1.0000
     1.0000   1.0000   1.0000   1.0000   1.0000   1.0000   1.0000   1.0000
     1.0000   1.0000   1.0000   1.0000   1.0000   1.0000   1.0000   1.0000
     1.0000   1.0000   1.0000   1.0000   1.0000   1.0000   1.0000   1.0000
     1.0000   1.0000   1.0000   1.0000   1.0000   1.0000   1.0000   1.0000
     1.0000   1.0000   1.0000   1.0000   1.0000   1.0000   1.0000   1.0000
     1.0000   1.0000   1.0000   1.0000   1.0000   1.0000   1.0000   1.0000
     1.0000   1.0000   1.0000   1.0000   1.0000   1.0000   1.0000   1.0000
     1.0000   1.0000   1.0000   1.0000   1.0000   1.0000   1.0000   1.0000
     1.0000   1.0000   1.0000   1.0000   1.0000   1.0000   1.0000   1.0000
     1.0000   1.0000   1.0000   1.0000   1.0000   1.0000   1.0000   1.0000
     1.0000   1.0000   1.0000   1.0000   1.0000   1.0000   1.0000   1.0000
     1.0000   1.0000   1.0000   1.0000   1.0000   1.0000   1.0000   1.0000
     1.0000   1.0000   1.0000   1.0000   1.0000   1.0000   1.0000   1.0000
     1.0000   1.0000   1.0000   1.0000   1.0000   1.0000   1.0000   1.0000
     1.0000   1.0000   1.0000   1.0000   1.0000   1.0000   1.0000   1.0000
     1.0000   1.0000   1.0000   1.0000   1.0000   1.0000   1.0000   1.0000
     1.0000   1.0000   1.0000   1.0000   1.0000   1.0000   1.0000   1.0000
     1.0000   1.0000   1.0000   1.0000   1.0000   1.0000   1.0000   1.0000
     1.0000   1.0000   1.0000   1.0000   1.0000   1.0000   1.0000   1.0000
     1.0000   1.0000   1.0000   1.0000   1.0000   1.0000   1.0000   1.0000
     1.0000   1.0000   1.0000   1.0000   1.0000   1.0000   1.0000   1.0000
     1.0000   1.0000   1.0000   1.0000   1.0000   1.0000   1.0000   1.0000
     1.0000   1.0000   1.0000   1.0000   1.0000   1.0000   1.0000   1.0000
     1.0000   1.0000   1.0000   1.0000   1.0000   1.0000   1.0000   1.0000
     1.0000   1.0000   1.0000   1.0000   1.0000   1.0000   1.0000   1.0000
     1.0000   1.0000   1.0000   1.0000   1.0000   1.0000   1.0000   1.0000
     1.0000   1.0000   1.0000   1.0000   1.0000   1.0000   1.0000   1.0000
     1.0000   1.0000   1.0000   1.0000   1.0000   1.0000   1.0000   1.0000
     1.0000   1.0000   1.0000   1.0000   1.0000   1.0000   1.0000   1.0000
     1.0000   1.0000   1.0000   1.0000   1.0000   1.0000   1.0000   1.0000
     1.0000   1.0000   1.0000   1.0000   1.0000   1.0000   1.0000   1.0000
     1.0000   1.0000   1.0000   1.0000   1.0000   1.0000   1.0000   1.0000
     1.0000   1.0000   1.0000   1.0000   1.0000   1.0000   1.0000   1.0000
     1.0000   1.0000   1.0000   1.0000   1.0000   1.0000   1.0000   1.0000
     1.0000   1.0000   1.0000   1.0000   1.0000   1.0000   1.0000   1.0000
     1.0000   1.0000   1.0000   1.0000   1.0000   1.0000   1.0000   1.0000
     1.0000   1.0000   1.0000   1.0000   1.0000   1.0000   1.0000   1.0000
     1.0000   1.0000   1.0000   1.0000   1.0000   1.0000   1.0000   1.0000
     1.0000   1.0000   1.0000   1.0000   1.0000   1.0000   1.0000   1.0000
     1.0000   1.0000   1.0000   1.0000   1.0000   1.0000   1.0000   1.0000
     1.0000   1.0000   1.0000   1.0000   1.0000   1.0000   1.0000   1.0000
     1.0000   1.0000   1.0000   1.0000   1.0000   1.0000   1.0000   1.0000
     1.0000   1.0000   1.0000   1.0000   1.0000   1.0000   1.0000   1.0000
     1.0000   1.0000   1.0000   1.0000   1.0000   1.0000   1.0000   1.0000
     1.0000   1.0000   1.0000   1.0000   1.0000   1.0000   1.0000   1.0000
     1.0000   1.0000   1.0000   1.0000   1.0000   1.0000   1.0000   1.0000
     1.0000   1.0000   1.0000   1.0000   1.0000   1.0000   1.0000   1.0000
     1.0000   1.0000   1.0000   1.0000   1.0000   1.0000   1.0000   1.0000
     1.0000   1.0000   1.0000   1.0000   1.0000   1.0000   1.0000   1.0000
     1.0000   1.0000   1.0000   1.0000   1.0000   1.0000   1.0000   1.0000
     1.0000   1.0000   1.0000   1.0000   1.0000   1.0000   1.0000   1.0000
     1.0000   1.0000   1.0000   1.0000   1.0000   1.0000   1.0000   1.0000
     1.0000   1.0000   1.0000   1.0000   1.0000   1.0000   1.0000   1.0000
     1.0000   1.0000   1.0000   1.0000   1.0000   1.0000   1.0000   1.0000
     1.0000   1.0000   1.0000   1.0000   1.0000   1.0000   1.0000   1.0000
     1.0000   1.0000   1.0000   1.0000   1.0000   1.0000   1.0000   1.0000
     1.0000   1.0000   1.0000   1.0000   1.0000   1.0000   1.0000   1.0000
     1.0000   1.0000   1.0000   1.0000   1.0000   1.0000   1.0000   1.0000
     1.0000   1.0000   1.0000   1.0000   1.0000   1.0000   1.0000   1.0000
     1.0000   1.0000   1.0000   1.0000   1.0000   1.0000   1.0000   1.0000
     1.0000   1.0000   1.0000   1.0000   1.0000   1.0000   1.0000   1.0000
     1.0000   1.0000   1.0001   1.0001   1.0286   1.0291   1.0494   1.0509
     1.0828   1.0827   0.9018   0.8964   0.1351   0.1325   0.0690   0.0668
     0.0019   0.0019   0.0017   0.0016   0.0011   0.0010   0.0000   0.0000
     0.0000   0.0000   0.0000   0.0000   0.0000   0.0000   0.0000   0.0000
     0.0000   0.0000   0.0000   0.0000   0.0000   0.0000   0.0000   0.0000
     0.0000   0.0000   0.0000   0.0000   0.0000   0.0000   0.0000   0.0000
     0.0000   0.0000   0.0000   0.0000   0.0000   0.0000   0.0000   0.0000
     0.0000   0.0000   0.0000   0.0000   0.0000   0.0000   0.0000   0.0000
     0.0000   0.0000   0.0000   0.0000   0.0000   0.0000   0.0000   0.0000
     0.0000   0.0000   0.0000   0.0000   0.0000   0.0000   0.0000   0.0000
     0.0000   0.0000   0.0000   0.0000   0.0000   0.0000   0.0000   0.0000
     0.0000   0.0000   0.0000   0.0000   0.0000   0.0000   0.0000   0.0000
     0.0000   0.0000   0.0000   0.0000   0.0000   0.0000   0.0000   0.0000
     0.0000   0.0000   0.0000   0.0000   0.0000   0.0000   0.0000   0.0000
     0.0000   0.0000   0.0000   0.0000   0.0000   0.0000   0.0000   0.0000
     0.0000   0.0000   0.0000   0.0000   0.0000   0.0000   0.0000   0.0000
     0.0000   0.0000   0.0000   0.0000   0.0000   0.0000   0.0000   0.0000
     0.0000   0.0000   0.0000   0.0000   0.0000   0.0000   0.0000   0.0000
     0.0000   0.0000

          k =-0.5000-0.1216-1.1076 ( 46770 PWs)   bands (ev):

  -123.7926-123.7923-123.7916-123.7913-123.7910-123.7902-123.7898-123.7887
  -123.7399-123.7384-123.7378-123.7369-123.7358-123.7348-123.7343-123.7333
  -123.7228-123.7225-123.7212-123.7198-123.7158-123.7155-123.7113-123.7104
  -123.7037-123.7032-123.7003-123.7001-123.6907-123.6902-123.6896-123.6893
  -123.6336-123.6327-123.6325-123.6320-123.6250-123.6245-123.6239-123.6238
  -123.5925-123.5663-123.5661-123.5654-123.5648-123.5644-123.5640-123.5591
  -123.4974-123.4970-123.4952-123.4947-123.4786-123.4776-123.4771-123.4770
  -123.4333-123.4329-123.4324-123.4319-123.4302-123.4265-123.4236-123.4231
   -77.8997 -77.8987 -77.8860 -77.8859 -77.8842 -77.8842 -77.8840 -77.8830
   -77.8827 -77.8814 -77.8791 -77.8790 -77.8756 -77.8754 -77.8739 -77.8737
   -77.8727 -77.8726 -77.8714 -77.8709 -77.8707 -77.8699 -77.8658 -77.8646
   -77.8397 -77.8360 -77.8353 -77.8339 -77.8336 -77.8325 -77.8322 -77.8309
   -77.8301 -77.8291 -77.8258 -77.8246 -77.8240 -77.8232 -77.8218 -77.8210
   -77.8203 -77.8196 -77.8193 -77.8185 -77.8180 -77.8180 -77.8172 -77.8164
   -77.8148 -77.8145 -77.8120 -77.8116 -77.8113 -77.8112 -77.8103 -77.8098
   -77.8093 -77.8081 -77.8069 -77.8067 -77.8060 -77.8053 -77.8027 -77.8026
   -77.8024 -77.8021 -77.7995 -77.7993 -77.7977 -77.7973 -77.7925 -77.7921
   -77.7918 -77.7914 -77.7896 -77.7894 -77.7878 -77.7876 -77.7871 -77.7865
   -77.7864 -77.7844 -77.7836 -77.7802 -77.7800 -77.7789 -77.7783 -77.7779
   -77.7772 -77.7767 -77.7764 -77.7747 -77.7732 -77.7730 -77.7723 -77.7671
   -77.7367 -77.7358 -77.7352 -77.7347 -77.7315 -77.7283 -77.7273 -77.7271
   -77.7266 -77.7228 -77.7161 -77.7156 -77.7153 -77.7148 -77.7110 -77.7103
   -77.7073 -77.7073 -77.7061 -77.7061 -77.7007 -77.7006 -77.6985 -77.6899
   -77.6891 -77.6827 -77.6770 -77.6688 -77.6650 -77.6638 -77.6632 -77.6629
   -77.6625 -77.6607 -77.6558 -77.6558 -77.6512 -77.6509 -77.6504 -77.6500
   -77.6494 -77.6488 -77.6476 -77.6464 -77.6451 -77.6438 -77.6351 -77.6348
   -77.5998 -77.5990 -77.5975 -77.5969 -77.5936 -77.5834 -77.5832 -77.5818
   -77.5814 -77.5811 -77.5803 -77.5797 -77.5795 -77.5742 -77.5722 -77.5720
   -77.5646 -77.5639 -77.5630 -77.5628 -77.5599 -77.5524 -77.5518 -77.5407
   -77.5391 -77.5386 -77.5382 -77.5380 -77.5357 -77.5319 -77.5305 -77.5298
   -77.5267 -77.5232 -77.5199 -77.5193 -77.5189 -77.5183 -77.5167 -77.5138
   -77.5102 -77.5097 -77.5059 -77.5045 -77.5008 -77.4988 -77.4920 -77.4870
   -16.3033 -14.9389 -14.0957 -11.7134 -11.6245  -8.6958  -8.4056  -6.7646
    -6.7441  -6.5203  -5.9178  -5.9070  -5.7365  -5.7364  -5.6596  -5.6495
    -5.4977  -5.4963  -5.3953  -5.3946  -5.3845  -5.3718  -5.3566  -5.3560
    -5.3401  -5.3365  -5.2983  -5.2948  -5.2717  -5.2688  -5.2454  -5.2446
    -5.1960  -5.1902  -5.1859  -5.1855  -5.1498  -5.1496  -5.1349  -5.1297
    -5.1133  -5.1127  -5.0992  -5.0971  -5.0865  -5.0859  -5.0858  -5.0828
    -5.0721  -5.0715  -5.0660  -5.0609  -5.0556  -5.0555  -5.0334  -5.0321
    -5.0314  -5.0291  -5.0250  -5.0248  -5.0083  -5.0066  -4.9953  -4.9949
    -4.9716  -4.9711  -4.9709  -4.9705  -4.9575  -4.9573  -4.9504  -4.9502
    -4.9457  -4.9448  -4.9417  -4.9410  -4.9241  -4.9167  -4.9130  -4.9127
    -4.8882  -4.8881  -4.8774  -4.8727  -4.8606  -4.8603  -4.8593  -4.8591
    -4.8550  -4.8540  -4.8452  -4.8432  -4.8303  -4.8298  -4.8291  -4.8241
    -4.8081  -4.8066  -4.8029  -4.8024  -4.7862  -4.7831  -4.7823  -4.7821
    -4.7616  -4.7600  -4.7556  -4.7539  -4.7425  -4.7401  -4.7263  -4.7251
    -4.7133  -4.7116  -4.7022  -4.7016  -4.7001  -4.6994  -4.6975  -4.6964
    -4.6875  -4.6872  -4.6824  -4.6815  -4.6798  -4.6794  -4.6772  -4.6707
    -4.6498  -4.6488  -4.6403  -4.6365  -4.6358  -4.6287  -4.6141  -4.6131
    -4.6128  -4.6113  -4.5847  -4.5794  -4.5757  -4.5754  -4.5686  -4.5671
    -4.5659  -4.5658  -4.5403  -4.5333  -4.5326  -4.5317  -4.5302  -4.5299
    -4.5194  -4.5187  -4.5117  -4.5111  -4.5107  -4.5088  -4.5048  -4.5040
    -4.4980  -4.4950  -4.4925  -4.4912  -4.4900  -4.4885  -4.4744  -4.4721
    -4.4668  -4.4640  -4.4596  -4.4592  -4.4566  -4.4560  -4.4546  -4.4540
    -4.4462  -4.4459  -4.4434  -4.4406  -4.4304  -4.4251  -4.4237  -4.4220
    -4.4176  -4.4171  -4.4070  -4.4063  -4.4024  -4.3954  -4.3824  -4.3819
    -4.3684  -4.3667  -4.3637  -4.3629  -4.3617  -4.3552  -4.3533  -4.3514
    -4.3302  -4.3297  -4.3267  -4.3254  -4.3203  -4.3186  -4.3101  -4.3085
    -4.3034  -4.3017  -4.2991  -4.2976  -4.2973  -4.2925  -4.2916  -4.2911
    -4.2831  -4.2826  -4.2740  -4.2733  -4.2727  -4.2689  -4.2614  -4.2604
    -4.2594  -4.2557  -4.2495  -4.2493  -4.2453  -4.2413  -4.2405  -4.2402
    -4.2288  -4.2281  -4.2232  -4.2227  -4.2203  -4.2202  -4.2127  -4.2116
    -4.2014  -4.2010  -4.1983  -4.1975  -4.1919  -4.1893  -4.1890  -4.1886
    -4.1877  -4.1875  -4.1826  -4.1826  -4.1815  -4.1813  -4.1684  -4.1676
    -4.1633  -4.1622  -4.1567  -4.1561  -4.1553  -4.1531  -4.1458  -4.1448
    -4.1297  -4.1272  -4.1195  -4.1192  -4.1123  -4.1098  -4.1088  -4.1057
    -4.1051  -4.1049  -4.0884  -4.0882  -4.0837  -4.0834  -4.0764  -4.0759
    -4.0709  -4.0704  -4.0622  -4.0619  -4.0603  -4.0597  -4.0564  -4.0542
    -4.0540  -4.0537  -4.0411  -4.0400  -4.0396  -4.0373  -4.0220  -4.0216
    -4.0186  -4.0142  -4.0137  -4.0119  -4.0104  -4.0068  -4.0067  -4.0047
    -4.0010  -3.9999  -3.9922  -3.9903  -3.9897  -3.9895  -3.9867  -3.9849
    -3.9720  -3.9719  -3.9702  -3.9692  -3.9681  -3.9678  -3.9521  -3.9500
    -3.9439  -3.9295  -3.9268  -3.9254  -3.8962  -3.8934  -3.8872  -3.8841
    -3.8780  -3.8752  -3.8661  -3.8595  -3.8548  -3.8340  -3.8293  -3.7969
    -3.7854  -3.7845  -3.7533  -3.7502  -3.5320  -3.5317  -3.3631  -3.2303
    -3.2200  -2.9368  -2.9356  -2.8597  -2.8364  -2.8105  -2.7878  -2.7867
    -2.5891  -2.0894  -2.0461  -1.7178  -1.7149  -1.6813  -1.6387  -1.6373
    -1.4911  -0.9973  -0.9958  -0.9061  -0.8509  -0.8506  -0.6730  -0.6722
    -0.4818  -0.3395  -0.3269  -0.2475   0.0551   0.1246   0.3103   0.3108
     0.3389   0.3496   0.4065   0.4077   0.4941   0.5580   0.5738   0.6118
     0.6255   0.9570   0.9610   1.5344   1.5417   1.6523   1.6587   1.7684
     1.7728   1.7803   1.7817   1.8324   1.8701   1.8971   2.0877   2.0959
     2.4763   2.4795   2.4927   2.5053   2.6736   2.7280   2.9262   2.9272
     3.0543   3.0544   3.3592   3.3968   3.5722   3.5774   3.6323   3.6436
     3.9008   3.9535   4.2550   4.2600   4.7709   4.7714   4.8051   4.8077
     4.8686   4.8739   4.9361   4.9447   5.1410   5.1422   5.1696   5.1825
     5.1995   5.2012   5.2829   5.3624   5.4610   5.5796   5.6134   5.6200
     5.6316   5.6477   5.6939   5.7135   5.9974   6.1475   6.1720   6.1837
     6.3194   6.3348   6.4428   6.4625   6.4703   6.5318   6.6550   6.6618
     6.6630   6.6689   6.7143   6.7642   7.0176   7.0487   7.1139   7.1658
     7.1869   7.2656   7.2672   7.4524   7.4574   7.4922   7.5057   7.5223
     7.5732   7.6120   7.6728   7.7380   7.7628   7.8143   7.8520   7.8842
     7.8905   7.9571   8.0617   8.0893   8.1059   8.1354   8.1778   8.2032
     8.2565   8.3161   8.3231   8.3308   8.3735   8.4029   8.4436   8.5055
     8.5415   8.5620   8.5822   8.6192   8.6398   8.6693   8.7134   8.8224
     8.8945   8.9419   9.1088   9.1282   9.1554   9.2058   9.2262   9.2598
     9.3177   9.3693   9.4308   9.4635   9.5250   9.5618   9.6287   9.7062
     9.7461   9.7617   9.7836   9.7865   9.8054   9.8986   9.9255   9.9804
    10.0233  10.0315  10.1315  10.1693  10.1905  10.2119  10.2186  10.2963
    10.3379  10.3664

     occupation numbers 
     1.0000   1.0000   1.0000   1.0000   1.0000   1.0000   1.0000   1.0000
     1.0000   1.0000   1.0000   1.0000   1.0000   1.0000   1.0000   1.0000
     1.0000   1.0000   1.0000   1.0000   1.0000   1.0000   1.0000   1.0000
     1.0000   1.0000   1.0000   1.0000   1.0000   1.0000   1.0000   1.0000
     1.0000   1.0000   1.0000   1.0000   1.0000   1.0000   1.0000   1.0000
     1.0000   1.0000   1.0000   1.0000   1.0000   1.0000   1.0000   1.0000
     1.0000   1.0000   1.0000   1.0000   1.0000   1.0000   1.0000   1.0000
     1.0000   1.0000   1.0000   1.0000   1.0000   1.0000   1.0000   1.0000
     1.0000   1.0000   1.0000   1.0000   1.0000   1.0000   1.0000   1.0000
     1.0000   1.0000   1.0000   1.0000   1.0000   1.0000   1.0000   1.0000
     1.0000   1.0000   1.0000   1.0000   1.0000   1.0000   1.0000   1.0000
     1.0000   1.0000   1.0000   1.0000   1.0000   1.0000   1.0000   1.0000
     1.0000   1.0000   1.0000   1.0000   1.0000   1.0000   1.0000   1.0000
     1.0000   1.0000   1.0000   1.0000   1.0000   1.0000   1.0000   1.0000
     1.0000   1.0000   1.0000   1.0000   1.0000   1.0000   1.0000   1.0000
     1.0000   1.0000   1.0000   1.0000   1.0000   1.0000   1.0000   1.0000
     1.0000   1.0000   1.0000   1.0000   1.0000   1.0000   1.0000   1.0000
     1.0000   1.0000   1.0000   1.0000   1.0000   1.0000   1.0000   1.0000
     1.0000   1.0000   1.0000   1.0000   1.0000   1.0000   1.0000   1.0000
     1.0000   1.0000   1.0000   1.0000   1.0000   1.0000   1.0000   1.0000
     1.0000   1.0000   1.0000   1.0000   1.0000   1.0000   1.0000   1.0000
     1.0000   1.0000   1.0000   1.0000   1.0000   1.0000   1.0000   1.0000
     1.0000   1.0000   1.0000   1.0000   1.0000   1.0000   1.0000   1.0000
     1.0000   1.0000   1.0000   1.0000   1.0000   1.0000   1.0000   1.0000
     1.0000   1.0000   1.0000   1.0000   1.0000   1.0000   1.0000   1.0000
     1.0000   1.0000   1.0000   1.0000   1.0000   1.0000   1.0000   1.0000
     1.0000   1.0000   1.0000   1.0000   1.0000   1.0000   1.0000   1.0000
     1.0000   1.0000   1.0000   1.0000   1.0000   1.0000   1.0000   1.0000
     1.0000   1.0000   1.0000   1.0000   1.0000   1.0000   1.0000   1.0000
     1.0000   1.0000   1.0000   1.0000   1.0000   1.0000   1.0000   1.0000
     1.0000   1.0000   1.0000   1.0000   1.0000   1.0000   1.0000   1.0000
     1.0000   1.0000   1.0000   1.0000   1.0000   1.0000   1.0000   1.0000
     1.0000   1.0000   1.0000   1.0000   1.0000   1.0000   1.0000   1.0000
     1.0000   1.0000   1.0000   1.0000   1.0000   1.0000   1.0000   1.0000
     1.0000   1.0000   1.0000   1.0000   1.0000   1.0000   1.0000   1.0000
     1.0000   1.0000   1.0000   1.0000   1.0000   1.0000   1.0000   1.0000
     1.0000   1.0000   1.0000   1.0000   1.0000   1.0000   1.0000   1.0000
     1.0000   1.0000   1.0000   1.0000   1.0000   1.0000   1.0000   1.0000
     1.0000   1.0000   1.0000   1.0000   1.0000   1.0000   1.0000   1.0000
     1.0000   1.0000   1.0000   1.0000   1.0000   1.0000   1.0000   1.0000
     1.0000   1.0000   1.0000   1.0000   1.0000   1.0000   1.0000   1.0000
     1.0000   1.0000   1.0000   1.0000   1.0000   1.0000   1.0000   1.0000
     1.0000   1.0000   1.0000   1.0000   1.0000   1.0000   1.0000   1.0000
     1.0000   1.0000   1.0000   1.0000   1.0000   1.0000   1.0000   1.0000
     1.0000   1.0000   1.0000   1.0000   1.0000   1.0000   1.0000   1.0000
     1.0000   1.0000   1.0000   1.0000   1.0000   1.0000   1.0000   1.0000
     1.0000   1.0000   1.0000   1.0000   1.0000   1.0000   1.0000   1.0000
     1.0000   1.0000   1.0000   1.0000   1.0000   1.0000   1.0000   1.0000
     1.0000   1.0000   1.0000   1.0000   1.0000   1.0000   1.0000   1.0000
     1.0000   1.0000   1.0000   1.0000   1.0000   1.0000   1.0000   1.0000
     1.0000   1.0000   1.0000   1.0000   1.0000   1.0000   1.0000   1.0000
     1.0000   1.0000   1.0000   1.0000   1.0000   1.0000   1.0000   1.0000
     1.0000   1.0000   1.0000   1.0000   1.0000   1.0000   1.0000   1.0000
     1.0000   1.0000   1.0000   1.0000   1.0000   1.0000   1.0000   1.0000
     1.0000   1.0000   1.0000   1.0000   1.0000   1.0000   1.0000   1.0000
     1.0000   1.0000   1.0000   1.0000   1.0000   1.0000   1.0000   1.0000
     1.0000   1.0000   1.0000   1.0000   1.0000   1.0000   1.0000   1.0000
     1.0000   1.0000   1.0000   1.0000   1.0000   1.0000   1.0000   1.0000
     1.0000   1.0000   1.0000   1.0000   1.0000   1.0000   1.0000   1.0000
     1.0000   1.0000   1.0000   1.0000   1.0000   1.0000   1.0000   1.0000
     1.0000   1.0000   1.0000   1.0000   1.0000   1.0000   1.0000   1.0000
     1.0000   1.0000   1.0000   1.0000   1.0000   1.0000   1.0000   1.0000
     1.0000   1.0000   1.0000   1.0000   1.0000   1.0000   1.0000   1.0000
     1.0000   1.0000   1.0000   1.0000   1.0000   1.0000   1.0000   1.0000
     1.0000   1.0000   1.0000   1.0000   1.0000   1.0000   1.0000   1.0000
     1.0000   1.0000   1.0000   1.0000   1.0000   1.0000   1.0000   1.0000
     1.0000   1.0000   1.0000   1.0000   1.0000   1.0000   1.0000   1.0000
     1.0000   1.0000   1.0000   1.0000   1.0000   1.0000   1.0000   1.0000
     1.0000   1.0000   1.0000   1.0000   1.0000   1.0000   1.0000   1.0000
     1.0000   1.0000   1.0000   1.0000   1.0000   1.0000   1.0000   1.0000
     1.0000   1.0000   1.0000   1.0000   1.0000   1.0000   1.0000   1.0000
     1.0000   1.0000   1.0000   1.0000   1.0000   1.0000   1.0000   1.0000
     1.0000   1.0000   1.0000   1.0000   1.0000   1.0000   1.0000   1.0000
     1.0000   1.0000   1.0000   1.0000   1.0000   1.0000   1.0000   1.0000
     1.0000   1.0000   1.0000   1.0000   1.0000   1.0000   1.0000   1.0000
     1.0000   1.0000   1.0000   1.0000   1.0000   1.0000   1.0000   1.0000
     1.0000   1.0000   1.0000   1.0000   1.0000   1.0000   1.0000   1.0000
     1.0000   1.0000   1.0000   1.0000   1.0000   1.0000   1.0000   1.0000
     1.0000   1.0000   1.0000   1.0000   1.0000   1.0000   1.0000   1.0000
     1.0000   1.0000   1.0000   1.0000   1.0000   1.0000   1.0000   1.0000
     1.0000   1.0000   1.0000   1.0000   1.0000   1.0000   1.0000   1.0000
     1.0000   1.0000   1.0000   1.0000   1.0000   1.0000   1.0017   1.0019
     1.0799   1.0805   1.0823   1.0832   0.9551   0.8438   0.3265   0.3242
     0.1092   0.1092   0.0015   0.0008   0.0000   0.0000   0.0000   0.0000
     0.0000   0.0000   0.0000   0.0000   0.0000   0.0000   0.0000   0.0000
     0.0000   0.0000   0.0000   0.0000   0.0000   0.0000   0.0000   0.0000
     0.0000   0.0000   0.0000   0.0000   0.0000   0.0000   0.0000   0.0000
     0.0000   0.0000   0.0000   0.0000   0.0000   0.0000   0.0000   0.0000
     0.0000   0.0000   0.0000   0.0000   0.0000   0.0000   0.0000   0.0000
     0.0000   0.0000   0.0000   0.0000   0.0000   0.0000   0.0000   0.0000
     0.0000   0.0000   0.0000   0.0000   0.0000   0.0000   0.0000   0.0000
     0.0000   0.0000   0.0000   0.0000   0.0000   0.0000   0.0000   0.0000
     0.0000   0.0000   0.0000   0.0000   0.0000   0.0000   0.0000   0.0000
     0.0000   0.0000   0.0000   0.0000   0.0000   0.0000   0.0000   0.0000
     0.0000   0.0000   0.0000   0.0000   0.0000   0.0000   0.0000   0.0000
     0.0000   0.0000   0.0000   0.0000   0.0000   0.0000   0.0000   0.0000
     0.0000   0.0000   0.0000   0.0000   0.0000   0.0000   0.0000   0.0000
     0.0000   0.0000   0.0000   0.0000   0.0000   0.0000   0.0000   0.0000
     0.0000   0.0000   0.0000   0.0000   0.0000   0.0000   0.0000   0.0000
     0.0000   0.0000

          k =-0.5000-0.6659-1.3845 ( 46722 PWs)   bands (ev):

  -123.7925-123.7922-123.7913-123.7911-123.7911-123.7900-123.7898-123.7886
  -123.7398-123.7382-123.7379-123.7368-123.7356-123.7348-123.7342-123.7331
  -123.7228-123.7223-123.7212-123.7197-123.7158-123.7153-123.7112-123.7103
  -123.7036-123.7030-123.7003-123.6998-123.6906-123.6901-123.6896-123.6891
  -123.6334-123.6329-123.6323-123.6319-123.6248-123.6245-123.6239-123.6236
  -123.5924-123.5662-123.5659-123.5653-123.5647-123.5642-123.5639-123.5590
  -123.4974-123.4968-123.4952-123.4946-123.4785-123.4775-123.4771-123.4768
  -123.4333-123.4327-123.4323-123.4317-123.4302-123.4264-123.4236-123.4229
   -77.8921 -77.8918 -77.8905 -77.8893 -77.8854 -77.8852 -77.8840 -77.8835
   -77.8829 -77.8822 -77.8818 -77.8806 -77.8756 -77.8751 -77.8718 -77.8714
   -77.8712 -77.8708 -77.8698 -77.8694 -77.8688 -77.8685 -77.8684 -77.8671
   -77.8352 -77.8337 -77.8328 -77.8319 -77.8316 -77.8315 -77.8307 -77.8305
   -77.8295 -77.8286 -77.8270 -77.8264 -77.8261 -77.8251 -77.8232 -77.8219
   -77.8203 -77.8197 -77.8191 -77.8181 -77.8173 -77.8166 -77.8156 -77.8141
   -77.8125 -77.8122 -77.8116 -77.8110 -77.8106 -77.8099 -77.8082 -77.8077
   -77.8074 -77.8069 -77.8066 -77.8066 -77.8056 -77.8054 -77.8049 -77.8045
   -77.8041 -77.8023 -77.8003 -77.8001 -77.7973 -77.7964 -77.7943 -77.7939
   -77.7923 -77.7912 -77.7897 -77.7887 -77.7874 -77.7869 -77.7863 -77.7861
   -77.7857 -77.7840 -77.7837 -77.7830 -77.7826 -77.7804 -77.7766 -77.7761
   -77.7757 -77.7754 -77.7733 -77.7728 -77.7726 -77.7721 -77.7719 -77.7717
   -77.7356 -77.7350 -77.7345 -77.7339 -77.7271 -77.7267 -77.7263 -77.7259
   -77.7236 -77.7231 -77.7162 -77.7158 -77.7150 -77.7147 -77.7139 -77.7135
   -77.7073 -77.7068 -77.7056 -77.7052 -77.7020 -77.7015 -77.6938 -77.6933
   -77.6883 -77.6808 -77.6763 -77.6640 -77.6631 -77.6624 -77.6621 -77.6619
   -77.6612 -77.6601 -77.6600 -77.6586 -77.6551 -77.6514 -77.6506 -77.6492
   -77.6485 -77.6479 -77.6478 -77.6457 -77.6432 -77.6390 -77.6386 -77.6360
   -77.5989 -77.5982 -77.5967 -77.5960 -77.5862 -77.5847 -77.5835 -77.5826
   -77.5812 -77.5803 -77.5800 -77.5795 -77.5789 -77.5786 -77.5664 -77.5661
   -77.5657 -77.5655 -77.5627 -77.5621 -77.5620 -77.5616 -77.5451 -77.5444
   -77.5385 -77.5375 -77.5373 -77.5369 -77.5347 -77.5310 -77.5296 -77.5287
   -77.5206 -77.5202 -77.5186 -77.5182 -77.5179 -77.5169 -77.5164 -77.5159
   -77.5129 -77.5115 -77.5096 -77.5084 -77.4985 -77.4948 -77.4946 -77.4890
   -16.3032 -14.9388 -14.0957 -11.7134 -11.6244  -8.6957  -8.4057  -6.5429
    -6.5410  -6.5201  -6.2528  -6.2499  -5.9163  -5.9066  -5.4520  -5.4493
    -5.3572  -5.3556  -5.3223  -5.3219  -5.3170  -5.3166  -5.3131  -5.3122
    -5.2991  -5.2983  -5.2568  -5.2554  -5.2528  -5.2508  -5.2428  -5.2423
    -5.2419  -5.2405  -5.2096  -5.2095  -5.2090  -5.2082  -5.2052  -5.2048
    -5.1936  -5.1910  -5.1864  -5.1857  -5.1746  -5.1740  -5.0711  -5.0706
    -5.0639  -5.0637  -5.0573  -5.0558  -5.0549  -5.0524  -5.0287  -5.0277
    -5.0248  -5.0243  -5.0201  -5.0186  -5.0125  -5.0113  -5.0022  -4.9996
    -4.9967  -4.9952  -4.9906  -4.9900  -4.9708  -4.9697  -4.9473  -4.9440
    -4.9436  -4.9431  -4.9370  -4.9366  -4.9172  -4.9164  -4.9097  -4.9079
    -4.8961  -4.8934  -4.8847  -4.8834  -4.8761  -4.8752  -4.8666  -4.8663
    -4.8622  -4.8608  -4.8463  -4.8449  -4.8440  -4.8437  -4.8401  -4.8390
    -4.8370  -4.8368  -4.8320  -4.8301  -4.8071  -4.8061  -4.8002  -4.7977
    -4.7896  -4.7892  -4.7788  -4.7783  -4.7591  -4.7585  -4.7466  -4.7459
    -4.7296  -4.7289  -4.7148  -4.7145  -4.7037  -4.7032  -4.6985  -4.6979
    -4.6978  -4.6967  -4.6837  -4.6833  -4.6712  -4.6692  -4.6625  -4.6616
    -4.6520  -4.6516  -4.6504  -4.6493  -4.6319  -4.6303  -4.6261  -4.6260
    -4.6115  -4.6108  -4.6083  -4.6064  -4.5975  -4.5952  -4.5919  -4.5914
    -4.5749  -4.5741  -4.5684  -4.5680  -4.5631  -4.5617  -4.5590  -4.5582
    -4.5387  -4.5373  -4.5335  -4.5330  -4.5180  -4.5174  -4.5106  -4.5094
    -4.5003  -4.4993  -4.4988  -4.4979  -4.4964  -4.4960  -4.4781  -4.4774
    -4.4751  -4.4738  -4.4610  -4.4598  -4.4465  -4.4460  -4.4412  -4.4394
    -4.4386  -4.4376  -4.4371  -4.4367  -4.4200  -4.4181  -4.4174  -4.4167
    -4.4010  -4.3999  -4.3950  -4.3915  -4.3905  -4.3895  -4.3776  -4.3765
    -4.3743  -4.3737  -4.3696  -4.3695  -4.3640  -4.3622  -4.3467  -4.3465
    -4.3421  -4.3404  -4.3315  -4.3307  -4.3247  -4.3236  -4.3204  -4.3202
    -4.3136  -4.3133  -4.3012  -4.3008  -4.2938  -4.2934  -4.2793  -4.2782
    -4.2769  -4.2762  -4.2613  -4.2606  -4.2556  -4.2538  -4.2520  -4.2500
    -4.2418  -4.2401  -4.2237  -4.2215  -4.2193  -4.2173  -4.2156  -4.2149
    -4.2140  -4.2137  -4.2103  -4.2099  -4.1988  -4.1984  -4.1917  -4.1899
    -4.1895  -4.1869  -4.1800  -4.1794  -4.1783  -4.1768  -4.1624  -4.1620
    -4.1530  -4.1524  -4.1511  -4.1502  -4.1375  -4.1366  -4.1334  -4.1324
    -4.1234  -4.1229  -4.1219  -4.1213  -4.1153  -4.1137  -4.1117  -4.1111
    -4.1045  -4.1032  -4.1010  -4.1006  -4.0914  -4.0902  -4.0804  -4.0793
    -4.0771  -4.0758  -4.0745  -4.0740  -4.0655  -4.0651  -4.0622  -4.0607
    -4.0605  -4.0599  -4.0521  -4.0514  -4.0500  -4.0486  -4.0438  -4.0434
    -4.0417  -4.0405  -4.0341  -4.0327  -4.0317  -4.0315  -4.0294  -4.0281
    -4.0273  -4.0271  -4.0158  -4.0155  -4.0105  -4.0099  -4.0059  -4.0042
    -4.0040  -4.0034  -3.9974  -3.9967  -3.9866  -3.9858  -3.9855  -3.9851
    -3.9807  -3.9800  -3.9658  -3.9652  -3.9599  -3.9585  -3.9541  -3.9523
    -3.9429  -3.9421  -3.9265  -3.9244  -3.9170  -3.9168  -3.9163  -3.9138
    -3.9050  -3.9034  -3.8961  -3.8945  -3.8943  -3.8918  -3.8597  -3.8379
    -3.8362  -3.7895  -3.7841  -3.7798  -3.3637  -3.2662  -3.2661  -3.0762
    -3.0761  -2.8588  -2.6249  -2.6010  -2.5710  -2.3988  -2.3971  -2.3753
    -2.3749  -2.2441  -2.2430  -2.0392  -2.0383  -2.0040  -2.0028  -1.6834
    -1.5919  -1.5908  -1.4931  -1.1907  -1.1886  -0.9982  -0.9971  -0.9061
    -0.4820  -0.3269  -0.3238  -0.3182  -0.3150  -0.2413  -0.0936  -0.0919
     0.0398   0.0432   0.4771   0.4871   0.4945   0.7831   0.7855   0.8967
     0.8979   1.3522   1.3528   1.6099   1.6122   1.6177   1.6214   1.8452
     2.1983   2.2032   2.2619   2.2690   2.3715   2.3726   2.5151   2.5154
     2.5600   2.5605   2.7198   2.7200   2.9276   2.9418   2.9767   2.9809
     3.2799   3.2817   3.3383   3.3446   3.4267   3.4357   3.5045   3.5074
     4.0643   4.0681   4.2661   4.2686   4.3672   4.3731   4.4468   4.4486
     4.4792   4.4884   4.8022   4.8102   4.8127   4.8175   4.9860   4.9886
     5.1034   5.1153   5.3876   5.4778   5.4902   5.5759   5.5905   5.6353
     5.7065   5.7116   5.7768   5.7791   5.8860   5.9010   6.1098   6.1263
     6.1488   6.1519   6.2292   6.4077   6.4589   6.4644   6.4949   6.5230
     6.6179   6.6995   6.8329   6.8409   6.8431   6.9100   7.0613   7.0713
     7.1062   7.1145   7.1616   7.2117   7.2181   7.2742   7.3595   7.3668
     7.4144   7.4728   7.4746   7.5986   7.6229   7.6245   7.7122   7.8047
     7.9495   7.9705   8.0587   8.1004   8.1362   8.1470   8.2162   8.2993
     8.3643   8.4417   8.4490   8.4540   8.6085   8.6566   8.7059   8.7818
     8.7975   8.8415   8.8582   8.8753   8.8824   8.9316   9.0005   9.0207
     9.0416   9.0591   9.1277   9.1301   9.1717   9.2150   9.2626   9.3153
     9.3546   9.3690   9.4059   9.4739   9.5079   9.5216   9.5934   9.6291
     9.6495   9.7097   9.7558   9.8269   9.8678   9.8799   9.8939   9.9106
     9.9436   9.9511  10.0779  10.0877  10.1318  10.1639  10.2085  10.2430
    10.2650  10.3333

     occupation numbers 
     1.0000   1.0000   1.0000   1.0000   1.0000   1.0000   1.0000   1.0000
     1.0000   1.0000   1.0000   1.0000   1.0000   1.0000   1.0000   1.0000
     1.0000   1.0000   1.0000   1.0000   1.0000   1.0000   1.0000   1.0000
     1.0000   1.0000   1.0000   1.0000   1.0000   1.0000   1.0000   1.0000
     1.0000   1.0000   1.0000   1.0000   1.0000   1.0000   1.0000   1.0000
     1.0000   1.0000   1.0000   1.0000   1.0000   1.0000   1.0000   1.0000
     1.0000   1.0000   1.0000   1.0000   1.0000   1.0000   1.0000   1.0000
     1.0000   1.0000   1.0000   1.0000   1.0000   1.0000   1.0000   1.0000
     1.0000   1.0000   1.0000   1.0000   1.0000   1.0000   1.0000   1.0000
     1.0000   1.0000   1.0000   1.0000   1.0000   1.0000   1.0000   1.0000
     1.0000   1.0000   1.0000   1.0000   1.0000   1.0000   1.0000   1.0000
     1.0000   1.0000   1.0000   1.0000   1.0000   1.0000   1.0000   1.0000
     1.0000   1.0000   1.0000   1.0000   1.0000   1.0000   1.0000   1.0000
     1.0000   1.0000   1.0000   1.0000   1.0000   1.0000   1.0000   1.0000
     1.0000   1.0000   1.0000   1.0000   1.0000   1.0000   1.0000   1.0000
     1.0000   1.0000   1.0000   1.0000   1.0000   1.0000   1.0000   1.0000
     1.0000   1.0000   1.0000   1.0000   1.0000   1.0000   1.0000   1.0000
     1.0000   1.0000   1.0000   1.0000   1.0000   1.0000   1.0000   1.0000
     1.0000   1.0000   1.0000   1.0000   1.0000   1.0000   1.0000   1.0000
     1.0000   1.0000   1.0000   1.0000   1.0000   1.0000   1.0000   1.0000
     1.0000   1.0000   1.0000   1.0000   1.0000   1.0000   1.0000   1.0000
     1.0000   1.0000   1.0000   1.0000   1.0000   1.0000   1.0000   1.0000
     1.0000   1.0000   1.0000   1.0000   1.0000   1.0000   1.0000   1.0000
     1.0000   1.0000   1.0000   1.0000   1.0000   1.0000   1.0000   1.0000
     1.0000   1.0000   1.0000   1.0000   1.0000   1.0000   1.0000   1.0000
     1.0000   1.0000   1.0000   1.0000   1.0000   1.0000   1.0000   1.0000
     1.0000   1.0000   1.0000   1.0000   1.0000   1.0000   1.0000   1.0000
     1.0000   1.0000   1.0000   1.0000   1.0000   1.0000   1.0000   1.0000
     1.0000   1.0000   1.0000   1.0000   1.0000   1.0000   1.0000   1.0000
     1.0000   1.0000   1.0000   1.0000   1.0000   1.0000   1.0000   1.0000
     1.0000   1.0000   1.0000   1.0000   1.0000   1.0000   1.0000   1.0000
     1.0000   1.0000   1.0000   1.0000   1.0000   1.0000   1.0000   1.0000
     1.0000   1.0000   1.0000   1.0000   1.0000   1.0000   1.0000   1.0000
     1.0000   1.0000   1.0000   1.0000   1.0000   1.0000   1.0000   1.0000
     1.0000   1.0000   1.0000   1.0000   1.0000   1.0000   1.0000   1.0000
     1.0000   1.0000   1.0000   1.0000   1.0000   1.0000   1.0000   1.0000
     1.0000   1.0000   1.0000   1.0000   1.0000   1.0000   1.0000   1.0000
     1.0000   1.0000   1.0000   1.0000   1.0000   1.0000   1.0000   1.0000
     1.0000   1.0000   1.0000   1.0000   1.0000   1.0000   1.0000   1.0000
     1.0000   1.0000   1.0000   1.0000   1.0000   1.0000   1.0000   1.0000
     1.0000   1.0000   1.0000   1.0000   1.0000   1.0000   1.0000   1.0000
     1.0000   1.0000   1.0000   1.0000   1.0000   1.0000   1.0000   1.0000
     1.0000   1.0000   1.0000   1.0000   1.0000   1.0000   1.0000   1.0000
     1.0000   1.0000   1.0000   1.0000   1.0000   1.0000   1.0000   1.0000
     1.0000   1.0000   1.0000   1.0000   1.0000   1.0000   1.0000   1.0000
     1.0000   1.0000   1.0000   1.0000   1.0000   1.0000   1.0000   1.0000
     1.0000   1.0000   1.0000   1.0000   1.0000   1.0000   1.0000   1.0000
[...]
     atom    6 type  1   force =    -0.00003182   -0.00007275   -0.00001046
     atom    7 type  1   force =    -0.00004048    0.00005316   -0.00006650
     atom    8 type  1   force =     0.00006517   -0.00004700   -0.00000976
     atom    9 type  1   force =     0.00000000   -0.00000000   -0.00000000
     atom   10 type  1   force =    -0.00000000    0.00000000   -0.00000000
     atom   11 type  1   force =     0.00000000    0.00000000   -0.00000000
     atom   12 type  1   force =     0.00000000    0.00000000    0.00000000
     atom   13 type  1   force =    -0.00016149    0.00003987   -0.00000657
     atom   14 type  1   force =     0.00001096   -0.00007618    0.00000719
     atom   15 type  1   force =     0.00005627   -0.00005063   -0.00007133
     atom   16 type  1   force =    -0.00003557    0.00005595   -0.00000757
     atom   17 type  1   force =     0.00000000    0.00000000   -0.00000000
     atom   18 type  1   force =     0.00000000    0.00000000   -0.00000000
     atom   19 type  1   force =    -0.00000000    0.00000000    0.00000000
     atom   20 type  1   force =     0.00000000   -0.00000000   -0.00000000
     atom   21 type  1   force =     0.00013974   -0.00001197    0.00001969
     atom   22 type  1   force =     0.00004507    0.00005607    0.00003468
     atom   23 type  1   force =     0.00002744   -0.00003245    0.00002506
     atom   24 type  1   force =    -0.00007490    0.00002686   -0.00002148
     atom   25 type  1   force =    -0.00000000    0.00000000   -0.00000000
     atom   26 type  1   force =     0.00000000   -0.00000000   -0.00000000
     atom   27 type  1   force =    -0.00000000   -0.00000000    0.00000000
     atom   28 type  1   force =    -0.00000000    0.00000000   -0.00000000
     atom   29 type  1   force =     0.00018016   -0.00007362    0.00002191
     atom   30 type  1   force =     0.00000258    0.00011710    0.00003301
     atom   31 type  1   force =    -0.00006848    0.00002065    0.00001830
     atom   32 type  1   force =     0.00002315   -0.00003661   -0.00001647
     atom   33 type  1   force =    -0.00000000    0.00000000   -0.00000000
     atom   34 type  1   force =    -0.00000000   -0.00000000   -0.00000000
     atom   35 type  1   force =     0.00000000    0.00000000    0.00000000
     atom   36 type  1   force =     0.00000000   -0.00000000   -0.00000000
     atom   37 type  1   force =     0.00008049   -0.00006724    0.00005440
     atom   38 type  1   force =    -0.00011487    0.00006060    0.00004648
     atom   39 type  1   force =    -0.00007726    0.00003679   -0.00001785
     atom   40 type  1   force =    -0.00000342   -0.00005484   -0.00008394
     atom   41 type  1   force =    -0.00000000    0.00000000   -0.00000000
     atom   42 type  1   force =    -0.00000000   -0.00000000   -0.00000000
     atom   43 type  1   force =     0.00000000   -0.00000000   -0.00000000
     atom   44 type  1   force =    -0.00000000    0.00000000    0.00000000
     atom   45 type  1   force =    -0.00003931    0.00000020    0.00005143
     atom   46 type  1   force =     0.00000423   -0.00000921    0.00005125
     atom   47 type  1   force =    -0.00010461    0.00004390   -0.00007282
     atom   48 type  1   force =     0.00002461   -0.00006516   -0.00002933
     atom   49 type  1   force =     0.00000000   -0.00000000   -0.00000000
     atom   50 type  1   force =     0.00000000    0.00000000   -0.00000000
     atom   51 type  1   force =    -0.00000000   -0.00000000   -0.00000000
     atom   52 type  1   force =    -0.00000000   -0.00000000    0.00000000
     atom   53 type  1   force =    -0.00009967    0.00010359    0.00000172
     atom   54 type  1   force =     0.00010429   -0.00010253   -0.00000825
     atom   55 type  1   force =     0.00006767   -0.00000560   -0.00000806
     atom   56 type  1   force =    -0.00000627    0.00002122    0.00004062
     atom   57 type  1   force =     0.00000000   -0.00000000   -0.00000000
     atom   58 type  1   force =     0.00000000    0.00000000   -0.00000000
     atom   59 type  1   force =    -0.00000000    0.00000000    0.00000000
     atom   60 type  1   force =     0.00000000   -0.00000000   -0.00000000
     atom   61 type  1   force =     0.00002475   -0.00002517   -0.00001645
     atom   62 type  1   force =    -0.00001867    0.00002495    0.00000811
     atom   63 type  1   force =     0.00009741   -0.00006015    0.00002681
     atom   64 type  1   force =    -0.00003739    0.00007479    0.00001122
     atom   65 type  2   force =     0.00000730    0.00000623    0.00003923
     atom   66 type  2   force =     0.00000478   -0.00000385   -0.00000864
     atom   67 type  2   force =     0.00000078    0.00000922   -0.00001306
     atom   68 type  2   force =     0.00000253   -0.00001175   -0.00001922
     atom   69 type  2   force =    -0.00000100    0.00000034   -0.00000710
     atom   70 type  2   force =     0.00000328   -0.00000280   -0.00001623
     atom   71 type  2   force =     0.00000263   -0.00000287    0.00000210
     atom   72 type  3   force =     0.00001015    0.00001315    0.00003584
     atom   73 type  3   force =     0.00000300    0.00000288    0.00001560
     atom   74 type  4   force =     0.00000065   -0.00000043    0.00000187
     atom   75 type  4   force =    -0.00000009    0.00000093    0.00000152
     atom   76 type  4   force =    -0.00000047    0.00000398    0.00000067
     atom   77 type  4   force =     0.00000053   -0.00000205   -0.00000129
     atom   78 type  4   force =    -0.00000060    0.00000207    0.00000100
     atom   79 type  4   force =     0.00000077   -0.00000082   -0.00000073

     Total force =     0.001526     Total SCF correction =     0.000585
     SCF correction compared to forces is large: reduce conv_thr to get better values


     Computing stress (Cartesian axis) and pressure


     negative rho (up, down):  3.849E-02 0.000E+00
          total   stress  (Ry/bohr**3)                   (kbar)     P=     -281.54
  -0.00198965  -0.00003137   0.00002252         -292.69       -4.62        3.31
  -0.00003137  -0.00191056   0.00000560           -4.62     -281.05        0.82
   0.00002252   0.00000560  -0.00184141            3.31        0.82     -270.88

     kinetic stress (kbar)  15583.78     21.44    -11.54
                               21.44  15512.39     -3.70
                              -11.54     -3.70  15539.30

     local   stress (kbar)**********   3737.19  -1519.67
                             3737.19**********   -441.61
                            -1519.67   -441.611145403.42

     nonloc. stress (kbar)  -1744.06     -8.81      2.42
                               -8.81  -1715.43      0.29
                                2.42      0.29  -1752.49

     hartree stress (kbar) 600840.62  -1588.88    616.78
                            -1588.88 606769.78    179.48
                              616.78    179.48-531509.04

     exc-cor stress (kbar)  -7583.94     -1.66      0.70
                               -1.66  -7578.30      0.20
                                0.70      0.20  -7583.64

     corecor stress (kbar)    -72.16      0.40     -0.10
                                0.40    -73.26     -0.02
                               -0.10     -0.02    -73.61

     ewald   stress (kbar) 526692.76  -2164.31    914.72
                            -2164.31 534738.36    266.20
                              914.72    266.20-620294.83

     hubbard stress (kbar)      0.00      0.00      0.00
                                0.00      0.00      0.00
                                0.00      0.00      0.00

     DFT-D   stress (kbar)      0.00      0.00      0.00
                                0.00      0.00      0.00
                                0.00      0.00      0.00

     XDM     stress (kbar)      0.00      0.00      0.00
                                0.00      0.00      0.00
                                0.00      0.00      0.00

     dft-nl  stress (kbar)      0.00      0.00      0.00
                                0.00      0.00      0.00
                                0.00      0.00      0.00

     TS-vdW  stress (kbar)      0.00      0.00      0.00
                                0.00      0.00      0.00
                                0.00      0.00      0.00

     MDB     stress (kbar)      0.00      0.00      0.00
                                0.00      0.00      0.00
                                0.00      0.00      0.00

     3D-RISM stress (kbar)      0.00      0.00      0.00
                                0.00      0.00      0.00
                                0.00      0.00      0.00

     Energy error            =      5.9E-06 Ry
     Gradient error          =      4.4E-04 Ry/Bohr

     bfgs converged in  68 scf cycles and  65 bfgs steps
     (criteria: energy <  1.0E-05 Ry, force <  5.0E-04 Ry/Bohr)

     End of BFGS Geometry Optimization

     Final energy             =  -29711.3640284934 Ry

     File ./tmp/Zn101_2x4x4_primitive_atoms32_14Avacumn_ABN_topsite_upright.bfgs deleted, as requested
Begin final coordinates

ATOMIC_POSITIONS (angstrom)
Zn              -1.0735556040        1.0841422490        1.1977635440    0   0   0
Zn              -2.3094850350        6.1646922450        1.1977635440    0   0   0
Zn              -5.3677775260        0.0395003770        3.2510723350    0   0   0
Zn              -6.6037069570        5.1200503720        3.2510723350    0   0   0
Zn              -9.4763117254       -0.9802047564        5.4732592490
Zn             -10.7114831615        4.1022189199        5.4719521244
Zn             -13.5125956811       -1.9547962616        7.6238397390
Zn             -14.7456053608        3.1264781298        7.6316180464
Zn              -1.6915203190        3.6244172470        1.1977635440    0   0   0
Zn              -2.9274497510        8.7049672430        1.1977635440    0   0   0
Zn              -5.9857422410        2.5797753750        3.2510723350    0   0   0
Zn              -7.2216716720        7.6603253700        3.2510723350    0   0   0
Zn             -10.0992702578        1.5599403315        5.4708015199
Zn             -11.3279412790        6.6420338086        5.4718364033
Zn             -14.1340645889        0.5844401021        7.6312257399
Zn             -15.3648865539        5.6663196826        7.6264851903
Zn               4.4565957630        1.0841422490        1.1977635440    0   0   0
Zn               3.2206663320        6.1646922450        1.1977635440    0   0   0
Zn               0.1623738410        0.0395003770        3.2510723350    0   0   0
Zn              -1.0735555900        5.1200503720        3.2510723350    0   0   0
Zn              -3.9419266780       -0.9796764388        5.4307493164
Zn              -5.1699259641        4.1070869056        5.4309415701
Zn              -7.9202324349       -1.9442225316        7.6232077901
Zn              -9.1660207635        3.1358024839        7.6118958866
Zn               3.8386310480        3.6244172470        1.1977635440    0   0   0
Zn               2.6027016170        8.7049672430        1.1977635440    0   0   0
Zn              -0.4555908740        2.5797753750        3.2510723350    0   0   0
Zn              -1.6915203050        7.6603253700        3.2510723350    0   0   0
Zn              -4.5511963119        1.5624820040        5.4279775458
Zn              -5.7954168834        6.6451952710        5.4312738102
Zn              -8.5427423852        0.5950460511        7.6125500937
Zn              -9.7768637923        5.6773335417        7.6235260831
Zn               1.6915203330        0.4114908770        0.8555452480    0   0   0
Zn               0.4555909020        5.4920408730        0.8555452480    0   0   0
Zn              -2.6027015890       -0.6331509950        2.9088540390    0   0   0
Zn              -3.8386310200        4.4473990010        2.9088540390    0   0   0
Zn              -6.7374529846       -1.6495440298        4.9567844010
Zn              -7.9792889505        3.4330575502        4.9493671555
Zn             -10.9059203855       -2.6713957609        7.2402187106
Zn             -12.1426713764        2.4081004963        7.2417919030
Zn               1.0735556170        2.9517658750        0.8555452480    0   0   0
Zn              -0.1623738140        8.0323158710        0.8555452480    0   0   0
Zn              -3.2206663040        1.9071240030        2.9088540390    0   0   0
Zn              -4.4565957350        6.9876739990        2.9088540390    0   0   0
Zn              -7.3601167171        0.8879968834        4.9489572803
Zn              -8.5915360673        5.9724624672        4.9560786021
Zn             -11.5271027392       -0.1314633416        7.2412084132
Zn             -12.7548487546        4.9499808449        7.2412307314
Zn               7.2216717000        0.4114908770        0.8555452480    0   0   0
Zn               5.9857422690        5.4920408730        0.8555452480    0   0   0
Zn               2.9274497780       -0.6331509950        2.9088540390    0   0   0
Zn               1.6915203470        4.4473990010        2.9088540390    0   0   0
Zn              -1.2122840295       -1.6499599806        4.9493882338
Zn              -2.4431735869        3.4326354725        4.9495644267
Zn              -5.3102794760       -2.6590849854        7.2735351463
Zn              -6.5549996567        2.4205308946        7.2057094537
Zn               6.6037069850        2.9517658750        0.8555452480    0   0   0
Zn               5.3677775540        8.0323158710        0.8555452480    0   0   0
Zn               2.3094850630        1.9071240030        2.9088540390    0   0   0
Zn               1.0735556320        6.9876739990        2.9088540390    0   0   0
Zn              -1.8322166557        0.8896792100        4.9524290478
Zn              -3.0656603994        5.9720629469        4.9502434663
Zn              -5.9242839697       -0.1175892581        7.2653990719
Zn              -7.1650342773        4.9631859058        7.2578482416
C               -6.3029130668        2.6334756787       16.5320093294
C               -6.3919687759        2.5980447714       15.1105097418
C               -6.7992662944        3.7329481699       14.3776056475
C               -6.0783383723        1.4176973364       14.4046838298
C               -6.1700508007        1.3744431003       13.0224291487
C               -6.8909853467        3.6905016708       12.9948492460
C               -6.5800224252        2.5084884663       12.2861728961
N               -6.2358165314        2.6589778294       17.7042744441
N               -6.6313724800        2.4756768702       10.9121998465
H               -6.6371476551        1.5698792901       10.4446552710
H               -7.1569501557        3.1999519846       10.4236939270
H               -7.0460575033        4.6557215043       14.9106778313
H               -5.7617899659        0.5293491196       14.9583631473
H               -5.9252148061        0.4486657110       12.4907856863
H               -7.2098779063        4.5812522710       12.4430568598
End final coordinates



     Writing all to output data dir ./tmp/Zn101_2x4x4_primitive_atoms32_14Avacumn_ABN_topsite_upright.save/ :
     XML data file, charge density, pseudopotentials, collected wavefunctions

     init_run     :     65.55s CPU     66.71s WALL (       1 calls)
     electrons    :  39626.26s CPU  40242.64s WALL (      16 calls)
     update_pot   :      1.89s CPU      1.94s WALL (      15 calls)
     forces       :    842.36s CPU    847.32s WALL (      16 calls)
     stress       :   2303.49s CPU   2311.56s WALL (      16 calls)

     Called by init_run:
     wfcinit      :     64.69s CPU     65.81s WALL (       1 calls)
     wfcinit:atom :      0.04s CPU      0.04s WALL (       4 calls)
     wfcinit:wfcr :     64.23s CPU     65.33s WALL (       4 calls)
     potinit      :      0.11s CPU      0.12s WALL (       1 calls)
     hinit0       :      0.32s CPU      0.33s WALL (       1 calls)

     Called by electrons:
     c_bands      :  36871.80s CPU  37423.28s WALL (     170 calls)
     sum_band     :   2681.00s CPU   2744.49s WALL (     170 calls)
     v_of_rho     :      7.19s CPU      7.56s WALL (     171 calls)
     v_h          :      0.38s CPU      0.43s WALL (     171 calls)
     v_xc         :      8.08s CPU      8.49s WALL (     203 calls)
     newd         :     60.88s CPU     61.27s WALL (     171 calls)
     PAW_pot      :     12.21s CPU     12.27s WALL (     186 calls)
     mix_rho      :      0.81s CPU      0.95s WALL (     170 calls)

     Called by c_bands:
     init_us_2    :     27.67s CPU     27.79s WALL (    1551 calls)
     cegterg      :  36815.40s CPU  37363.15s WALL (     682 calls)

     Called by sum_band:
     sum_band:wei :      0.46s CPU      0.46s WALL (     170 calls)
     sum_band:loo :   2626.90s CPU   2689.88s WALL (     170 calls)
     sum_band:buf :      5.49s CPU      5.53s WALL (     680 calls)
     sum_band:ini :     12.84s CPU     12.87s WALL (     680 calls)
     sum_band:cal :   2314.16s CPU   2326.90s WALL (     740 calls)
     sum_band:bec :     28.63s CPU     28.71s WALL (     740 calls)
     addusdens    :     51.21s CPU     51.49s WALL (     170 calls)
                                        0.00s GPU  (     170 calls)
     addusd:skk   :      0.71s CPU      0.72s WALL (     680 calls)
                                        0.00s GPU  (     680 calls)

     Called by *egterg:
     cdiaghg      :   3118.15s CPU   3238.40s WALL (    2402 calls)
     cegterg:over :   5363.68s CPU   5385.92s WALL (    1836 calls)
     cegterg:upda :   2345.58s CPU   2361.27s WALL (    1836 calls)
     cegterg:last :   8714.24s CPU   8777.45s WALL (    1430 calls)
     cdiaghg:chol :    253.17s CPU    253.79s WALL (    2402 calls)
     cdiaghg:inve :     35.70s CPU     35.79s WALL (    2402 calls)
     cdiaghg:para :   1012.20s CPU   1027.26s WALL (    4804 calls)
     h_psi        :  11363.76s CPU  11663.57s WALL (    2522 calls)
     s_psi        :   4483.22s CPU   4494.05s WALL (    2522 calls)
     g_psi        :      3.32s CPU      3.34s WALL (    1836 calls)

     Called by h_psi:
     h_psi:calbec :   4829.62s CPU   4856.45s WALL (    2522 calls)
     vloc_psi     :   1996.49s CPU   2253.45s WALL (    2522 calls)
     add_vuspsi   :   4528.12s CPU   4539.08s WALL (    2522 calls)

     General routines
     calbec       :   8168.10s CPU   8213.12s WALL (    3582 calls)
     fft          :      4.66s CPU      5.41s WALL (    2311 calls)
     ffts         :      0.29s CPU      0.34s WALL (     170 calls)
     fftw         :   2290.67s CPU   2579.95s WALL ( 2990692 calls)
     davcio       :      0.00s CPU      0.01s WALL (      14 calls)

     Parallel routines

     PAW routines
     PAW_pot      :     12.21s CPU     12.27s WALL (     186 calls)

     PWSCF        :     11h57m CPU     12h 7m WALL


   This run was terminated on:  16: 4:21  25Mar2025            

=------------------------------------------------------------------------------=
   JOB DONE.
=------------------------------------------------------------------------------=
Note: The following floating-point exceptions are signalling: IEEE_DENORMAL
Note: The following floating-point exceptions are signalling: IEEE_DENORMAL
Note: The following floating-point exceptions are signalling: IEEE_DENORMAL
Note: The following floating-point exceptions are signalling: IEEE_DENORMAL
Note: The following floating-point exceptions are signalling: IEEE_DENORMAL
Note: The following floating-point exceptions are signalling: IEEE_DENORMAL
Note: The following floating-point exceptions are signalling: IEEE_DENORMAL
Note: The following floating-point exceptions are signalling: IEEE_DENORMAL
Note: The following floating-point exceptions are signalling: IEEE_DENORMAL
Note: The following floating-point exceptions are signalling: IEEE_DENORMAL
Note: The following floating-point exceptions are signalling: IEEE_DENORMAL
