--------------------------------------------------------------------------
By default, for Open MPI 4.0 and later, infiniband ports on a device
are not used by default.  The intent is to use UCX for these devices.
You can override this policy by setting the btl_openib_allow_ib MCA parameter
to true.

  Local host:              psid03
  Local adapter:           mlx5_0
  Local port:              1

--------------------------------------------------------------------------
--------------------------------------------------------------------------
WARNING: There was an error initializing an OpenFabrics device.

  Local host:   psid03
  Local device: mlx5_0
--------------------------------------------------------------------------

     Program PWSCF v.7.3.1 starts on 23Mar2025 at  0: 1:23 

     This program is part of the open-source Quantum ESPRESSO suite
     for quantum simulation of materials; please cite
         "P. Giannozzi et al., J. Phys.:Condens. Matter 21 395502 (2009);
         "P. Giannozzi et al., J. Phys.:Condens. Matter 29 465901 (2017);
         "P. Giannozzi et al., J. Chem. Phys. 152 154105 (2020);
          URL http://www.quantum-espresso.org", 
     in publications or presentations arising from this work. More details at
     http://www.quantum-espresso.org/quote

     Parallel version (MPI), running on    34 processors

     MPI processes distributed on     1 nodes
     97547 MiB available memory on the printing compute node when the environment starts

     Waiting for input...
     Reading input from standard input
Warning: card &CELL ignored
Warning: card   CELL_DOFREE = 'ALL' ignored
Warning: card / ignored

     Current dimensions of program PWSCF are:
     Max number of different atomic species (ntypx) = 10
     Max number of k-points (npk) =  40000
     Max angular momentum in pseudopotentials (lmaxx) =  4
     file C.pbe-n-kjpaw_psl.1.0.0.UPF: wavefunction(s)  2S 2P renormalized

     R & G space division:  proc/nbgrp/npool/nimage =      34
     Subspace diagonalization in iterative solution of the eigenvalue problem:
     one sub-group per band group will be used
     custom distributed-memory algorithm (size of sub-group:  5*  5 procs)


     Parallelization info
     --------------------
     sticks:   dense  smooth     PW     G-vecs:    dense   smooth      PW
     Min         112     112     33                10995    10995    1772
     Max         113     113     34                11005    11005    1779
     Sum        3835    3835   1129               374027   374027   60327

     Using Slab Decomposition



     bravais-lattice index     =            0
     lattice parameter (alat)  =      20.9009  a.u.
     unit-cell volume          =   16846.7507 (a.u.)^3
     number of atoms/cell      =           79
     number of atomic types    =            4
     number of electrons       =      1324.00
     number of Kohn-Sham states=          794
     kinetic-energy cutoff     =      30.0000  Ry
     charge density cutoff     =     120.0000  Ry
     scf convergence threshold =      7.3E-07
     mixing beta               =       0.7000
     number of iterations used =            8  plain     mixing
     energy convergence thresh.=      1.0E-05
     force convergence thresh. =      5.0E-04
     Exchange-correlation= PBE
                           (   1   4   3   4   0   0   0)
     nstep                     =          100


     celldm(1)=  20.900943  celldm(2)=   0.000000  celldm(3)=   0.000000
     celldm(4)=   0.000000  celldm(5)=   0.000000  celldm(6)=   0.000000

     crystal axes: (cart. coord. in units of alat)
               a(1) = (   1.000000   0.000000   0.000000 )  
               a(2) = (  -0.223489   0.918700   0.000000 )  
               a(3) = (  -4.200249  -1.021781   2.008375 )  

     reciprocal axes: (cart. coord. in units 2 pi/alat)
               b(1) = (  1.000000  0.243267  2.215131 )  
               b(2) = ( -0.000000  1.088495  0.553783 )  
               b(3) = (  0.000000 -0.000000  0.497915 )  


     PseudoPot. # 1 for Zn read from file:
     /home/ys/qepseudo/SSSP_1.3.0_PBE_efficiency/Zn_pbe_v1.uspp.F.UPF
     MD5 check sum: df62231357ef9e81f77b2b3087fa5675
     Pseudo is Ultrasoft, Zval = 20.0
     Generated by new atomic code, or converted to UPF format
     Using radial grid of  943 points,  6 beta functions with: 
                l(1) =   0
                l(2) =   0
                l(3) =   1
                l(4) =   1
                l(5) =   2
                l(6) =   2
     Q(r) pseudized with  8 coefficients,  rinner =    1.100   1.100   1.100
                                                       1.100   1.100

     PseudoPot. # 2 for C  read from file:
     /home/ys/qepseudo/SSSP_1.3.0_PBE_efficiency/C.pbe-n-kjpaw_psl.1.0.0.UPF
     MD5 check sum: 5d2aebdfa2cae82b50a7e79e9516da0f
     Pseudo is Projector augmented-wave + core cor, Zval =  4.0
     Generated using "atomic" code by A. Dal Corso  v.5.1
     Shape of augmentation charge: PSQ
     Using radial grid of 1073 points,  4 beta functions with: 
                l(1) =   0
                l(2) =   0
                l(3) =   1
                l(4) =   1
     Q(r) pseudized with 0 coefficients 


     PseudoPot. # 3 for N  read from file:
     /home/ys/qepseudo/SSSP_1.3.0_PBE_efficiency/N.pbe-n-radius_5.UPF
     MD5 check sum: 16739722b17309cd8fe442a2ace49922
     Pseudo is Ultrasoft + core correction, Zval =  5.0
     Generated using "atomic" code by A. Dal Corso  v.5.1
     Using radial grid of 1085 points,  4 beta functions with: 
                l(1) =   0
                l(2) =   0
                l(3) =   1
                l(4) =   1
     Q(r) pseudized with 0 coefficients 


     PseudoPot. # 4 for H  read from file:
     /home/ys/qepseudo/SSSP_1.3.0_PBE_efficiency/H.pbe-rrkjus_psl.1.0.0.UPF
     MD5 check sum: f52b6d4d1c606e5624b1dc7b2218f220
     Pseudo is Ultrasoft, Zval =  1.0
     Generated using "atomic" code by A. Dal Corso  v.5.1
     Using radial grid of  929 points,  2 beta functions with: 
                l(1) =   0
                l(2) =   0
     Q(r) pseudized with 0 coefficients 


     atomic species   valence    mass     pseudopotential
     Zn               20.00    65.38000     Zn( 1.00)
     C                 4.00    12.01070     C ( 1.00)
     N                 5.00    14.00670     N ( 1.00)
     H                 1.00     1.00800     H ( 1.00)

     No symmetry found


                                    s                        frac. trans.

      isym =  1     identity                                     

 cryst.   s( 1) = (     1          0          0      )
                  (     0          1          0      )
                  (     0          0          1      )

 cart.    s( 1) = (  1.0000000  0.0000000  0.0000000 )
                  (  0.0000000  1.0000000  0.0000000 )
                  (  0.0000000  0.0000000  1.0000000 )


   Cartesian axes

     site n.     atom                  positions (alat units)
         1        Zn     tau(   1) = (  -0.0970639   0.0980210   0.1082939  )
         2        Zn     tau(   2) = (  -0.2088085   0.5573710   0.1082939  )
         3        Zn     tau(   3) = (  -0.4853192   0.0035714   0.2939406  )
         4        Zn     tau(   4) = (  -0.5970639   0.4629214   0.2939406  )
         5        Zn     tau(   5) = (  -0.8778168  -0.0917986   0.5024637  )
         6        Zn     tau(   6) = (  -0.9895264   0.3675466   0.5024137  )
         7        Zn     tau(   7) = (  -1.2406027  -0.1798552   0.6910406  )
         8        Zn     tau(   8) = (  -1.3522669   0.2794611   0.6910199  )
         9        Zn     tau(   9) = (  -0.1529362   0.3276960   0.1082939  )
        10        Zn     tau(  10) = (  -0.2646808   0.7870460   0.1082939  )
        11        Zn     tau(  11) = (  -0.5411915   0.2332464   0.2939406  )
        12        Zn     tau(  12) = (  -0.6529362   0.6925964   0.2939406  )
        13        Zn     tau(  13) = (  -0.9336469   0.1378867   0.5024624  )
        14        Zn     tau(  14) = (  -1.0454415   0.5972109   0.5024147  )
        15        Zn     tau(  15) = (  -1.2963824   0.0498229   0.6909782  )
        16        Zn     tau(  16) = (  -1.4082339   0.5091311   0.6910822  )
        17        Zn     tau(  17) = (   0.4029361   0.0980210   0.1082939  )
        18        Zn     tau(  18) = (   0.2911915   0.5573710   0.1082939  )
        19        Zn     tau(  19) = (   0.0146808   0.0035714   0.2939406  )
        20        Zn     tau(  20) = (  -0.0970639   0.4629214   0.2939406  )
        21        Zn     tau(  21) = (  -0.3778584  -0.0918024   0.5025944  )
        22        Zn     tau(  22) = (  -0.4896087   0.3675192   0.5025659  )
        23        Zn     tau(  23) = (  -0.7409254  -0.1799822   0.6911262  )
        24        Zn     tau(  24) = (  -0.8527216   0.2793980   0.6911899  )
        25        Zn     tau(  25) = (   0.3470638   0.3276960   0.1082939  )
        26        Zn     tau(  26) = (   0.2353192   0.7870460   0.1082939  )
        27        Zn     tau(  27) = (  -0.0411915   0.2332464   0.2939406  )
        28        Zn     tau(  28) = (  -0.1529362   0.6925964   0.2939406  )
        29        Zn     tau(  29) = (  -0.4337391   0.1378295   0.5025928  )
        30        Zn     tau(  30) = (  -0.5454721   0.5972380   0.5025679  )
        31        Zn     tau(  31) = (  -0.7968526   0.0496773   0.6911857  )
        32        Zn     tau(  32) = (  -0.9085381   0.5090884   0.6911313  )
        33        Zn     tau(  33) = (   0.1529362   0.0372043   0.0773528  )
        34        Zn     tau(  34) = (   0.0411915   0.4965543   0.0773528  )
        35        Zn     tau(  35) = (  -0.2353192  -0.0572454   0.2629995  )
        36        Zn     tau(  36) = (  -0.3470638   0.4021046   0.2629995  )
        37        Zn     tau(  37) = (  -0.6280951  -0.1529585   0.4553783  )
        38        Zn     tau(  38) = (  -0.7398296   0.3064181   0.4553934  )
        39        Zn     tau(  39) = (  -1.0052352  -0.2442836   0.6603749  )
        40        Zn     tau(  40) = (  -1.1168712   0.2151081   0.6603799  )
        41        Zn     tau(  41) = (   0.0970639   0.2668793   0.0773528  )
        42        Zn     tau(  42) = (  -0.0146808   0.7262293   0.0773528  )
        43        Zn     tau(  43) = (  -0.2911915   0.1724296   0.2629995  )
        44        Zn     tau(  44) = (  -0.4029361   0.6317796   0.2629995  )
        45        Zn     tau(  45) = (  -0.6839755   0.0767104   0.4553893  )
        46        Zn     tau(  46) = (  -0.7956904   0.5360988   0.4553814  )
        47        Zn     tau(  47) = (  -1.0610488  -0.0145857   0.6603978  )
        48        Zn     tau(  48) = (  -1.1728037   0.4447627   0.6603571  )
        49        Zn     tau(  49) = (   0.6529362   0.0372043   0.0773528  )
        50        Zn     tau(  50) = (   0.5411915   0.4965543   0.0773528  )
        51        Zn     tau(  51) = (   0.2646808  -0.0572454   0.2629995  )
        52        Zn     tau(  52) = (   0.1529362   0.4021046   0.2629995  )
        53        Zn     tau(  53) = (  -0.1280445  -0.1528982   0.4553743  )
        54        Zn     tau(  54) = (  -0.2397657   0.3063891   0.4553297  )
        55        Zn     tau(  55) = (  -0.5055002  -0.2443167   0.6603316  )
        56        Zn     tau(  56) = (  -0.6173111   0.2149623   0.6603566  )
        57        Zn     tau(  57) = (   0.5970639   0.2668793   0.0773528  )
        58        Zn     tau(  58) = (   0.4853192   0.7262293   0.0773528  )
        59        Zn     tau(  59) = (   0.2088085   0.1724296   0.2629995  )
        60        Zn     tau(  60) = (   0.0970639   0.6317796   0.2629995  )
        61        Zn     tau(  61) = (  -0.1838756   0.0767547   0.4553744  )
        62        Zn     tau(  62) = (  -0.2956772   0.5360837   0.4553280  )
        63        Zn     tau(  63) = (  -0.5614277  -0.0146977   0.6603020  )
        64        Zn     tau(  64) = (  -0.6731294   0.4446946   0.6603871  )
        65        C      tau(  65) = (  -0.2500669   0.1415041   1.3562325  )
        66        C      tau(  66) = (  -0.3352874   0.1328148   1.2593234  )
        67        C      tau(  67) = (  -0.3980038   0.2358217   1.2183008  )
        68        C      tau(  68) = (  -0.3583897   0.0210546   1.2027420  )
        69        C      tau(  69) = (  -0.4409601   0.0124489   1.1087831  )
        70        C      tau(  70) = (  -0.4806505   0.2275617   1.1243669  )
        71        C      tau(  71) = (  -0.5040931   0.1155786   1.0673466  )
        72        N      tau(  72) = (  -0.1808246   0.1485726   1.4349867  )
        73        N      tau(  73) = (  -0.5855060   0.1072781   0.9747897  )
        74        H      tau(  74) = (  -0.6021591   0.0273699   0.9340028  )
        75        H      tau(  75) = (  -0.6304898   0.1809228   0.9451303  )
        76        H      tau(  76) = (  -0.3811329   0.3231018   1.2612040  )
        77        H      tau(  77) = (  -0.3105321  -0.0596213   1.2334593  )
        78        H      tau(  78) = (  -0.4576334  -0.0751021   1.0660411  )
        79        H      tau(  79) = (  -0.5284005   0.3085424   1.0938470  )

   Crystallographic axes

     site n.     atom                  positions (cryst. coord.)
         1        Zn     tau(   1) = (  0.1666667  0.1666667  0.0539212  )
         2        Zn     tau(   2) = (  0.1666667  0.6666667  0.0539212  )
         3        Zn     tau(   3) = (  0.1666667  0.1666667  0.1463574  )
         4        Zn     tau(   4) = (  0.1666667  0.6666667  0.1463574  )
         5        Zn     tau(   5) = (  0.2128747  0.1783335  0.2501842  )
         6        Zn     tau(   6) = (  0.2127978  0.6783005  0.2501593  )
         7        Zn     tau(   7) = (  0.2463902  0.1869149  0.3440795  )
         8        Zn     tau(   8) = (  0.2464166  0.6868668  0.3440692  )
         9        Zn     tau(   9) = (  0.1666667  0.4166667  0.0539212  )
        10        Zn     tau(  10) = (  0.1666667  0.9166667  0.0539212  )
        11        Zn     tau(  11) = (  0.1666667  0.4166667  0.1463574  )
        12        Zn     tau(  12) = (  0.1666667  0.9166667  0.1463574  )
        13        Zn     tau(  13) = (  0.2129167  0.4283440  0.2501836  )
        14        Zn     tau(  14) = (  0.2127547  0.9282895  0.2501598  )
        15        Zn     tau(  15) = (  0.2463452  0.4368838  0.3440484  )
        16        Zn     tau(  16) = (  0.2464587  0.9368959  0.3441002  )
        17        Zn     tau(  17) = (  0.6666667  0.1666667  0.0539212  )
        18        Zn     tau(  18) = (  0.6666667  0.6666667  0.0539212  )
        19        Zn     tau(  19) = (  0.6666667  0.1666667  0.1463574  )
        20        Zn     tau(  20) = (  0.6666667  0.6666667  0.1463574  )
        21        Zn     tau(  21) = (  0.7131217  0.1784017  0.2502493  )
        22        Zn     tau(  22) = (  0.7130461  0.6783550  0.2502351  )
        23        Zn     tau(  23) = (  0.7462263  0.1868242  0.3441221  )
        24        Zn     tau(  24) = (  0.7463231  0.6868923  0.3441538  )
        25        Zn     tau(  25) = (  0.6666667  0.4166667  0.0539212  )
        26        Zn     tau(  26) = (  0.6666667  0.9166667  0.0539212  )
        27        Zn     tau(  27) = (  0.6666667  0.4166667  0.1463574  )
        28        Zn     tau(  28) = (  0.6666667  0.9166667  0.1463574  )
        29        Zn     tau(  29) = (  0.7130994  0.4283539  0.2502485  )
        30        Zn     tau(  30) = (  0.7130701  0.9284039  0.2502361  )
        31        Zn     tau(  31) = (  0.7462994  0.4368403  0.3441517  )
        32        Zn     tau(  32) = (  0.7462528  0.9368766  0.3441246  )
        33        Zn     tau(  33) = (  0.3333333  0.0833333  0.0385151  )
        34        Zn     tau(  34) = (  0.3333333  0.5833333  0.0385151  )
        35        Zn     tau(  35) = (  0.3333333  0.0833333  0.1309514  )
        36        Zn     tau(  36) = (  0.3333333  0.5833333  0.1309514  )
        37        Zn     tau(  37) = (  0.3434179  0.0856861  0.2267397  )
        38        Zn     tau(  38) = (  0.3434679  0.5857235  0.2267472  )
        39        Zn     tau(  39) = (  0.3981557  0.0998028  0.3288105  )
        40        Zn     tau(  40) = (  0.3982858  0.5998511  0.3288131  )
        41        Zn     tau(  41) = (  0.3333333  0.3333333  0.0385151  )
        42        Zn     tau(  42) = (  0.3333333  0.8333333  0.0385151  )
        43        Zn     tau(  43) = (  0.3333333  0.3333333  0.1309514  )
        44        Zn     tau(  44) = (  0.3333333  0.8333333  0.1309514  )
        45        Zn     tau(  45) = (  0.3434327  0.3356857  0.2267452  )
        46        Zn     tau(  46) = (  0.3434542  0.8357230  0.2267412  )
        47        Zn     tau(  47) = (  0.3982709  0.3498405  0.3288220  )
        48        Zn     tau(  48) = (  0.3981701  0.8498162  0.3288017  )
        49        Zn     tau(  49) = (  0.8333333  0.0833333  0.0385151  )
        50        Zn     tau(  50) = (  0.8333333  0.5833333  0.0385151  )
        51        Zn     tau(  51) = (  0.8333333  0.0833333  0.1309514  )
        52        Zn     tau(  52) = (  0.8333333  0.5833333  0.1309514  )
        53        Zn     tau(  53) = (  0.8434743  0.0857495  0.2267377  )
        54        Zn     tau(  54) = (  0.8433836  0.5856566  0.2267155  )
        55        Zn     tau(  55) = (  0.8977868  0.0997428  0.3287890  )
        56        Zn     tau(  56) = (  0.8977586  0.5996794  0.3288014  )
        57        Zn     tau(  57) = (  0.8333333  0.3333333  0.0385151  )
        58        Zn     tau(  58) = (  0.8333333  0.8333333  0.0385151  )
        59        Zn     tau(  59) = (  0.8333333  0.3333333  0.1309514  )
        60        Zn     tau(  60) = (  0.8333333  0.8333333  0.1309514  )
        61        Zn     tau(  61) = (  0.8435104  0.3357256  0.2267377  )
        62        Zn     tau(  62) = (  0.8433456  0.8356770  0.2267147  )
        63        Zn     tau(  63) = (  0.8976524  0.3496655  0.3287743  )
        64        Zn     tau(  64) = (  0.8978942  0.8497587  0.3288166  )
        65        C      tau(  65) = (  2.7885894  0.9050847  0.6752885  )
        66        C      tau(  66) = (  2.4865888  0.8419598  0.6270360  )
        67        C      tau(  67) = (  2.3580601  0.9313646  0.6066102  )
        68        C      tau(  68) = (  2.3109637  0.6889756  0.5988633  )
        69        C      tau(  69) = (  2.0181686  0.6275756  0.5520797  )
        70        C      tau(  70) = (  2.0653281  0.8703547  0.5598391  )
        71        C      tau(  71) = (  1.8883363  0.7168849  0.5314479  )
        72        N      tau(  72) = (  3.0340023  0.9563914  0.7145014  )
        73        N      tau(  73) = (  1.5998784  0.6565934  0.4853624  )
        74        H      tau(  74) = (  1.4734379  0.5470267  0.4650540  )
        75        H      tau(  75) = (  1.5071104  0.7203303  0.4705945  )
        76        H      tau(  76) = (  2.4911996  1.0501276  0.6279724  )
        77        H      tau(  77) = (  2.4072384  0.6181710  0.6141579  )
        78        H      tau(  78) = (  1.8855178  0.5086069  0.5307978  )
        79        H      tau(  79) = (  1.9696725  0.9416004  0.5446428  )

     number of k points=     4  Marzari-Vanderbilt smearing, width (Ry)=  0.0200
                       cart. coord. in units 2pi/alat
        k(    1) = (   0.0000000   0.0000000   0.0000000), wk =   0.5000000
        k(    2) = (   0.0000000  -0.5442473  -0.2768914), wk =   0.5000000
        k(    3) = (  -0.5000000  -0.1216334  -1.1075657), wk =   0.5000000
        k(    4) = (  -0.5000000  -0.6658807  -1.3844571), wk =   0.5000000

                       cryst. coord.
        k(    1) = (   0.0000000   0.0000000   0.0000000), wk =   0.5000000
        k(    2) = (   0.0000000  -0.5000000   0.0000000), wk =   0.5000000
        k(    3) = (  -0.5000000   0.0000000   0.0000000), wk =   0.5000000
        k(    4) = (  -0.5000000  -0.5000000   0.0000000), wk =   0.5000000

     Dense  grid:   374027 G-vectors     FFT dimensions: (  75,  72, 360)

     Dynamical RAM for                 wfc:      16.65 MB

     Dynamical RAM for     wfc (w. buffer):      83.23 MB

     Dynamical RAM for           str. fact:       0.67 MB

     Dynamical RAM for           local pot:       0.00 MB

     Dynamical RAM for          nlocal pot:      25.91 MB

     Dynamical RAM for                qrad:       3.52 MB

     Dynamical RAM for          rho,v,vnew:       1.86 MB

     Dynamical RAM for               rhoin:       0.62 MB

     Dynamical RAM for            rho*nmix:       2.69 MB

     Dynamical RAM for           G-vectors:       0.71 MB

     Dynamical RAM for          h,s,v(r/c):       4.60 MB

     Dynamical RAM for          <psi|beta>:      14.97 MB

     Dynamical RAM for                 psi:      33.29 MB

     Dynamical RAM for                hpsi:      33.29 MB

     Dynamical RAM for                spsi:      33.29 MB

     Dynamical RAM for      wfcinit/wfcrot:      54.14 MB

     Dynamical RAM for           addusdens:      41.98 MB

     Dynamical RAM for          addusforce:      63.47 MB

     Dynamical RAM for         addusstress:      33.75 MB

     Estimated static dynamical RAM per process >     119.64 MB

     Estimated max dynamical RAM per process >     241.79 MB

     Estimated total dynamical RAM >       8.03 GB

     Check: negative core charge=   -0.000052

     Initial potential from superposition of free atoms

     starting charge    1323.9906, renormalised to    1324.0000

     negative rho (up, down):  8.539E-03 0.000E+00
     Starting wfcs are  874 randomized atomic wfcs
[psid03:38190] 33 more processes have sent help message help-mpi-btl-openib.txt / ib port not selected
[psid03:38190] Set MCA parameter "orte_base_help_aggregate" to 0 to see all help / error messages
[psid03:38190] 33 more processes have sent help message help-mpi-btl-openib.txt / error in device init
     Checking if some PAW data can be deallocated... 
       PAW data deallocated on   30 nodes for type:  2

     total cpu time spent up to now is       66.0 secs

     Self-consistent Calculation

     iteration #  1     ecut=    30.00 Ry     beta= 0.70
     Davidson diagonalization with overlap

---- Real-time Memory Report at c_bands before calling an iterative solver
           201 MiB given to the printing process from OS
             0 MiB allocation reported by mallinfo(arena+hblkhd)
         92946 MiB available memory on the node where the printing process lives
------------------
     ethr =  1.00E-02,  avg # of iterations =  7.2

     Threshold (ethr) on eigenvalues was too large:
     Diagonalizing with lowered threshold

     Davidson diagonalization with overlap

---- Real-time Memory Report at c_bands before calling an iterative solver
           279 MiB given to the printing process from OS
             0 MiB allocation reported by mallinfo(arena+hblkhd)
         91604 MiB available memory on the node where the printing process lives
------------------
     ethr =  8.47E-04,  avg # of iterations =  1.5

     negative rho (up, down):  3.777E-02 0.000E+00

     total cpu time spent up to now is      527.9 secs

     total energy              =  -29703.50791693 Ry
     estimated scf accuracy    <      11.44311975 Ry

     iteration #  2     ecut=    30.00 Ry     beta= 0.70
     Davidson diagonalization with overlap

---- Real-time Memory Report at c_bands before calling an iterative solver
           291 MiB given to the printing process from OS
             0 MiB allocation reported by mallinfo(arena+hblkhd)
         91528 MiB available memory on the node where the printing process lives
------------------
     ethr =  8.64E-04,  avg # of iterations = 10.0

     negative rho (up, down):  3.514E-02 0.000E+00

     total cpu time spent up to now is      906.5 secs

     total energy              =  -29671.92167136 Ry
     estimated scf accuracy    <     617.98862530 Ry

     iteration #  3     ecut=    30.00 Ry     beta= 0.70
     Davidson diagonalization with overlap

---- Real-time Memory Report at c_bands before calling an iterative solver
           294 MiB given to the printing process from OS
             0 MiB allocation reported by mallinfo(arena+hblkhd)
         91512 MiB available memory on the node where the printing process lives
------------------
     ethr =  8.64E-04,  avg # of iterations =  8.0

     negative rho (up, down):  2.820E-02 0.000E+00

     total cpu time spent up to now is     1457.0 secs

     total energy              =  -29703.01515962 Ry
     estimated scf accuracy    <     108.32543539 Ry

     iteration #  4     ecut=    30.00 Ry     beta= 0.70
     Davidson diagonalization with overlap

---- Real-time Memory Report at c_bands before calling an iterative solver
           295 MiB given to the printing process from OS
             0 MiB allocation reported by mallinfo(arena+hblkhd)
         91491 MiB available memory on the node where the printing process lives
------------------
     ethr =  8.64E-04,  avg # of iterations =  7.8

     negative rho (up, down):  2.379E-02 0.000E+00

     total cpu time spent up to now is     1719.5 secs

     total energy              =  -29707.58191142 Ry
     estimated scf accuracy    <      63.99773209 Ry

     iteration #  5     ecut=    30.00 Ry     beta= 0.70
     Davidson diagonalization with overlap

---- Real-time Memory Report at c_bands before calling an iterative solver
           295 MiB given to the printing process from OS
             0 MiB allocation reported by mallinfo(arena+hblkhd)
         91470 MiB available memory on the node where the printing process lives
------------------
     ethr =  8.64E-04,  avg # of iterations =  5.2

     negative rho (up, down):  2.485E-02 0.000E+00

     total cpu time spent up to now is     1952.0 secs

     total energy              =  -29710.96475031 Ry
     estimated scf accuracy    <       4.05120105 Ry

     iteration #  6     ecut=    30.00 Ry     beta= 0.70
     Davidson diagonalization with overlap

---- Real-time Memory Report at c_bands before calling an iterative solver
           296 MiB given to the printing process from OS
             0 MiB allocation reported by mallinfo(arena+hblkhd)
         91450 MiB available memory on the node where the printing process lives
------------------
     ethr =  3.06E-04,  avg # of iterations =  4.2

     negative rho (up, down):  2.975E-02 0.000E+00

     total cpu time spent up to now is     2171.0 secs

     total energy              =  -29711.34667642 Ry
     estimated scf accuracy    <       0.17802238 Ry

     iteration #  7     ecut=    30.00 Ry     beta= 0.70
     Davidson diagonalization with overlap

---- Real-time Memory Report at c_bands before calling an iterative solver
           296 MiB given to the printing process from OS
             0 MiB allocation reported by mallinfo(arena+hblkhd)
         91430 MiB available memory on the node where the printing process lives
------------------
     ethr =  1.34E-05,  avg # of iterations = 14.5

     negative rho (up, down):  3.209E-02 0.000E+00

     total cpu time spent up to now is     2455.6 secs

     total energy              =  -29711.31907819 Ry
     estimated scf accuracy    <       0.23345217 Ry

     iteration #  8     ecut=    30.00 Ry     beta= 0.70
     Davidson diagonalization with overlap

---- Real-time Memory Report at c_bands before calling an iterative solver
           297 MiB given to the printing process from OS
             0 MiB allocation reported by mallinfo(arena+hblkhd)
         91409 MiB available memory on the node where the printing process lives
------------------
     ethr =  1.34E-05,  avg # of iterations =  5.0

     negative rho (up, down):  3.619E-02 0.000E+00

     total cpu time spent up to now is     2684.9 secs

     total energy              =  -29711.32528026 Ry
     estimated scf accuracy    <       0.37785005 Ry

     iteration #  9     ecut=    30.00 Ry     beta= 0.70
     Davidson diagonalization with overlap

---- Real-time Memory Report at c_bands before calling an iterative solver
           298 MiB given to the printing process from OS
             0 MiB allocation reported by mallinfo(arena+hblkhd)
         91390 MiB available memory on the node where the printing process lives
------------------
     ethr =  1.34E-05,  avg # of iterations =  4.5

     negative rho (up, down):  3.769E-02 0.000E+00

     total cpu time spent up to now is     2909.3 secs

     total energy              =  -29711.34747567 Ry
     estimated scf accuracy    <       0.09551405 Ry

     iteration # 10     ecut=    30.00 Ry     beta= 0.70
     Davidson diagonalization with overlap

---- Real-time Memory Report at c_bands before calling an iterative solver
           298 MiB given to the printing process from OS
             0 MiB allocation reported by mallinfo(arena+hblkhd)
         91370 MiB available memory on the node where the printing process lives
------------------
     ethr =  7.21E-06,  avg # of iterations =  8.5

     negative rho (up, down):  3.779E-02 0.000E+00

     total cpu time spent up to now is     3141.4 secs

     total energy              =  -29711.35388552 Ry
     estimated scf accuracy    <       0.04873640 Ry

     iteration # 11     ecut=    30.00 Ry     beta= 0.70
     Davidson diagonalization with overlap

---- Real-time Memory Report at c_bands before calling an iterative solver
           299 MiB given to the printing process from OS
             0 MiB allocation reported by mallinfo(arena+hblkhd)
         91349 MiB available memory on the node where the printing process lives
------------------
     ethr =  3.68E-06,  avg # of iterations =  7.0

     negative rho (up, down):  4.138E-02 0.000E+00

     total cpu time spent up to now is     3363.0 secs

     total energy              =  -29711.34095651 Ry
     estimated scf accuracy    <       0.03248564 Ry

     iteration # 12     ecut=    30.00 Ry     beta= 0.70
     Davidson diagonalization with overlap

---- Real-time Memory Report at c_bands before calling an iterative solver
           299 MiB given to the printing process from OS
             0 MiB allocation reported by mallinfo(arena+hblkhd)
         91349 MiB available memory on the node where the printing process lives
------------------
     c_bands:  1 eigenvalues not converged
     c_bands:  1 eigenvalues not converged
     c_bands:  1 eigenvalues not converged
     ethr =  2.45E-06,  avg # of iterations = 20.0

     negative rho (up, down):  3.925E-02 0.000E+00

     total cpu time spent up to now is     3678.8 secs

     total energy              =  -29711.34186524 Ry
     estimated scf accuracy    <       0.04375415 Ry

     iteration # 13     ecut=    30.00 Ry     beta= 0.70
     Davidson diagonalization with overlap

---- Real-time Memory Report at c_bands before calling an iterative solver
           299 MiB given to the printing process from OS
             0 MiB allocation reported by mallinfo(arena+hblkhd)
         91347 MiB available memory on the node where the printing process lives
------------------
     ethr =  2.45E-06,  avg # of iterations = 10.5

     negative rho (up, down):  3.889E-02 0.000E+00

     total cpu time spent up to now is     3925.1 secs

     total energy              =  -29711.33414580 Ry
     estimated scf accuracy    <       0.04348786 Ry

     iteration # 14     ecut=    30.00 Ry     beta= 0.70
     Davidson diagonalization with overlap

---- Real-time Memory Report at c_bands before calling an iterative solver
           299 MiB given to the printing process from OS
             0 MiB allocation reported by mallinfo(arena+hblkhd)
         91347 MiB available memory on the node where the printing process lives
------------------
     ethr =  2.45E-06,  avg # of iterations = 14.0

     negative rho (up, down):  3.869E-02 0.000E+00

     total cpu time spent up to now is     4205.7 secs

     total energy              =  -29711.31897007 Ry
     estimated scf accuracy    <       0.62742748 Ry

     iteration # 15     ecut=    30.00 Ry     beta= 0.70
     Davidson diagonalization with overlap

---- Real-time Memory Report at c_bands before calling an iterative solver
           299 MiB given to the printing process from OS
             0 MiB allocation reported by mallinfo(arena+hblkhd)
         91342 MiB available memory on the node where the printing process lives
------------------
     ethr =  2.45E-06,  avg # of iterations = 10.0

     negative rho (up, down):  3.897E-02 0.000E+00

     total cpu time spent up to now is     4460.8 secs

     total energy              =  -29711.34251294 Ry
     estimated scf accuracy    <       0.02680075 Ry

     iteration # 16     ecut=    30.00 Ry     beta= 0.70
     Davidson diagonalization with overlap

---- Real-time Memory Report at c_bands before calling an iterative solver
           299 MiB given to the printing process from OS
             0 MiB allocation reported by mallinfo(arena+hblkhd)
         91341 MiB available memory on the node where the printing process lives
------------------
     ethr =  2.02E-06,  avg # of iterations =  4.0

     negative rho (up, down):  3.850E-02 0.000E+00

     total cpu time spent up to now is     4682.4 secs

     total energy              =  -29711.34515278 Ry
     estimated scf accuracy    <       0.00421632 Ry

     iteration # 17     ecut=    30.00 Ry     beta= 0.70
     Davidson diagonalization with overlap

---- Real-time Memory Report at c_bands before calling an iterative solver
           299 MiB given to the printing process from OS
             0 MiB allocation reported by mallinfo(arena+hblkhd)
         91340 MiB available memory on the node where the printing process lives
------------------
     ethr =  3.18E-07,  avg # of iterations =  2.0

     negative rho (up, down):  3.838E-02 0.000E+00

     total cpu time spent up to now is     4888.9 secs

     total energy              =  -29711.34558615 Ry
     estimated scf accuracy    <       0.00033840 Ry

     iteration # 18     ecut=    30.00 Ry     beta= 0.70
     Davidson diagonalization with overlap

---- Real-time Memory Report at c_bands before calling an iterative solver
           299 MiB given to the printing process from OS
             0 MiB allocation reported by mallinfo(arena+hblkhd)
         91341 MiB available memory on the node where the printing process lives
------------------
     ethr =  2.56E-08,  avg # of iterations =  2.0

     negative rho (up, down):  3.831E-02 0.000E+00

     total cpu time spent up to now is     5127.2 secs

     total energy              =  -29711.34562568 Ry
     estimated scf accuracy    <       0.00009308 Ry

     iteration # 19     ecut=    30.00 Ry     beta= 0.70
     Davidson diagonalization with overlap

---- Real-time Memory Report at c_bands before calling an iterative solver
           299 MiB given to the printing process from OS
             0 MiB allocation reported by mallinfo(arena+hblkhd)
         91336 MiB available memory on the node where the printing process lives
------------------
     ethr =  7.03E-09,  avg # of iterations =  2.0

     negative rho (up, down):  3.826E-02 0.000E+00

     total cpu time spent up to now is     5335.7 secs

     total energy              =  -29711.34562337 Ry
     estimated scf accuracy    <       0.00023135 Ry

     iteration # 20     ecut=    30.00 Ry     beta= 0.70
     Davidson diagonalization with overlap

---- Real-time Memory Report at c_bands before calling an iterative solver
           299 MiB given to the printing process from OS
             0 MiB allocation reported by mallinfo(arena+hblkhd)
         91335 MiB available memory on the node where the printing process lives
------------------
     ethr =  7.03E-09,  avg # of iterations =  2.0

     negative rho (up, down):  3.823E-02 0.000E+00

     total cpu time spent up to now is     5542.1 secs

     total energy              =  -29711.34564104 Ry
     estimated scf accuracy    <       0.00005998 Ry

     iteration # 21     ecut=    30.00 Ry     beta= 0.70
     Davidson diagonalization with overlap

---- Real-time Memory Report at c_bands before calling an iterative solver
           299 MiB given to the printing process from OS
             0 MiB allocation reported by mallinfo(arena+hblkhd)
         91333 MiB available memory on the node where the printing process lives
------------------
     ethr =  4.53E-09,  avg # of iterations =  2.0

     negative rho (up, down):  3.822E-02 0.000E+00

     total cpu time spent up to now is     5748.6 secs

     total energy              =  -29711.34564603 Ry
     estimated scf accuracy    <       0.00001155 Ry

     iteration # 22     ecut=    30.00 Ry     beta= 0.70
     Davidson diagonalization with overlap

---- Real-time Memory Report at c_bands before calling an iterative solver
           299 MiB given to the printing process from OS
             0 MiB allocation reported by mallinfo(arena+hblkhd)
         91331 MiB available memory on the node where the printing process lives
------------------
     ethr =  8.73E-10,  avg # of iterations =  2.0

     negative rho (up, down):  3.821E-02 0.000E+00

     total cpu time spent up to now is     5957.9 secs

     total energy              =  -29711.34564632 Ry
     estimated scf accuracy    <       0.00001995 Ry

     iteration # 23     ecut=    30.00 Ry     beta= 0.70
     Davidson diagonalization with overlap

---- Real-time Memory Report at c_bands before calling an iterative solver
           299 MiB given to the printing process from OS
             0 MiB allocation reported by mallinfo(arena+hblkhd)
         91328 MiB available memory on the node where the printing process lives
------------------
     ethr =  8.73E-10,  avg # of iterations =  2.0

     negative rho (up, down):  3.820E-02 0.000E+00

     total cpu time spent up to now is     6165.4 secs

     total energy              =  -29711.34564827 Ry
     estimated scf accuracy    <       0.00000125 Ry

     iteration # 24     ecut=    30.00 Ry     beta= 0.70
     Davidson diagonalization with overlap

---- Real-time Memory Report at c_bands before calling an iterative solver
           299 MiB given to the printing process from OS
             0 MiB allocation reported by mallinfo(arena+hblkhd)
         91329 MiB available memory on the node where the printing process lives
------------------
     ethr =  9.44E-11,  avg # of iterations =  2.0

     negative rho (up, down):  3.820E-02 0.000E+00

     total cpu time spent up to now is     6375.1 secs

     total energy              =  -29711.34564805 Ry
     estimated scf accuracy    <       0.00000702 Ry

     iteration # 25     ecut=    30.00 Ry     beta= 0.70
     Davidson diagonalization with overlap

---- Real-time Memory Report at c_bands before calling an iterative solver
           299 MiB given to the printing process from OS
             0 MiB allocation reported by mallinfo(arena+hblkhd)
         91330 MiB available memory on the node where the printing process lives
------------------
     ethr =  9.44E-11,  avg # of iterations =  2.0

     negative rho (up, down):  3.820E-02 0.000E+00

     total cpu time spent up to now is     6581.7 secs

     total energy              =  -29711.34564831 Ry
     estimated scf accuracy    <       0.00000279 Ry

     iteration # 26     ecut=    30.00 Ry     beta= 0.70
     Davidson diagonalization with overlap

---- Real-time Memory Report at c_bands before calling an iterative solver
           299 MiB given to the printing process from OS
             0 MiB allocation reported by mallinfo(arena+hblkhd)
         91327 MiB available memory on the node where the printing process lives
------------------
     ethr =  9.44E-11,  avg # of iterations =  2.0

     negative rho (up, down):  3.819E-02 0.000E+00

     total cpu time spent up to now is     6788.5 secs

     End of self-consistent calculation

          k = 0.0000 0.0000 0.0000 ( 46769 PWs)   bands (ev):

  -123.8399-123.8391-123.8389-123.8383-123.8380-123.8378-123.8376-123.8370
  -123.7570-123.7558-123.7554-123.7547-123.7544-123.7543-123.7532-123.7526
  -123.7409-123.7404-123.7402-123.7397-123.7397-123.7393-123.7391-123.7388
  -123.7262-123.7248-123.7242-123.7226-123.7222-123.7216-123.7213-123.7204
  -123.6875-123.6864-123.6852-123.6847-123.6827-123.6821-123.6816-123.6813
  -123.6615-123.6593-123.6491-123.6482-123.6469-123.6461-123.6458-123.6455
  -123.5604-123.5591-123.5583-123.5575-123.5565-123.5552-123.5544-123.5541
  -123.5398-123.5364-123.5356-123.5299-123.5277-123.5269-123.5257-123.5254
   -77.9476 -77.9467 -77.9334 -77.9318 -77.9316 -77.9309 -77.9304 -77.9301
   -77.9300 -77.9293 -77.9278 -77.9275 -77.9237 -77.9235 -77.9219 -77.9186
   -77.9181 -77.9176 -77.9171 -77.9168 -77.9164 -77.9159 -77.9149 -77.9140
   -77.8677 -77.8663 -77.8502 -77.8483 -77.8481 -77.8453 -77.8452 -77.8434
   -77.8429 -77.8426 -77.8424 -77.8422 -77.8417 -77.8415 -77.8412 -77.8410
   -77.8401 -77.8395 -77.8385 -77.8378 -77.8371 -77.8370 -77.8369 -77.8367
   -77.8366 -77.8362 -77.8360 -77.8358 -77.8357 -77.8357 -77.8354 -77.8350
   -77.8347 -77.8324 -77.8291 -77.8250 -77.8249 -77.8247 -77.8244 -77.8240
   -77.8235 -77.8233 -77.8225 -77.8222 -77.8220 -77.8216 -77.8210 -77.8206
   -77.8201 -77.8196 -77.8194 -77.8192 -77.8188 -77.8179 -77.8176 -77.8170
   -77.8143 -77.8098 -77.8092 -77.8088 -77.8074 -77.8073 -77.8069 -77.8064
   -77.8055 -77.8048 -77.8029 -77.8025 -77.7986 -77.7980 -77.7917 -77.7889
   -77.7881 -77.7872 -77.7860 -77.7856 -77.7852 -77.7832 -77.7830 -77.7822
   -77.7820 -77.7813 -77.7702 -77.7679 -77.7672 -77.7664 -77.7661 -77.7658
   -77.7634 -77.7632 -77.7628 -77.7623 -77.7601 -77.7597 -77.7596 -77.7582
   -77.7563 -77.7540 -77.7506 -77.7500 -77.7463 -77.7454 -77.7445 -77.7433
   -77.7427 -77.7423 -77.7420 -77.7414 -77.7397 -77.7366 -77.7342 -77.7325
   -77.7303 -77.7301 -77.7297 -77.7297 -77.7283 -77.7278 -77.7233 -77.7177
   -77.6640 -77.6627 -77.6617 -77.6610 -77.6600 -77.6586 -77.6576 -77.6572
   -77.6568 -77.6531 -77.6468 -77.6448 -77.6431 -77.6424 -77.6421 -77.6416
   -77.6411 -77.6394 -77.6386 -77.6376 -77.6375 -77.6366 -77.6363 -77.6358
   -77.6337 -77.6327 -77.6319 -77.6314 -77.6311 -77.6306 -77.6303 -77.6246
   -77.6245 -77.6224 -77.6208 -77.6205 -77.6200 -77.6145 -77.6118 -77.6109
   -77.6105 -77.6098 -77.6092 -77.6090 -77.6005 -77.6005 -77.5971 -77.5898
   -16.3784 -14.9747 -14.0901 -11.6777 -11.6040  -8.6973  -8.4198  -7.0062
    -6.4823  -6.1067  -6.0038  -5.9909  -5.9542  -5.8776  -5.6804  -5.6801
    -5.4856  -5.4568  -5.4236  -5.3818  -5.3672  -5.3639  -5.3635  -5.3582
    -5.3581  -5.3531  -5.3041  -5.3035  -5.2846  -5.2765  -5.2758  -5.2670
    -5.2088  -5.2084  -5.2077  -5.2076  -5.1880  -5.1792  -5.1744  -5.1738
    -5.1582  -5.1560  -5.1559  -5.1411  -5.1397  -5.1396  -5.1245  -5.1244
    -5.1133  -5.1129  -5.0754  -5.0742  -5.0741  -5.0689  -5.0688  -5.0554
    -5.0549  -5.0491  -5.0490  -5.0436  -5.0435  -5.0433  -5.0398  -5.0317
    -5.0299  -5.0124  -5.0101  -5.0100  -5.0092  -4.9959  -4.9958  -4.9941
    -4.9920  -4.9791  -4.9790  -4.9657  -4.9656  -4.9465  -4.9448  -4.9398
    -4.9397  -4.9317  -4.9317  -4.9241  -4.9198  -4.9181  -4.9127  -4.9125
    -4.9078  -4.9077  -4.9067  -4.8840  -4.8840  -4.8738  -4.8550  -4.8549
    -4.8508  -4.8508  -4.8485  -4.8391  -4.8357  -4.8356  -4.8339  -4.8338
    -4.8206  -4.8190  -4.8165  -4.8151  -4.8150  -4.7971  -4.7943  -4.7942
    -4.7886  -4.7878  -4.7734  -4.7634  -4.7633  -4.7549  -4.7536  -4.7528
    -4.7528  -4.7406  -4.7405  -4.7315  -4.7314  -4.7141  -4.7120  -4.7111
    -4.7103  -4.6952  -4.6952  -4.6839  -4.6837  -4.6833  -4.6727  -4.6726
    -4.6714  -4.6512  -4.6511  -4.6426  -4.6145  -4.6144  -4.6117  -4.6116
    -4.6084  -4.6044  -4.6030  -4.5953  -4.5933  -4.5929  -4.5927  -4.5888
    -4.5884  -4.5751  -4.5751  -4.5659  -4.5658  -4.5624  -4.5623  -4.5499
    -4.5436  -4.5355  -4.5355  -4.5325  -4.5228  -4.5228  -4.5144  -4.5143
    -4.5121  -4.5120  -4.5112  -4.5110  -4.5076  -4.4953  -4.4953  -4.4921
    -4.4819  -4.4812  -4.4811  -4.4744  -4.4744  -4.4738  -4.4738  -4.4592
    -4.4591  -4.4569  -4.4349  -4.4349  -4.4319  -4.4318  -4.4169  -4.4168
    -4.4160  -4.4149  -4.4130  -4.4108  -4.4107  -4.4082  -4.4081  -4.3798
    -4.3792  -4.3791  -4.3779  -4.3699  -4.3611  -4.3610  -4.3601  -4.3534
    -4.3533  -4.3520  -4.3519  -4.3501  -4.3480  -4.3480  -4.3454  -4.3426
    -4.3416  -4.3392  -4.3392  -4.3370  -4.3273  -4.3248  -4.3212  -4.3210
    -4.3159  -4.3111  -4.3110  -4.3059  -4.3051  -4.3046  -4.3023  -4.2951
    -4.2948  -4.2935  -4.2934  -4.2910  -4.2909  -4.2803  -4.2801  -4.2740
    -4.2721  -4.2695  -4.2695  -4.2653  -4.2618  -4.2605  -4.2560  -4.2558
    -4.2533  -4.2532  -4.2430  -4.2425  -4.2378  -4.2295  -4.2294  -4.2222
    -4.2143  -4.2143  -4.2104  -4.2094  -4.2027  -4.2010  -4.1953  -4.1917
    -4.1894  -4.1840  -4.1832  -4.1765  -4.1764  -4.1755  -4.1711  -4.1696
    -4.1688  -4.1685  -4.1679  -4.1499  -4.1495  -4.1493  -4.1481  -4.1478
    -4.1388  -4.1387  -4.1324  -4.1307  -4.1227  -4.1226  -4.1204  -4.1187
    -4.1151  -4.1146  -4.1145  -4.1128  -4.1123  -4.1097  -4.1078  -4.0989
    -4.0978  -4.0977  -4.0866  -4.0825  -4.0823  -4.0775  -4.0750  -4.0746
    -4.0734  -4.0732  -4.0590  -4.0590  -4.0467  -4.0467  -4.0425  -4.0376
    -4.0347  -4.0343  -4.0295  -4.0293  -4.0200  -4.0167  -4.0141  -3.9861
    -3.9812  -3.9803  -3.9802  -3.9661  -3.9656  -3.9620  -3.9467  -3.9430
    -3.9405  -3.9364  -3.9165  -3.9080  -3.9057  -3.8932  -3.8909  -3.8672
    -3.8654  -3.8460  -3.8420  -3.7779  -3.7606  -3.6398  -3.6296  -3.6292
    -3.3301  -3.1515  -3.0467  -3.0459  -2.8332  -2.7846  -2.7834  -2.5831
    -2.0000  -1.7594  -1.7551  -1.7365  -1.7219  -1.6956  -1.6425  -1.4723
    -1.0280  -1.0271  -1.0225  -0.9434  -0.8275  -0.8275  -0.8108  -0.4925
    -0.4686  -0.4076  -0.4066  -0.2885  -0.2875  -0.2486   0.0692   0.1524
     0.2741   0.2744   0.2936   0.2947   0.5329   0.6089   0.6156   0.6200
     0.7003   0.7018   0.8672   0.8716   0.8737   1.5393   1.5410   1.6240
     1.6697   1.6723   1.7465   1.7487   1.9039   2.0798   2.3184   2.3202
     2.4554   2.4670   2.5127   2.5149   2.5394   2.8274   2.8354   2.8719
     2.8756   2.9451   2.9458   3.0289   3.4731   3.5339   3.5483   3.6858
     3.6874   3.9841   3.9905   4.1545   4.1630   4.2174   4.8118   4.8156
     5.0681   5.0711   5.0723   5.1023   5.1066   5.1521   5.1564   5.2006
     5.2552   5.2575   5.2711   5.2916   5.4944   5.6267   5.6410   5.6593
     5.7051   5.7671   5.7792   5.8353   6.0139   6.0195   6.3474   6.3510
     6.3693   6.3852   6.4065   6.5928   6.6661   6.6665   6.7121   6.7552
     6.8846   6.9581   6.9840   7.0589   7.0625   7.1980   7.2140   7.2840
     7.2909   7.2930   7.3007   7.3396   7.4211   7.4759   7.4824   7.5752
     7.6576   7.6795   7.7076   7.7379   7.7688   7.7720   7.7747   7.7999
     7.8260   7.8697   7.9018   7.9696   8.0287   8.0559   8.1355   8.1846
     8.1906   8.2085   8.2507   8.2655   8.3470   8.3779   8.4019   8.4509
     8.4608   8.4783   8.5030   8.5314   8.5581   8.6122   8.6213   8.6537
     8.6728   8.7326   8.9273   8.9732   9.0284   9.0388   9.1024   9.1111
     9.1264   9.1809   9.2570   9.3197   9.3505   9.4188   9.4415   9.5394
     9.6130   9.6619   9.6659   9.6695   9.6974   9.7498   9.7539   9.8027
     9.8126   9.8897   9.9519  10.0057  10.0342  10.1624  10.2118  10.2328
    10.2630  10.2852

     occupation numbers 
     1.0000   1.0000   1.0000   1.0000   1.0000   1.0000   1.0000   1.0000
     1.0000   1.0000   1.0000   1.0000   1.0000   1.0000   1.0000   1.0000
     1.0000   1.0000   1.0000   1.0000   1.0000   1.0000   1.0000   1.0000
     1.0000   1.0000   1.0000   1.0000   1.0000   1.0000   1.0000   1.0000
     1.0000   1.0000   1.0000   1.0000   1.0000   1.0000   1.0000   1.0000
     1.0000   1.0000   1.0000   1.0000   1.0000   1.0000   1.0000   1.0000
     1.0000   1.0000   1.0000   1.0000   1.0000   1.0000   1.0000   1.0000
     1.0000   1.0000   1.0000   1.0000   1.0000   1.0000   1.0000   1.0000
     1.0000   1.0000   1.0000   1.0000   1.0000   1.0000   1.0000   1.0000
     1.0000   1.0000   1.0000   1.0000   1.0000   1.0000   1.0000   1.0000
     1.0000   1.0000   1.0000   1.0000   1.0000   1.0000   1.0000   1.0000
     1.0000   1.0000   1.0000   1.0000   1.0000   1.0000   1.0000   1.0000
     1.0000   1.0000   1.0000   1.0000   1.0000   1.0000   1.0000   1.0000
     1.0000   1.0000   1.0000   1.0000   1.0000   1.0000   1.0000   1.0000
     1.0000   1.0000   1.0000   1.0000   1.0000   1.0000   1.0000   1.0000
     1.0000   1.0000   1.0000   1.0000   1.0000   1.0000   1.0000   1.0000
     1.0000   1.0000   1.0000   1.0000   1.0000   1.0000   1.0000   1.0000
     1.0000   1.0000   1.0000   1.0000   1.0000   1.0000   1.0000   1.0000
     1.0000   1.0000   1.0000   1.0000   1.0000   1.0000   1.0000   1.0000
     1.0000   1.0000   1.0000   1.0000   1.0000   1.0000   1.0000   1.0000
     1.0000   1.0000   1.0000   1.0000   1.0000   1.0000   1.0000   1.0000
     1.0000   1.0000   1.0000   1.0000   1.0000   1.0000   1.0000   1.0000
     1.0000   1.0000   1.0000   1.0000   1.0000   1.0000   1.0000   1.0000
     1.0000   1.0000   1.0000   1.0000   1.0000   1.0000   1.0000   1.0000
     1.0000   1.0000   1.0000   1.0000   1.0000   1.0000   1.0000   1.0000
     1.0000   1.0000   1.0000   1.0000   1.0000   1.0000   1.0000   1.0000
     1.0000   1.0000   1.0000   1.0000   1.0000   1.0000   1.0000   1.0000
     1.0000   1.0000   1.0000   1.0000   1.0000   1.0000   1.0000   1.0000
     1.0000   1.0000   1.0000   1.0000   1.0000   1.0000   1.0000   1.0000
     1.0000   1.0000   1.0000   1.0000   1.0000   1.0000   1.0000   1.0000
     1.0000   1.0000   1.0000   1.0000   1.0000   1.0000   1.0000   1.0000
     1.0000   1.0000   1.0000   1.0000   1.0000   1.0000   1.0000   1.0000
     1.0000   1.0000   1.0000   1.0000   1.0000   1.0000   1.0000   1.0000
     1.0000   1.0000   1.0000   1.0000   1.0000   1.0000   1.0000   1.0000
     1.0000   1.0000   1.0000   1.0000   1.0000   1.0000   1.0000   1.0000
     1.0000   1.0000   1.0000   1.0000   1.0000   1.0000   1.0000   1.0000
     1.0000   1.0000   1.0000   1.0000   1.0000   1.0000   1.0000   1.0000
     1.0000   1.0000   1.0000   1.0000   1.0000   1.0000   1.0000   1.0000
     1.0000   1.0000   1.0000   1.0000   1.0000   1.0000   1.0000   1.0000
     1.0000   1.0000   1.0000   1.0000   1.0000   1.0000   1.0000   1.0000
     1.0000   1.0000   1.0000   1.0000   1.0000   1.0000   1.0000   1.0000
     1.0000   1.0000   1.0000   1.0000   1.0000   1.0000   1.0000   1.0000
     1.0000   1.0000   1.0000   1.0000   1.0000   1.0000   1.0000   1.0000
     1.0000   1.0000   1.0000   1.0000   1.0000   1.0000   1.0000   1.0000
     1.0000   1.0000   1.0000   1.0000   1.0000   1.0000   1.0000   1.0000
     1.0000   1.0000   1.0000   1.0000   1.0000   1.0000   1.0000   1.0000
     1.0000   1.0000   1.0000   1.0000   1.0000   1.0000   1.0000   1.0000
     1.0000   1.0000   1.0000   1.0000   1.0000   1.0000   1.0000   1.0000
     1.0000   1.0000   1.0000   1.0000   1.0000   1.0000   1.0000   1.0000
     1.0000   1.0000   1.0000   1.0000   1.0000   1.0000   1.0000   1.0000
     1.0000   1.0000   1.0000   1.0000   1.0000   1.0000   1.0000   1.0000
     1.0000   1.0000   1.0000   1.0000   1.0000   1.0000   1.0000   1.0000
     1.0000   1.0000   1.0000   1.0000   1.0000   1.0000   1.0000   1.0000
     1.0000   1.0000   1.0000   1.0000   1.0000   1.0000   1.0000   1.0000
     1.0000   1.0000   1.0000   1.0000   1.0000   1.0000   1.0000   1.0000
     1.0000   1.0000   1.0000   1.0000   1.0000   1.0000   1.0000   1.0000
     1.0000   1.0000   1.0000   1.0000   1.0000   1.0000   1.0000   1.0000
     1.0000   1.0000   1.0000   1.0000   1.0000   1.0000   1.0000   1.0000
     1.0000   1.0000   1.0000   1.0000   1.0000   1.0000   1.0000   1.0000
     1.0000   1.0000   1.0000   1.0000   1.0000   1.0000   1.0000   1.0000
     1.0000   1.0000   1.0000   1.0000   1.0000   1.0000   1.0000   1.0000
     1.0000   1.0000   1.0000   1.0000   1.0000   1.0000   1.0000   1.0000
     1.0000   1.0000   1.0000   1.0000   1.0000   1.0000   1.0000   1.0000
     1.0000   1.0000   1.0000   1.0000   1.0000   1.0000   1.0000   1.0000
     1.0000   1.0000   1.0000   1.0000   1.0000   1.0000   1.0000   1.0000
     1.0000   1.0000   1.0000   1.0000   1.0000   1.0000   1.0000   1.0000
     1.0000   1.0000   1.0000   1.0000   1.0000   1.0000   1.0000   1.0000
     1.0000   1.0000   1.0000   1.0000   1.0000   1.0000   1.0000   1.0000
     1.0000   1.0000   1.0000   1.0000   1.0000   1.0000   1.0000   1.0000
     1.0000   1.0000   1.0000   1.0000   1.0000   1.0000   1.0000   1.0000
     1.0000   1.0000   1.0000   1.0000   1.0000   1.0000   1.0000   1.0000
     1.0000   1.0000   1.0000   1.0000   1.0000   1.0000   1.0000   1.0000
     1.0000   1.0000   1.0000   1.0000   1.0000   1.0000   1.0000   1.0000
     1.0000   1.0000   1.0000   1.0000   1.0000   1.0000   1.0000   1.0000
     1.0000   1.0000   1.0000   1.0000   1.0000   1.0000   1.0000   1.0000
     1.0000   1.0000   1.0000   1.0000   1.0000   1.0000   1.0000   1.0000
     1.0000   1.0000   1.0000   1.0000   1.0000   1.0000   1.0000   1.0000
     1.0000   1.0000   1.0000   1.0000   1.0000   1.0000   1.0000   1.0000
     1.0000   1.0000   1.0000   1.0000   1.0000   1.0000   1.0000   1.0000
     1.0000   1.0000   1.0000   1.0000   1.0000   1.0000   1.0000   1.0000
     1.0000   1.0000   1.0000   1.0000   1.0000   1.0000   1.0000   1.0000
     1.0000   1.0000   1.0000   1.0000   1.0002   1.0040   1.0513   1.0519
     1.0831   1.0820   1.0665   1.0652   1.0475   0.4137   0.3934   0.3073
     0.2992   0.1701   0.1689   0.0735   0.0000   0.0000   0.0000   0.0000
     0.0000   0.0000   0.0000   0.0000   0.0000   0.0000   0.0000   0.0000
     0.0000   0.0000   0.0000   0.0000   0.0000   0.0000   0.0000   0.0000
     0.0000   0.0000   0.0000   0.0000   0.0000   0.0000   0.0000   0.0000
     0.0000   0.0000   0.0000   0.0000   0.0000   0.0000   0.0000   0.0000
     0.0000   0.0000   0.0000   0.0000   0.0000   0.0000   0.0000   0.0000
     0.0000   0.0000   0.0000   0.0000   0.0000   0.0000   0.0000   0.0000
     0.0000   0.0000   0.0000   0.0000   0.0000   0.0000   0.0000   0.0000
     0.0000   0.0000   0.0000   0.0000   0.0000   0.0000   0.0000   0.0000
     0.0000   0.0000   0.0000   0.0000   0.0000   0.0000   0.0000   0.0000
     0.0000   0.0000   0.0000   0.0000   0.0000   0.0000   0.0000   0.0000
     0.0000   0.0000   0.0000   0.0000   0.0000   0.0000   0.0000   0.0000
     0.0000   0.0000   0.0000   0.0000   0.0000   0.0000   0.0000   0.0000
     0.0000   0.0000   0.0000   0.0000   0.0000   0.0000   0.0000   0.0000
     0.0000   0.0000   0.0000   0.0000   0.0000   0.0000   0.0000   0.0000
     0.0000   0.0000   0.0000   0.0000   0.0000   0.0000   0.0000   0.0000
     0.0000   0.0000

          k = 0.0000-0.5442-0.2769 ( 46780 PWs)   bands (ev):

  -123.8398-123.8393-123.8386-123.8386-123.8380-123.8379-123.8377-123.8369
  -123.7570-123.7559-123.7551-123.7550-123.7544-123.7543-123.7533-123.7526
  -123.7410-123.7405-123.7401-123.7400-123.7396-123.7395-123.7391-123.7388
  -123.7263-123.7247-123.7244-123.7224-123.7223-123.7218-123.7213-123.7205
  -123.6875-123.6865-123.6854-123.6848-123.6826-123.6822-123.6817-123.6813
  -123.6616-123.6593-123.6492-123.6483-123.6467-123.6463-123.6459-123.6455
  -123.5604-123.5591-123.5585-123.5576-123.5564-123.5551-123.5546-123.5540
  -123.5398-123.5363-123.5358-123.5300-123.5277-123.5269-123.5259-123.5254
   -77.9412 -77.9404 -77.9396 -77.9389 -77.9330 -77.9323 -77.9314 -77.9310
   -77.9306 -77.9302 -77.9286 -77.9278 -77.9214 -77.9207 -77.9192 -77.9186
   -77.9184 -77.9182 -77.9177 -77.9175 -77.9169 -77.9163 -77.9149 -77.9141
   -77.8615 -77.8604 -77.8596 -77.8584 -77.8485 -77.8474 -77.8440 -77.8429
   -77.8428 -77.8427 -77.8423 -77.8417 -77.8414 -77.8405 -77.8396 -77.8391
   -77.8386 -77.8381 -77.8378 -77.8376 -77.8373 -77.8373 -77.8366 -77.8365
   -77.8363 -77.8356 -77.8351 -77.8349 -77.8346 -77.8343 -77.8342 -77.8338
   -77.8336 -77.8334 -77.8329 -77.8328 -77.8280 -77.8274 -77.8247 -77.8241
   -77.8234 -77.8231 -77.8225 -77.8221 -77.8212 -77.8206 -77.8204 -77.8189
   -77.8188 -77.8184 -77.8177 -77.8171 -77.8166 -77.8156 -77.8151 -77.8148
   -77.8138 -77.8130 -77.8129 -77.8124 -77.8110 -77.8104 -77.8097 -77.8079
   -77.8061 -77.8055 -77.8043 -77.8031 -77.7962 -77.7942 -77.7926 -77.7919
   -77.7877 -77.7867 -77.7857 -77.7852 -77.7828 -77.7825 -77.7817 -77.7814
   -77.7796 -77.7783 -77.7750 -77.7745 -77.7701 -77.7691 -77.7675 -77.7663
   -77.7631 -77.7626 -77.7617 -77.7614 -77.7588 -77.7580 -77.7573 -77.7564
   -77.7557 -77.7539 -77.7536 -77.7487 -77.7460 -77.7455 -77.7444 -77.7438
   -77.7437 -77.7434 -77.7425 -77.7415 -77.7412 -77.7408 -77.7345 -77.7334
   -77.7320 -77.7297 -77.7294 -77.7290 -77.7282 -77.7253 -77.7220 -77.7215
   -77.6635 -77.6623 -77.6615 -77.6606 -77.6595 -77.6582 -77.6573 -77.6565
   -77.6508 -77.6494 -77.6467 -77.6459 -77.6457 -77.6452 -77.6447 -77.6427
   -77.6421 -77.6414 -77.6413 -77.6383 -77.6374 -77.6366 -77.6362 -77.6357
   -77.6336 -77.6327 -77.6315 -77.6307 -77.6289 -77.6276 -77.6265 -77.6252
   -77.6245 -77.6238 -77.6223 -77.6204 -77.6200 -77.6160 -77.6151 -77.6148
   -77.6108 -77.6094 -77.6093 -77.6088 -77.6043 -77.5994 -77.5943 -77.5932
   -16.3783 -14.9747 -14.0901 -11.6778 -11.6039  -8.6973  -8.4199  -6.6346
    -6.6336  -6.4819  -6.1070  -5.9763  -5.8358  -5.8355  -5.6509  -5.6503
    -5.5022  -5.5021  -5.3368  -5.3361  -5.3023  -5.3017  -5.2990  -5.2985
    -5.2976  -5.2968  -5.2673  -5.2670  -5.2616  -5.2609  -5.2529  -5.2521
    -5.2480  -5.2472  -5.2259  -5.2255  -5.2234  -5.2228  -5.2080  -5.2075
    -5.2004  -5.1995  -5.1761  -5.1760  -5.1690  -5.1687  -5.1304  -5.1286
    -5.1280  -5.1274  -5.1129  -5.1125  -5.1001  -5.0999  -5.0908  -5.0897
    -5.0603  -5.0593  -5.0553  -5.0541  -5.0536  -5.0530  -5.0510  -5.0503
    -5.0366  -5.0357  -5.0288  -5.0284  -5.0215  -5.0209  -5.0013  -5.0010
    -5.0005  -4.9998  -4.9995  -4.9984  -4.9801  -4.9793  -4.9622  -4.9619
    -4.9601  -4.9599  -4.9379  -4.9361  -4.9297  -4.9295  -4.9287  -4.9278
    -4.9109  -4.9100  -4.9095  -4.9092  -4.8944  -4.8928  -4.8914  -4.8907
    -4.8859  -4.8849  -4.8813  -4.8804  -4.8677  -4.8671  -4.8625  -4.8618
    -4.8236  -4.8229  -4.8138  -4.8127  -4.7913  -4.7908  -4.7864  -4.7845
    -4.7818  -4.7806  -4.7692  -4.7688  -4.7597  -4.7592  -4.7582  -4.7578
    -4.7557  -4.7553  -4.7300  -4.7290  -4.7248  -4.7237  -4.7209  -4.7203
    -4.7150  -4.7146  -4.7059  -4.7057  -4.6958  -4.6950  -4.6764  -4.6762
    -4.6609  -4.6604  -4.6506  -4.6504  -4.6500  -4.6497  -4.6467  -4.6464
    -4.6303  -4.6288  -4.6190  -4.6178  -4.6109  -4.6103  -4.6014  -4.6007
    -4.5924  -4.5919  -4.5755  -4.5748  -4.5666  -4.5662  -4.5631  -4.5628
    -4.5606  -4.5603  -4.5462  -4.5458  -4.5351  -4.5346  -4.5159  -4.5156
    -4.5151  -4.5149  -4.5119  -4.5114  -4.4936  -4.4933  -4.4788  -4.4783
    -4.4700  -4.4695  -4.4602  -4.4592  -4.4588  -4.4581  -4.4504  -4.4500
    -4.4431  -4.4423  -4.4358  -4.4354  -4.4340  -4.4334  -4.4207  -4.4204
    -4.4064  -4.4058  -4.4055  -4.4048  -4.4040  -4.4037  -4.4002  -4.3992
    -4.3881  -4.3880  -4.3838  -4.3834  -4.3824  -4.3824  -4.3722  -4.3720
    -4.3708  -4.3703  -4.3562  -4.3551  -4.3543  -4.3541  -4.3390  -4.3386
    -4.3345  -4.3339  -4.3317  -4.3312  -4.3274  -4.3270  -4.3061  -4.3054
    -4.2989  -4.2984  -4.2981  -4.2975  -4.2973  -4.2969  -4.2748  -4.2731
    -4.2634  -4.2624  -4.2619  -4.2614  -4.2607  -4.2604  -4.2404  -4.2402
    -4.2369  -4.2365  -4.2365  -4.2361  -4.2290  -4.2283  -4.2277  -4.2270
    -4.2137  -4.2134  -4.2111  -4.2102  -4.2065  -4.2064  -4.1953  -4.1944
    -4.1893  -4.1892  -4.1815  -4.1809  -4.1759  -4.1756  -4.1659  -4.1652
    -4.1636  -4.1630  -4.1590  -4.1588  -4.1488  -4.1483  -4.1453  -4.1449
    -4.1402  -4.1398  -4.1356  -4.1352  -4.1299  -4.1296  -4.1225  -4.1221
    -4.1210  -4.1202  -4.1177  -4.1172  -4.1059  -4.1052  -4.1007  -4.1000
    -4.0999  -4.0995  -4.0961  -4.0959  -4.0887  -4.0886  -4.0872  -4.0871
    -4.0867  -4.0866  -4.0687  -4.0681  -4.0660  -4.0651  -4.0639  -4.0633
    -4.0598  -4.0592  -4.0584  -4.0580  -4.0533  -4.0526  -4.0508  -4.0505
    -4.0374  -4.0371  -4.0329  -4.0318  -4.0240  -4.0232  -4.0200  -4.0187
    -4.0166  -4.0164  -4.0065  -4.0061  -3.9992  -3.9985  -3.9830  -3.9822
    -3.9787  -3.9784  -3.9735  -3.9731  -3.9705  -3.9687  -3.9516  -3.9507
    -3.9031  -3.8302  -3.8299  -3.7624  -3.5848  -3.5843  -3.3312  -3.0783
    -3.0770  -2.9489  -2.9488  -2.8447  -2.7584  -2.7539  -2.6727  -2.6726
    -2.5774  -1.9619  -1.9614  -1.8111  -1.8078  -1.6939  -1.6314  -1.6288
    -1.4743  -1.2359  -1.2355  -1.0927  -1.0905  -0.8108  -0.7404  -0.7401
    -0.4929  -0.3074  -0.2978  -0.2503  -0.0574  -0.0509   0.0540   0.0567
     0.1530   0.1538   0.2530   0.2541   0.2572   0.2577   0.5268   0.5365
     0.5423   0.7697   0.7769   1.1309   1.1325   1.3823   1.3832   1.4365
     1.4445   1.8655   1.8909   1.9281   2.2669   2.2767   2.2948   2.2968
     2.4622   2.4666   2.7031   2.7047   3.0124   3.0148   3.0446   3.0458
     3.2574   3.2652   3.2676   3.2736   3.3267   3.3299   4.0303   4.0348
     4.0515   4.0621   4.2229   4.2248   4.2910   4.2955   4.7092   4.7110
     4.9057   4.9108   5.1770   5.1773   5.2688   5.2725   5.3531   5.3903
     5.4262   5.4359   5.5073   5.5919   5.6002   5.6179   5.6612   5.6990
     5.8720   5.8763   5.8827   5.9033   6.0069   6.0125   6.0390   6.0688
     6.1565   6.1568   6.1779   6.1970   6.2254   6.2272   6.2346   6.3068
     6.3093   6.4442   6.5709   6.6594   6.6678   6.6724   6.9331   6.9780
     7.0362   7.0384   7.1199   7.1236   7.1258   7.1467   7.2342   7.2524
     7.2818   7.2917   7.3529   7.5407   7.5502   7.6579   7.7650   7.8112
     7.8424   7.8994   7.9037   7.9571   7.9756   8.0084   8.0305   8.0688
     8.0983   8.1135   8.1492   8.1749   8.1912   8.2843   8.3675   8.4042
     8.4217   8.5229   8.5745   8.6469   8.6728   8.7538   8.7941   8.8042
     8.8224   8.8503   8.8936   8.9007   9.0009   9.1020   9.1157   9.1233
     9.1383   9.1848   9.3097   9.3200   9.3609   9.3734   9.4902   9.5151
     9.6215   9.6544   9.7697   9.8088   9.9150   9.9769   9.9806  10.0373
    10.0582  10.1184  10.1650  10.2517  10.2778  10.3301  10.3613  10.3966
    10.4280  10.4726

     occupation numbers 
     1.0000   1.0000   1.0000   1.0000   1.0000   1.0000   1.0000   1.0000
     1.0000   1.0000   1.0000   1.0000   1.0000   1.0000   1.0000   1.0000
     1.0000   1.0000   1.0000   1.0000   1.0000   1.0000   1.0000   1.0000
     1.0000   1.0000   1.0000   1.0000   1.0000   1.0000   1.0000   1.0000
     1.0000   1.0000   1.0000   1.0000   1.0000   1.0000   1.0000   1.0000
     1.0000   1.0000   1.0000   1.0000   1.0000   1.0000   1.0000   1.0000
     1.0000   1.0000   1.0000   1.0000   1.0000   1.0000   1.0000   1.0000
     1.0000   1.0000   1.0000   1.0000   1.0000   1.0000   1.0000   1.0000
     1.0000   1.0000   1.0000   1.0000   1.0000   1.0000   1.0000   1.0000
     1.0000   1.0000   1.0000   1.0000   1.0000   1.0000   1.0000   1.0000
     1.0000   1.0000   1.0000   1.0000   1.0000   1.0000   1.0000   1.0000
     1.0000   1.0000   1.0000   1.0000   1.0000   1.0000   1.0000   1.0000
     1.0000   1.0000   1.0000   1.0000   1.0000   1.0000   1.0000   1.0000
     1.0000   1.0000   1.0000   1.0000   1.0000   1.0000   1.0000   1.0000
     1.0000   1.0000   1.0000   1.0000   1.0000   1.0000   1.0000   1.0000
     1.0000   1.0000   1.0000   1.0000   1.0000   1.0000   1.0000   1.0000
     1.0000   1.0000   1.0000   1.0000   1.0000   1.0000   1.0000   1.0000
     1.0000   1.0000   1.0000   1.0000   1.0000   1.0000   1.0000   1.0000
     1.0000   1.0000   1.0000   1.0000   1.0000   1.0000   1.0000   1.0000
     1.0000   1.0000   1.0000   1.0000   1.0000   1.0000   1.0000   1.0000
     1.0000   1.0000   1.0000   1.0000   1.0000   1.0000   1.0000   1.0000
     1.0000   1.0000   1.0000   1.0000   1.0000   1.0000   1.0000   1.0000
     1.0000   1.0000   1.0000   1.0000   1.0000   1.0000   1.0000   1.0000
     1.0000   1.0000   1.0000   1.0000   1.0000   1.0000   1.0000   1.0000
     1.0000   1.0000   1.0000   1.0000   1.0000   1.0000   1.0000   1.0000
     1.0000   1.0000   1.0000   1.0000   1.0000   1.0000   1.0000   1.0000
     1.0000   1.0000   1.0000   1.0000   1.0000   1.0000   1.0000   1.0000
     1.0000   1.0000   1.0000   1.0000   1.0000   1.0000   1.0000   1.0000
     1.0000   1.0000   1.0000   1.0000   1.0000   1.0000   1.0000   1.0000
     1.0000   1.0000   1.0000   1.0000   1.0000   1.0000   1.0000   1.0000
     1.0000   1.0000   1.0000   1.0000   1.0000   1.0000   1.0000   1.0000
     1.0000   1.0000   1.0000   1.0000   1.0000   1.0000   1.0000   1.0000
     1.0000   1.0000   1.0000   1.0000   1.0000   1.0000   1.0000   1.0000
     1.0000   1.0000   1.0000   1.0000   1.0000   1.0000   1.0000   1.0000
     1.0000   1.0000   1.0000   1.0000   1.0000   1.0000   1.0000   1.0000
     1.0000   1.0000   1.0000   1.0000   1.0000   1.0000   1.0000   1.0000
     1.0000   1.0000   1.0000   1.0000   1.0000   1.0000   1.0000   1.0000
     1.0000   1.0000   1.0000   1.0000   1.0000   1.0000   1.0000   1.0000
     1.0000   1.0000   1.0000   1.0000   1.0000   1.0000   1.0000   1.0000
     1.0000   1.0000   1.0000   1.0000   1.0000   1.0000   1.0000   1.0000
     1.0000   1.0000   1.0000   1.0000   1.0000   1.0000   1.0000   1.0000
     1.0000   1.0000   1.0000   1.0000   1.0000   1.0000   1.0000   1.0000
     1.0000   1.0000   1.0000   1.0000   1.0000   1.0000   1.0000   1.0000
     1.0000   1.0000   1.0000   1.0000   1.0000   1.0000   1.0000   1.0000
     1.0000   1.0000   1.0000   1.0000   1.0000   1.0000   1.0000   1.0000
     1.0000   1.0000   1.0000   1.0000   1.0000   1.0000   1.0000   1.0000
     1.0000   1.0000   1.0000   1.0000   1.0000   1.0000   1.0000   1.0000
     1.0000   1.0000   1.0000   1.0000   1.0000   1.0000   1.0000   1.0000
     1.0000   1.0000   1.0000   1.0000   1.0000   1.0000   1.0000   1.0000
     1.0000   1.0000   1.0000   1.0000   1.0000   1.0000   1.0000   1.0000
     1.0000   1.0000   1.0000   1.0000   1.0000   1.0000   1.0000   1.0000
     1.0000   1.0000   1.0000   1.0000   1.0000   1.0000   1.0000   1.0000
     1.0000   1.0000   1.0000   1.0000   1.0000   1.0000   1.0000   1.0000
     1.0000   1.0000   1.0000   1.0000   1.0000   1.0000   1.0000   1.0000
     1.0000   1.0000   1.0000   1.0000   1.0000   1.0000   1.0000   1.0000
     1.0000   1.0000   1.0000   1.0000   1.0000   1.0000   1.0000   1.0000
     1.0000   1.0000   1.0000   1.0000   1.0000   1.0000   1.0000   1.0000
     1.0000   1.0000   1.0000   1.0000   1.0000   1.0000   1.0000   1.0000
     1.0000   1.0000   1.0000   1.0000   1.0000   1.0000   1.0000   1.0000
     1.0000   1.0000   1.0000   1.0000   1.0000   1.0000   1.0000   1.0000
     1.0000   1.0000   1.0000   1.0000   1.0000   1.0000   1.0000   1.0000
     1.0000   1.0000   1.0000   1.0000   1.0000   1.0000   1.0000   1.0000
     1.0000   1.0000   1.0000   1.0000   1.0000   1.0000   1.0000   1.0000
     1.0000   1.0000   1.0000   1.0000   1.0000   1.0000   1.0000   1.0000
     1.0000   1.0000   1.0000   1.0000   1.0000   1.0000   1.0000   1.0000
     1.0000   1.0000   1.0000   1.0000   1.0000   1.0000   1.0000   1.0000
     1.0000   1.0000   1.0000   1.0000   1.0000   1.0000   1.0000   1.0000
     1.0000   1.0000   1.0000   1.0000   1.0000   1.0000   1.0000   1.0000
     1.0000   1.0000   1.0000   1.0000   1.0000   1.0000   1.0000   1.0000
     1.0000   1.0000   1.0000   1.0000   1.0000   1.0000   1.0000   1.0000
     1.0000   1.0000   1.0000   1.0000   1.0000   1.0000   1.0000   1.0000
     1.0000   1.0000   1.0000   1.0000   1.0000   1.0000   1.0000   1.0000
     1.0000   1.0000   1.0000   1.0000   1.0000   1.0000   1.0000   1.0000
     1.0000   1.0000   1.0000   1.0000   1.0000   1.0000   1.0000   1.0000
     1.0000   1.0000   1.0000   1.0000   1.0000   1.0000   1.0000   1.0000
     1.0000   1.0000   1.0000   1.0000   1.0000   1.0000   1.0000   1.0000
     1.0000   1.0000   1.0000   1.0000   1.0000   1.0000   1.0000   1.0000
     1.0000   1.0000   1.0000   1.0000   1.0000   1.0000   1.0000   1.0000
     1.0000   1.0000   1.0000   1.0000   1.0000   1.0000   1.0000   1.0000
     1.0000   1.0000   1.0000   1.0000   1.0000   1.0000   1.0000   1.0000
     1.0000   1.0000   1.0000   1.0000   1.0000   1.0000   1.0000   1.0000
     1.0000   1.0001   1.0002   1.0003   1.0346   1.0376   1.0434   1.0440
     1.0826   1.0821   0.7499   0.7456   0.0879   0.0857   0.0615   0.0607
     0.0030   0.0026   0.0025   0.0023   0.0009   0.0008   0.0000   0.0000
     0.0000   0.0000   0.0000   0.0000   0.0000   0.0000   0.0000   0.0000
     0.0000   0.0000   0.0000   0.0000   0.0000   0.0000   0.0000   0.0000
     0.0000   0.0000   0.0000   0.0000   0.0000   0.0000   0.0000   0.0000
     0.0000   0.0000   0.0000   0.0000   0.0000   0.0000   0.0000   0.0000
     0.0000   0.0000   0.0000   0.0000   0.0000   0.0000   0.0000   0.0000
     0.0000   0.0000   0.0000   0.0000   0.0000   0.0000   0.0000   0.0000
     0.0000   0.0000   0.0000   0.0000   0.0000   0.0000   0.0000   0.0000
     0.0000   0.0000   0.0000   0.0000   0.0000   0.0000   0.0000   0.0000
     0.0000   0.0000   0.0000   0.0000   0.0000   0.0000   0.0000   0.0000
     0.0000   0.0000   0.0000   0.0000   0.0000   0.0000   0.0000   0.0000
     0.0000   0.0000   0.0000   0.0000   0.0000   0.0000   0.0000   0.0000
     0.0000   0.0000   0.0000   0.0000   0.0000   0.0000   0.0000   0.0000
     0.0000   0.0000   0.0000   0.0000   0.0000   0.0000   0.0000   0.0000
     0.0000   0.0000   0.0000   0.0000   0.0000   0.0000   0.0000   0.0000
     0.0000   0.0000   0.0000   0.0000   0.0000   0.0000   0.0000   0.0000
     0.0000   0.0000

          k =-0.5000-0.1216-1.1076 ( 46770 PWs)   bands (ev):

  -123.8397-123.8392-123.8388-123.8383-123.8381-123.8379-123.8375-123.8370
  -123.7570-123.7558-123.7553-123.7548-123.7545-123.7543-123.7532-123.7527
  -123.7408-123.7404-123.7403-123.7399-123.7397-123.7393-123.7392-123.7389
  -123.7261-123.7248-123.7242-123.7224-123.7222-123.7217-123.7213-123.7205
  -123.6875-123.6865-123.6852-123.6848-123.6827-123.6822-123.6816-123.6813
  -123.6615-123.6593-123.6491-123.6482-123.6468-123.6463-123.6458-123.6455
  -123.5603-123.5591-123.5583-123.5575-123.5564-123.5552-123.5544-123.5541
  -123.5398-123.5364-123.5356-123.5299-123.5277-123.5269-123.5257-123.5255
   -77.9483 -77.9474 -77.9329 -77.9320 -77.9315 -77.9310 -77.9304 -77.9303
   -77.9300 -77.9293 -77.9279 -77.9277 -77.9236 -77.9236 -77.9196 -77.9189
   -77.9188 -77.9180 -77.9176 -77.9174 -77.9164 -77.9163 -77.9143 -77.9134
   -77.8683 -77.8668 -77.8486 -77.8479 -77.8459 -77.8452 -77.8448 -77.8445
   -77.8441 -77.8437 -77.8436 -77.8426 -77.8425 -77.8420 -77.8417 -77.8412
   -77.8409 -77.8405 -77.8384 -77.8376 -77.8370 -77.8368 -77.8365 -77.8363
   -77.8361 -77.8360 -77.8358 -77.8357 -77.8356 -77.8353 -77.8349 -77.8346
   -77.8344 -77.8341 -77.8264 -77.8258 -77.8257 -77.8249 -77.8247 -77.8242
   -77.8236 -77.8235 -77.8232 -77.8230 -77.8226 -77.8222 -77.8211 -77.8209
   -77.8207 -77.8195 -77.8192 -77.8189 -77.8188 -77.8175 -77.8171 -77.8168
   -77.8111 -77.8096 -77.8093 -77.8085 -77.8083 -77.8079 -77.8074 -77.8067
   -77.8061 -77.8056 -77.8032 -77.8031 -77.7983 -77.7978 -77.7901 -77.7881
   -77.7873 -77.7872 -77.7863 -77.7859 -77.7854 -77.7833 -77.7828 -77.7822
   -77.7821 -77.7818 -77.7689 -77.7679 -77.7670 -77.7666 -77.7662 -77.7661
   -77.7640 -77.7640 -77.7626 -77.7623 -77.7608 -77.7599 -77.7599 -77.7583
   -77.7563 -77.7538 -77.7513 -77.7497 -77.7456 -77.7450 -77.7444 -77.7435
   -77.7429 -77.7424 -77.7423 -77.7417 -77.7396 -77.7368 -77.7331 -77.7325
   -77.7308 -77.7306 -77.7299 -77.7295 -77.7285 -77.7283 -77.7229 -77.7172
   -77.6638 -77.6623 -77.6616 -77.6607 -77.6599 -77.6583 -77.6576 -77.6575
   -77.6568 -77.6538 -77.6451 -77.6441 -77.6430 -77.6423 -77.6420 -77.6418
   -77.6413 -77.6405 -77.6392 -77.6387 -77.6385 -77.6361 -77.6359 -77.6357
   -77.6335 -77.6326 -77.6320 -77.6317 -77.6313 -77.6308 -77.6306 -77.6245
   -77.6239 -77.6231 -77.6207 -77.6202 -77.6200 -77.6143 -77.6124 -77.6117
   -77.6110 -77.6105 -77.6091 -77.6088 -77.6008 -77.6005 -77.5966 -77.5892
   -16.3783 -14.9747 -14.0901 -11.6777 -11.6040  -8.6973  -8.4199  -6.6992
    -6.6977  -6.4822  -6.1067  -5.9769  -5.7534  -5.7512  -5.6805  -5.6804
    -5.5212  -5.5204  -5.3891  -5.3882  -5.3698  -5.3693  -5.3598  -5.3582
    -5.3577  -5.3577  -5.3090  -5.3088  -5.2769  -5.2764  -5.2661  -5.2634
    -5.2554  -5.2551  -5.2079  -5.2078  -5.1807  -5.1800  -5.1561  -5.1560
    -5.1402  -5.1397  -5.1396  -5.1368  -5.1244  -5.1244  -5.1157  -5.1156
    -5.0925  -5.0919  -5.0738  -5.0737  -5.0689  -5.0689  -5.0678  -5.0669
    -5.0569  -5.0560  -5.0491  -5.0490  -5.0435  -5.0435  -5.0295  -5.0268
    -5.0131  -5.0113  -5.0106  -5.0106  -4.9960  -4.9959  -4.9850  -4.9832
    -4.9789  -4.9789  -4.9657  -4.9657  -4.9552  -4.9549  -4.9467  -4.9445
    -4.9398  -4.9396  -4.9315  -4.9315  -4.9244  -4.9221  -4.9151  -4.9140
    -4.9129  -4.9128  -4.9076  -4.9075  -4.8841  -4.8840  -4.8728  -4.8718
    -4.8553  -4.8552  -4.8529  -4.8524  -4.8505  -4.8504  -4.8358  -4.8357
    -4.8341  -4.8340  -4.8151  -4.8149  -4.7942  -4.7942  -4.7892  -4.7882
    -4.7681  -4.7654  -4.7631  -4.7631  -4.7618  -4.7611  -4.7528  -4.7527
    -4.7500  -4.7495  -4.7436  -4.7422  -4.7406  -4.7406  -4.7313  -4.7312
    -4.6965  -4.6956  -4.6952  -4.6951  -4.6840  -4.6838  -4.6564  -4.6539
    -4.6527  -4.6510  -4.6509  -4.6505  -4.6149  -4.6148  -4.6119  -4.6118
    -4.6023  -4.6021  -4.5958  -4.5936  -4.5928  -4.5928  -4.5752  -4.5751
    -4.5658  -4.5657  -4.5625  -4.5625  -4.5582  -4.5580  -4.5458  -4.5453
    -4.5353  -4.5352  -4.5247  -4.5230  -4.5227  -4.5226  -4.5142  -4.5142
    -4.5121  -4.5121  -4.5110  -4.5110  -4.5069  -4.5050  -4.4952  -4.4951
    -4.4928  -4.4915  -4.4849  -4.4835  -4.4743  -4.4743  -4.4737  -4.4737
    -4.4661  -4.4656  -4.4589  -4.4588  -4.4350  -4.4349  -4.4321  -4.4321
    -4.4313  -4.4305  -4.4278  -4.4267  -4.4109  -4.4107  -4.4097  -4.4093
    -4.3901  -4.3886  -4.3797  -4.3793  -4.3789  -4.3765  -4.3679  -4.3665
    -4.3609  -4.3608  -4.3533  -4.3533  -4.3519  -4.3518  -4.3510  -4.3493
    -4.3482  -4.3481  -4.3392  -4.3391  -4.3356  -4.3333  -4.3212  -4.3212
    -4.3111  -4.3110  -4.3083  -4.3051  -4.3048  -4.3046  -4.2974  -4.2968
    -4.2935  -4.2934  -4.2910  -4.2909  -4.2805  -4.2805  -4.2789  -4.2783
    -4.2695  -4.2695  -4.2605  -4.2572  -4.2558  -4.2558  -4.2536  -4.2534
    -4.2531  -4.2494  -4.2453  -4.2438  -4.2434  -4.2403  -4.2295  -4.2294
    -4.2174  -4.2165  -4.2158  -4.2148  -4.2144  -4.2135  -4.2080  -4.2071
    -4.2048  -4.2038  -4.1763  -4.1762  -4.1690  -4.1689  -4.1601  -4.1600
    -4.1599  -4.1580  -4.1499  -4.1497  -4.1478  -4.1477  -4.1384  -4.1384
    -4.1254  -4.1230  -4.1229  -4.1228  -4.1187  -4.1165  -4.1148  -4.1147
    -4.1136  -4.1131  -4.1039  -4.1036  -4.0979  -4.0978  -4.0919  -4.0910
    -4.0823  -4.0821  -4.0755  -4.0738  -4.0736  -4.0735  -4.0729  -4.0701
    -4.0593  -4.0593  -4.0469  -4.0469  -4.0407  -4.0398  -4.0391  -4.0368
    -4.0344  -4.0343  -4.0293  -4.0292  -4.0159  -4.0136  -4.0054  -4.0038
    -4.0031  -4.0012  -3.9750  -3.9724  -3.9723  -3.9697  -3.9423  -3.9403
    -3.9390  -3.9384  -3.9172  -3.9104  -3.9053  -3.8931  -3.8911  -3.8588
    -3.8569  -3.8393  -3.8353  -3.7628  -3.6296  -3.6290  -3.3301  -3.2105
    -3.2102  -3.0471  -3.0461  -2.8782  -2.8563  -2.8182  -2.7844  -2.7831
    -2.5795  -2.1839  -2.1812  -1.7585  -1.7548  -1.7330  -1.7215  -1.6785
    -1.4724  -1.0277  -1.0271  -0.8276  -0.8275  -0.8109  -0.6437  -0.6436
    -0.4923  -0.3874  -0.3648  -0.2564  -0.0049   0.0083   0.2741   0.2745
     0.2935   0.2945   0.3023   0.3046   0.5328   0.5523   0.5550   0.6253
     0.6263   0.8675   0.8712   1.4350   1.4427   1.5394   1.5414   1.6152
     1.6176   1.7467   1.7487   1.7924   1.8252   1.9146   2.1026   2.1031
     2.4823   2.4944   2.5126   2.5147   2.5968   2.6036   2.8284   2.8358
     2.9452   2.9457   3.2477   3.2519   3.5338   3.5477   3.5850   3.5863
     3.8352   3.8368   4.1540   4.1631   4.7016   4.7046   4.7143   4.7316
     4.8113   4.8156   4.9088   4.9100   5.0714   5.0718   5.0913   5.1020
     5.1523   5.1555   5.2574   5.3186   5.5077   5.5120   5.5270   5.6269
     5.6559   5.6718   5.6902   5.7122   6.0164   6.0174   6.0556   6.2145
     6.2182   6.2277   6.3497   6.3510   6.3733   6.4444   6.5851   6.6007
     6.6661   6.6668   6.6793   6.8226   6.9253   6.9653   7.2182   7.2598
     7.2916   7.3011   7.3135   7.3923   7.4765   7.4822   7.4925   7.5035
     7.5565   7.5817   7.6078   7.6565   7.6840   7.7679   7.7704   7.8303
     7.9484   8.0247   8.0460   8.0699   8.0771   8.1399   8.2159   8.2324
     8.2506   8.2596   8.2783   8.2965   8.3531   8.4085   8.4565   8.4614
     8.4724   8.5317   8.6132   8.6237   8.6344   8.6658   8.6857   8.8698
     8.9410   8.9973   9.0902   9.1047   9.1228   9.1714   9.2238   9.2973
     9.3066   9.3317   9.3862   9.4782   9.5278   9.5393   9.6202   9.6603
     9.6666   9.6806   9.7358   9.7483   9.7925   9.8817   9.9482   9.9893
    10.0040  10.0362  10.0517  10.0907  10.1494  10.2049  10.2518  10.2869
    10.3031  10.3184

     occupation numbers 
     1.0000   1.0000   1.0000   1.0000   1.0000   1.0000   1.0000   1.0000
     1.0000   1.0000   1.0000   1.0000   1.0000   1.0000   1.0000   1.0000
     1.0000   1.0000   1.0000   1.0000   1.0000   1.0000   1.0000   1.0000
     1.0000   1.0000   1.0000   1.0000   1.0000   1.0000   1.0000   1.0000
     1.0000   1.0000   1.0000   1.0000   1.0000   1.0000   1.0000   1.0000
     1.0000   1.0000   1.0000   1.0000   1.0000   1.0000   1.0000   1.0000
     1.0000   1.0000   1.0000   1.0000   1.0000   1.0000   1.0000   1.0000
     1.0000   1.0000   1.0000   1.0000   1.0000   1.0000   1.0000   1.0000
     1.0000   1.0000   1.0000   1.0000   1.0000   1.0000   1.0000   1.0000
     1.0000   1.0000   1.0000   1.0000   1.0000   1.0000   1.0000   1.0000
     1.0000   1.0000   1.0000   1.0000   1.0000   1.0000   1.0000   1.0000
     1.0000   1.0000   1.0000   1.0000   1.0000   1.0000   1.0000   1.0000
     1.0000   1.0000   1.0000   1.0000   1.0000   1.0000   1.0000   1.0000
     1.0000   1.0000   1.0000   1.0000   1.0000   1.0000   1.0000   1.0000
     1.0000   1.0000   1.0000   1.0000   1.0000   1.0000   1.0000   1.0000
     1.0000   1.0000   1.0000   1.0000   1.0000   1.0000   1.0000   1.0000
     1.0000   1.0000   1.0000   1.0000   1.0000   1.0000   1.0000   1.0000
     1.0000   1.0000   1.0000   1.0000   1.0000   1.0000   1.0000   1.0000
     1.0000   1.0000   1.0000   1.0000   1.0000   1.0000   1.0000   1.0000
     1.0000   1.0000   1.0000   1.0000   1.0000   1.0000   1.0000   1.0000
     1.0000   1.0000   1.0000   1.0000   1.0000   1.0000   1.0000   1.0000
     1.0000   1.0000   1.0000   1.0000   1.0000   1.0000   1.0000   1.0000
     1.0000   1.0000   1.0000   1.0000   1.0000   1.0000   1.0000   1.0000
     1.0000   1.0000   1.0000   1.0000   1.0000   1.0000   1.0000   1.0000
     1.0000   1.0000   1.0000   1.0000   1.0000   1.0000   1.0000   1.0000
     1.0000   1.0000   1.0000   1.0000   1.0000   1.0000   1.0000   1.0000
     1.0000   1.0000   1.0000   1.0000   1.0000   1.0000   1.0000   1.0000
     1.0000   1.0000   1.0000   1.0000   1.0000   1.0000   1.0000   1.0000
     1.0000   1.0000   1.0000   1.0000   1.0000   1.0000   1.0000   1.0000
     1.0000   1.0000   1.0000   1.0000   1.0000   1.0000   1.0000   1.0000
     1.0000   1.0000   1.0000   1.0000   1.0000   1.0000   1.0000   1.0000
     1.0000   1.0000   1.0000   1.0000   1.0000   1.0000   1.0000   1.0000
     1.0000   1.0000   1.0000   1.0000   1.0000   1.0000   1.0000   1.0000
     1.0000   1.0000   1.0000   1.0000   1.0000   1.0000   1.0000   1.0000
[...]
     atom   28 type  1   force =     0.00000000    0.00000000    0.00000000
     atom   29 type  1   force =     0.00000000    0.00000000    0.00000000
     atom   30 type  1   force =     0.00000000    0.00000000    0.00000000
     atom   31 type  1   force =     0.00000000    0.00000000    0.00000000
     atom   32 type  1   force =     0.00000000    0.00000000    0.00000000
     atom   33 type  1   force =     0.00000000    0.00000000    0.00000000
     atom   34 type  1   force =     0.00000000    0.00000000    0.00000000
     atom   35 type  1   force =     0.00000000    0.00000000    0.00000000
     atom   36 type  1   force =     0.00000000    0.00000000    0.00000000
     atom   37 type  1   force =     0.00000000    0.00000000    0.00000000
     atom   38 type  1   force =     0.00000000    0.00000000    0.00000000
     atom   39 type  1   force =     0.00000000    0.00000000    0.00000000
     atom   40 type  1   force =     0.00000000    0.00000000    0.00000000
     atom   41 type  1   force =     0.00000000    0.00000000    0.00000000
     atom   42 type  1   force =     0.00000000    0.00000000    0.00000000
     atom   43 type  1   force =     0.00000000    0.00000000    0.00000000
     atom   44 type  1   force =     0.00000000    0.00000000    0.00000000
     atom   45 type  1   force =     0.00000000    0.00000000    0.00000000
     atom   46 type  1   force =     0.00000000    0.00000000    0.00000000
     atom   47 type  1   force =     0.00000000    0.00000000    0.00000000
     atom   48 type  1   force =     0.00000000    0.00000000    0.00000000
     atom   49 type  1   force =     0.00000000    0.00000000    0.00000000
     atom   50 type  1   force =     0.00000000    0.00000000    0.00000000
     atom   51 type  1   force =     0.00000000    0.00000000    0.00000000
     atom   52 type  1   force =     0.00000000    0.00000000    0.00000000
     atom   53 type  1   force =     0.00000000    0.00000000    0.00000000
     atom   54 type  1   force =     0.00000000    0.00000000    0.00000000
     atom   55 type  1   force =     0.00000000    0.00000000    0.00000000
     atom   56 type  1   force =     0.00000000    0.00000000    0.00000000
     atom   57 type  1   force =     0.00000000    0.00000000    0.00000000
     atom   58 type  1   force =     0.00000000    0.00000000    0.00000000
     atom   59 type  1   force =     0.00000000    0.00000000    0.00000000
     atom   60 type  1   force =     0.00000000    0.00000000    0.00000000
     atom   61 type  1   force =     0.00000000    0.00000000    0.00000000
     atom   62 type  1   force =     0.00000000    0.00000000    0.00000000
     atom   63 type  1   force =     0.00000000    0.00000000    0.00000000
     atom   64 type  1   force =     0.00000000    0.00000000    0.00000000
     atom   65 type  2   force =     0.00701100    0.00045964    0.00664789
     atom   66 type  2   force =     0.00210115    0.00220558    0.00158154
     atom   67 type  2   force =    -0.00313661    0.00110047   -0.00276548
     atom   68 type  2   force =    -0.00103494   -0.00101421   -0.00248826
     atom   69 type  2   force =     0.00355109   -0.00260912   -0.00032376
     atom   70 type  2   force =     0.00066603    0.00356857    0.00280420
     atom   71 type  2   force =    -0.00085267   -0.00011190    0.00058375
     atom   72 type  3   force =     0.00910496    0.00094942    0.01043256
     atom   73 type  3   force =    -0.00014019   -0.00005608   -0.00042295
     atom   74 type  4   force =     0.00000000    0.00000000    0.00000000
     atom   75 type  4   force =     0.00000000    0.00000000    0.00000000
     atom   76 type  4   force =     0.00000000    0.00000000    0.00000000
     atom   77 type  4   force =     0.00000000    0.00000000    0.00000000
     atom   78 type  4   force =     0.00000000    0.00000000    0.00000000
     atom   79 type  4   force =     0.00000000    0.00000000    0.00000000
     The Hubbard contrib.    to forces
     atom    1 type  1   force =     0.00000000    0.00000000    0.00000000
     atom    2 type  1   force =     0.00000000    0.00000000    0.00000000
     atom    3 type  1   force =     0.00000000    0.00000000    0.00000000
     atom    4 type  1   force =     0.00000000    0.00000000    0.00000000
     atom    5 type  1   force =     0.00000000    0.00000000    0.00000000
     atom    6 type  1   force =     0.00000000    0.00000000    0.00000000
     atom    7 type  1   force =     0.00000000    0.00000000    0.00000000
     atom    8 type  1   force =     0.00000000    0.00000000    0.00000000
     atom    9 type  1   force =     0.00000000    0.00000000    0.00000000
     atom   10 type  1   force =     0.00000000    0.00000000    0.00000000
     atom   11 type  1   force =     0.00000000    0.00000000    0.00000000
     atom   12 type  1   force =     0.00000000    0.00000000    0.00000000
     atom   13 type  1   force =     0.00000000    0.00000000    0.00000000
     atom   14 type  1   force =     0.00000000    0.00000000    0.00000000
     atom   15 type  1   force =     0.00000000    0.00000000    0.00000000
     atom   16 type  1   force =     0.00000000    0.00000000    0.00000000
     atom   17 type  1   force =     0.00000000    0.00000000    0.00000000
     atom   18 type  1   force =     0.00000000    0.00000000    0.00000000
     atom   19 type  1   force =     0.00000000    0.00000000    0.00000000
     atom   20 type  1   force =     0.00000000    0.00000000    0.00000000
     atom   21 type  1   force =     0.00000000    0.00000000    0.00000000
     atom   22 type  1   force =     0.00000000    0.00000000    0.00000000
     atom   23 type  1   force =     0.00000000    0.00000000    0.00000000
     atom   24 type  1   force =     0.00000000    0.00000000    0.00000000
     atom   25 type  1   force =     0.00000000    0.00000000    0.00000000
     atom   26 type  1   force =     0.00000000    0.00000000    0.00000000
     atom   27 type  1   force =     0.00000000    0.00000000    0.00000000
     atom   28 type  1   force =     0.00000000    0.00000000    0.00000000
     atom   29 type  1   force =     0.00000000    0.00000000    0.00000000
     atom   30 type  1   force =     0.00000000    0.00000000    0.00000000
     atom   31 type  1   force =     0.00000000    0.00000000    0.00000000
     atom   32 type  1   force =     0.00000000    0.00000000    0.00000000
     atom   33 type  1   force =     0.00000000    0.00000000    0.00000000
     atom   34 type  1   force =     0.00000000    0.00000000    0.00000000
     atom   35 type  1   force =     0.00000000    0.00000000    0.00000000
     atom   36 type  1   force =     0.00000000    0.00000000    0.00000000
     atom   37 type  1   force =     0.00000000    0.00000000    0.00000000
     atom   38 type  1   force =     0.00000000    0.00000000    0.00000000
     atom   39 type  1   force =     0.00000000    0.00000000    0.00000000
     atom   40 type  1   force =     0.00000000    0.00000000    0.00000000
     atom   41 type  1   force =     0.00000000    0.00000000    0.00000000
     atom   42 type  1   force =     0.00000000    0.00000000    0.00000000
     atom   43 type  1   force =     0.00000000    0.00000000    0.00000000
     atom   44 type  1   force =     0.00000000    0.00000000    0.00000000
     atom   45 type  1   force =     0.00000000    0.00000000    0.00000000
     atom   46 type  1   force =     0.00000000    0.00000000    0.00000000
     atom   47 type  1   force =     0.00000000    0.00000000    0.00000000
     atom   48 type  1   force =     0.00000000    0.00000000    0.00000000
     atom   49 type  1   force =     0.00000000    0.00000000    0.00000000
     atom   50 type  1   force =     0.00000000    0.00000000    0.00000000
     atom   51 type  1   force =     0.00000000    0.00000000    0.00000000
     atom   52 type  1   force =     0.00000000    0.00000000    0.00000000
     atom   53 type  1   force =     0.00000000    0.00000000    0.00000000
     atom   54 type  1   force =     0.00000000    0.00000000    0.00000000
     atom   55 type  1   force =     0.00000000    0.00000000    0.00000000
     atom   56 type  1   force =     0.00000000    0.00000000    0.00000000
     atom   57 type  1   force =     0.00000000    0.00000000    0.00000000
     atom   58 type  1   force =     0.00000000    0.00000000    0.00000000
     atom   59 type  1   force =     0.00000000    0.00000000    0.00000000
     atom   60 type  1   force =     0.00000000    0.00000000    0.00000000
     atom   61 type  1   force =     0.00000000    0.00000000    0.00000000
     atom   62 type  1   force =     0.00000000    0.00000000    0.00000000
     atom   63 type  1   force =     0.00000000    0.00000000    0.00000000
     atom   64 type  1   force =     0.00000000    0.00000000    0.00000000
     atom   65 type  2   force =     0.00000000    0.00000000    0.00000000
     atom   66 type  2   force =     0.00000000    0.00000000    0.00000000
     atom   67 type  2   force =     0.00000000    0.00000000    0.00000000
     atom   68 type  2   force =     0.00000000    0.00000000    0.00000000
     atom   69 type  2   force =     0.00000000    0.00000000    0.00000000
     atom   70 type  2   force =     0.00000000    0.00000000    0.00000000
     atom   71 type  2   force =     0.00000000    0.00000000    0.00000000
     atom   72 type  3   force =     0.00000000    0.00000000    0.00000000
     atom   73 type  3   force =     0.00000000    0.00000000    0.00000000
     atom   74 type  4   force =     0.00000000    0.00000000    0.00000000
     atom   75 type  4   force =     0.00000000    0.00000000    0.00000000
     atom   76 type  4   force =     0.00000000    0.00000000    0.00000000
     atom   77 type  4   force =     0.00000000    0.00000000    0.00000000
     atom   78 type  4   force =     0.00000000    0.00000000    0.00000000
     atom   79 type  4   force =     0.00000000    0.00000000    0.00000000
     The SCF correction term to forces
     atom    1 type  1   force =     0.00000000    0.00000000    0.00000000
     atom    2 type  1   force =     0.00000000   -0.00000000    0.00000000
     atom    3 type  1   force =    -0.00000000    0.00000000    0.00000000
     atom    4 type  1   force =    -0.00000000   -0.00000000    0.00000000
     atom    5 type  1   force =     0.00054548    0.00033878   -0.00018027
     atom    6 type  1   force =     0.00067575   -0.00005309   -0.00012988
     atom    7 type  1   force =    -0.00037036   -0.00060774   -0.00056806
     atom    8 type  1   force =    -0.00019911    0.00049024   -0.00110653
     atom    9 type  1   force =     0.00000000   -0.00000000    0.00000000
     atom   10 type  1   force =     0.00000000    0.00000000   -0.00000000
     atom   11 type  1   force =    -0.00000000    0.00000000    0.00000000
     atom   12 type  1   force =    -0.00000000   -0.00000000    0.00000000
     atom   13 type  1   force =     0.00043026    0.00151896   -0.00037898
     atom   14 type  1   force =     0.00080672   -0.00122287    0.00006185
     atom   15 type  1   force =    -0.00017539    0.00068055   -0.00080032
     atom   16 type  1   force =    -0.00038982   -0.00082182   -0.00087581
     atom   17 type  1   force =    -0.00000000    0.00000000    0.00000000
     atom   18 type  1   force =    -0.00000000   -0.00000000    0.00000000
     atom   19 type  1   force =     0.00000000    0.00000000    0.00000000
     atom   20 type  1   force =     0.00000000   -0.00000000    0.00000000
     atom   21 type  1   force =    -0.00052000   -0.00007180   -0.00036384
     atom   22 type  1   force =    -0.00070259   -0.00021340   -0.00022930
     atom   23 type  1   force =     0.00041930   -0.00066042   -0.00069432
     atom   24 type  1   force =     0.00016994    0.00082522   -0.00129725
     atom   25 type  1   force =    -0.00000000   -0.00000000    0.00000000
     atom   26 type  1   force =    -0.00000000    0.00000000    0.00000000
     atom   27 type  1   force =     0.00000000    0.00000000    0.00000000
     atom   28 type  1   force =     0.00000000   -0.00000000    0.00000000
     atom   29 type  1   force =    -0.00047858    0.00093219   -0.00050629
     atom   30 type  1   force =    -0.00074823   -0.00123765   -0.00008780
     atom   31 type  1   force =     0.00020004    0.00096504   -0.00086678
     atom   32 type  1   force =     0.00037986   -0.00083794   -0.00111821
     atom   33 type  1   force =     0.00000000    0.00000000    0.00000000
     atom   34 type  1   force =     0.00000000   -0.00000000    0.00000000
     atom   35 type  1   force =    -0.00000000    0.00000000    0.00000000
     atom   36 type  1   force =    -0.00000000   -0.00000000    0.00000000
     atom   37 type  1   force =     0.00029906   -0.00043550   -0.00002942
     atom   38 type  1   force =    -0.00004424    0.00048091   -0.00004602
     atom   39 type  1   force =     0.00022753   -0.00084263   -0.00052954
     atom   40 type  1   force =     0.00037559    0.00098296   -0.00096746
     atom   41 type  1   force =     0.00000000    0.00000000    0.00000000
     atom   42 type  1   force =     0.00000000    0.00000000   -0.00000000
     atom   43 type  1   force =    -0.00000000    0.00000000    0.00000000
     atom   44 type  1   force =    -0.00000000   -0.00000000    0.00000000
     atom   45 type  1   force =     0.00010770    0.00119427   -0.00026910
     atom   46 type  1   force =     0.00015118   -0.00114279    0.00016985
     atom   47 type  1   force =     0.00014196    0.00070906   -0.00060901
     atom   48 type  1   force =     0.00046160   -0.00056749   -0.00088300
     atom   49 type  1   force =    -0.00000000    0.00000000    0.00000000
     atom   50 type  1   force =    -0.00000000   -0.00000000    0.00000000
     atom   51 type  1   force =     0.00000000    0.00000000    0.00000000
     atom   52 type  1   force =     0.00000000   -0.00000000    0.00000000
     atom   53 type  1   force =    -0.00029934   -0.00016430    0.00021761
     atom   54 type  1   force =     0.00009110    0.00010711    0.00024709
     atom   55 type  1   force =    -0.00022280   -0.00109839   -0.00094951
     atom   56 type  1   force =    -0.00032897    0.00099980   -0.00124972
     atom   57 type  1   force =    -0.00000000   -0.00000000    0.00000000
     atom   58 type  1   force =    -0.00000000   -0.00000000   -0.00000000
     atom   59 type  1   force =     0.00000000    0.00000000    0.00000000
     atom   60 type  1   force =     0.00000000   -0.00000000    0.00000000
     atom   61 type  1   force =    -0.00009192    0.00109621   -0.00004653
     atom   62 type  1   force =    -0.00013461   -0.00115297    0.00050298
     atom   63 type  1   force =    -0.00017098    0.00032155   -0.00094755
     atom   64 type  1   force =    -0.00037111   -0.00047243   -0.00124372
     atom   65 type  2   force =     0.00011270    0.00001818    0.00015435
     atom   66 type  2   force =     0.00002624    0.00001596    0.00006010
     atom   67 type  2   force =     0.00000296    0.00011454    0.00005655
     atom   68 type  2   force =     0.00004603   -0.00009178    0.00006002
     atom   69 type  2   force =     0.00002790   -0.00008334    0.00005045
     atom   70 type  2   force =    -0.00000657    0.00011487    0.00004376
     atom   71 type  2   force =    -0.00005135    0.00002953   -0.00001917
     atom   72 type  3   force =     0.00005119    0.00001024    0.00009295
     atom   73 type  3   force =    -0.00008412    0.00005592   -0.00005603
     atom   74 type  4   force =    -0.00000843    0.00000357   -0.00000218
     atom   75 type  4   force =    -0.00001105    0.00001857   -0.00001288
     atom   76 type  4   force =    -0.00000076    0.00000367    0.00000413
     atom   77 type  4   force =     0.00000176   -0.00000437    0.00000819
     atom   78 type  4   force =    -0.00000012   -0.00002210    0.00000548
     atom   79 type  4   force =    -0.00000638    0.00002002    0.00000027

     Total force =     0.270727     Total SCF correction =     0.006493


     Computing stress (Cartesian axis) and pressure


     negative rho (up, down):  3.762E-02 0.000E+00
          total   stress  (Ry/bohr**3)                   (kbar)     P=     -283.99
  -0.00199670  -0.00002164   0.00002181         -293.73       -3.18        3.21
  -0.00002164  -0.00194119   0.00000440           -3.18     -285.56        0.65
   0.00002181   0.00000440  -0.00185367            3.21        0.65     -272.68

     kinetic stress (kbar)  15556.87     15.05    -44.42
                               15.05  15502.73    -10.04
                              -44.42    -10.04  15569.95

     local   stress (kbar)**********   3627.51  -3825.49
                             3627.51**********   -842.06
                            -3825.49   -842.061136121.02

     nonloc. stress (kbar)  -1742.45     -7.37      6.46
                               -7.37  -1717.76      0.92
                                6.46      0.92  -1756.47

     hartree stress (kbar) 596102.93  -1550.42   1565.57
                            -1550.42 601804.75    344.34
                             1565.57    344.34-526777.05

     exc-cor stress (kbar)  -7582.05     -1.21      2.60
                               -1.21  -7577.72      0.54
                                2.60      0.54  -7584.82

     corecor stress (kbar)    -72.76      0.17     -0.90
                                0.17    -73.28     -0.19
                               -0.90     -0.19    -72.77

     ewald   stress (kbar) 522144.62  -2086.91   2299.40
                            -2086.91 529846.81    507.14
                             2299.40    507.14-615772.54

     hubbard stress (kbar)      0.00      0.00      0.00
                                0.00      0.00      0.00
                                0.00      0.00      0.00

     DFT-D   stress (kbar)      0.00      0.00      0.00
                                0.00      0.00      0.00
                                0.00      0.00      0.00

     XDM     stress (kbar)      0.00      0.00      0.00
                                0.00      0.00      0.00
                                0.00      0.00      0.00

     dft-nl  stress (kbar)      0.00      0.00      0.00
                                0.00      0.00      0.00
                                0.00      0.00      0.00

     TS-vdW  stress (kbar)      0.00      0.00      0.00
                                0.00      0.00      0.00
                                0.00      0.00      0.00

     MDB     stress (kbar)      0.00      0.00      0.00
                                0.00      0.00      0.00
                                0.00      0.00      0.00

     3D-RISM stress (kbar)      0.00      0.00      0.00
                                0.00      0.00      0.00
                                0.00      0.00      0.00

     Energy error            =      7.3E-03 Ry
     Gradient error          =      1.6E-01 Ry/Bohr

     number of scf cycles    =   3
     number of bfgs steps    =   2

     energy             old  =  -29711.3456574446 Ry
     energy             new  =  -29711.3383548897 Ry

     CASE: energy            _new > energy            _old


 %%%%%%%%%%%%%%%%%%%%%%%%%%%%%%%%%%%%%%%%%%%%%%%%%%%%%%%%%%%%%%%%%%%%%%%%%%%%%%
     Error in routine bfgs (1):
     dE0s is positive which should never happen
 %%%%%%%%%%%%%%%%%%%%%%%%%%%%%%%%%%%%%%%%%%%%%%%%%%%%%%%%%%%%%%%%%%%%%%%%%%%%%%

     stopping ...
--------------------------------------------------------------------------
MPI_ABORT was invoked on rank 0 in communicator MPI_COMM_WORLD
with errorcode 1.

NOTE: invoking MPI_ABORT causes Open MPI to kill all MPI processes.
You may or may not see output from other processes, depending on
exactly when Open MPI kills them.
--------------------------------------------------------------------------
