
     Program PWSCF v.7.3.1 starts on  8Apr2025 at 23:53:21 

     This program is part of the open-source Quantum ESPRESSO suite
     for quantum simulation of materials; please cite
         "P. Giannozzi et al., J. Phys.:Condens. Matter 21 395502 (2009);
         "P. Giannozzi et al., J. Phys.:Condens. Matter 29 465901 (2017);
         "P. Giannozzi et al., J. Chem. Phys. 152 154105 (2020);
          URL http://www.quantum-espresso.org", 
     in publications or presentations arising from this work. More details at
     http://www.quantum-espresso.org/quote

     Parallel version (MPI), running on    33 processors

     MPI processes distributed on     1 nodes
     1958 MiB available memory on the printing compute node when the environment starts

     Waiting for input...
     Reading input from standard input
Warning: card &CELL ignored
Warning: card   CELL_DOFREE = 'ALL' ignored
Warning: card / ignored

     Current dimensions of program PWSCF are:
     Max number of different atomic species (ntypx) = 10
     Max number of k-points (npk) =  40000
     Max angular momentum in pseudopotentials (lmaxx) =  4
     file C.pbe-n-kjpaw_psl.1.0.0.UPF: wavefunction(s)  2S 2P renormalized

     R & G space division:  proc/nbgrp/npool/nimage =      33
     Subspace diagonalization in iterative solution of the eigenvalue problem:
     one sub-group per band group will be used
     custom distributed-memory algorithm (size of sub-group:  5*  5 procs)


     Parallelization info
     --------------------
     sticks:   dense  smooth     PW     G-vecs:    dense   smooth      PW
     Min         228     130     36                36393    15714    2270
     Max         230     131     37                36401    15723    2280
     Sum        7555    4303   1189              1201061   518755   75035

     Using Slab Decomposition



     bravais-lattice index     =            0
     lattice parameter (alat)  =      19.7617  a.u.
     unit-cell volume          =   15176.5939 (a.u.)^3
     number of atoms/cell      =           62
     number of atomic types    =            4
     number of electrons       =       996.00
     number of Kohn-Sham states=          598
     kinetic-energy cutoff     =      40.0000  Ry
     charge density cutoff     =     280.0000  Ry
     scf convergence threshold =      1.0E-06
     mixing beta               =       0.4000
     number of iterations used =            8  plain     mixing
     energy convergence thresh.=      5.0E-05
     force convergence thresh. =      1.0E-03
     Exchange-correlation= PBE
                           (   1   4   3   4   0   0   0)
     nstep                     =          300


     celldm(1)=  19.761696  celldm(2)=   0.000000  celldm(3)=   0.000000
     celldm(4)=   0.000000  celldm(5)=   0.000000  celldm(6)=   0.000000

     crystal axes: (cart. coord. in units of alat)
               a(1) = (   1.000000   0.000000   0.000000 )  
               a(2) = (  -0.500000   0.866025   0.000000 )  
               a(3) = (   0.000000   0.000000   2.270759 )  

     reciprocal axes: (cart. coord. in units 2 pi/alat)
               b(1) = (  1.000000  0.577350 -0.000000 )  
               b(2) = (  0.000000  1.154701  0.000000 )  
               b(3) = (  0.000000 -0.000000  0.440381 )  


     PseudoPot. # 1 for Zn read from file:
     /home/ys/qepseudo/SSSP_1.3.0_PBE_efficiency/Zn_pbe_v1.uspp.F.UPF
     MD5 check sum: df62231357ef9e81f77b2b3087fa5675
     Pseudo is Ultrasoft, Zval = 20.0
     Generated by new atomic code, or converted to UPF format
     Using radial grid of  943 points,  6 beta functions with: 
                l(1) =   0
                l(2) =   0
                l(3) =   1
                l(4) =   1
                l(5) =   2
                l(6) =   2
     Q(r) pseudized with  8 coefficients,  rinner =    1.100   1.100   1.100
                                                       1.100   1.100

     PseudoPot. # 2 for N  read from file:
     /home/ys/qepseudo/SSSP_1.3.0_PBE_efficiency/N.pbe-n-radius_5.UPF
     MD5 check sum: 16739722b17309cd8fe442a2ace49922
     Pseudo is Ultrasoft + core correction, Zval =  5.0
     Generated using "atomic" code by A. Dal Corso  v.5.1
     Using radial grid of 1085 points,  4 beta functions with: 
                l(1) =   0
                l(2) =   0
                l(3) =   1
                l(4) =   1
     Q(r) pseudized with 0 coefficients 


     PseudoPot. # 3 for C  read from file:
     /home/ys/qepseudo/SSSP_1.3.0_PBE_efficiency/C.pbe-n-kjpaw_psl.1.0.0.UPF
     MD5 check sum: 5d2aebdfa2cae82b50a7e79e9516da0f
     Pseudo is Projector augmented-wave + core cor, Zval =  4.0
     Generated using "atomic" code by A. Dal Corso  v.5.1
     Shape of augmentation charge: PSQ
     Using radial grid of 1073 points,  4 beta functions with: 
                l(1) =   0
                l(2) =   0
                l(3) =   1
                l(4) =   1
     Q(r) pseudized with 0 coefficients 


     PseudoPot. # 4 for H  read from file:
     /home/ys/qepseudo/SSSP_1.3.0_PBE_efficiency/H.pbe-rrkjus_psl.1.0.0.UPF
     MD5 check sum: f52b6d4d1c606e5624b1dc7b2218f220
     Pseudo is Ultrasoft, Zval =  1.0
     Generated using "atomic" code by A. Dal Corso  v.5.1
     Using radial grid of  929 points,  2 beta functions with: 
                l(1) =   0
                l(2) =   0
     Q(r) pseudized with 0 coefficients 


     atomic species   valence    mass     pseudopotential
     Zn               20.00    65.38000     Zn( 1.00)
     N                 5.00    14.00674     N ( 1.00)
     C                 4.00    12.01070     C ( 1.00)
     H                 1.00     1.00794     H ( 1.00)

     No symmetry found


                                    s                        frac. trans.

      isym =  1     identity                                     

 cryst.   s( 1) = (     1          0          0      )
                  (     0          1          0      )
                  (     0          0          1      )

 cart.    s( 1) = (  1.0000000  0.0000000  0.0000000 )
                  (  0.0000000  1.0000000  0.0000000 )
                  (  0.0000000  0.0000000  1.0000000 )


   Cartesian axes

     site n.     atom                  positions (alat units)
         1        Zn     tau(   1) = (   0.0000000   0.1443375   0.1164998  )
         2        Zn     tau(   2) = (   0.5000000   0.1443375   0.1164998  )
         3        Zn     tau(   3) = (  -0.0000009   0.1443253   0.5892328  )
         4        Zn     tau(   4) = (   0.5000057   0.1444331   0.5893457  )
         5        Zn     tau(   5) = (  -0.1250000   0.3608439   0.1164998  )
         6        Zn     tau(   6) = (   0.3750000   0.3608439   0.1164998  )
         7        Zn     tau(   7) = (  -0.1250605   0.3609005   0.5892520  )
         8        Zn     tau(   8) = (   0.3750667   0.3609476   0.5892409  )
         9        Zn     tau(   9) = (  -0.2500000   0.5773502   0.1164998  )
        10        Zn     tau(  10) = (   0.2500000   0.5773502   0.1164998  )
        11        Zn     tau(  11) = (  -0.2500929   0.5773056   0.5892190  )
        12        Zn     tau(  12) = (   0.2500864   0.5773127   0.5892873  )
        13        Zn     tau(  13) = (  -0.3750000   0.7938567   0.1164998  )
        14        Zn     tau(  14) = (   0.1250000   0.7938567   0.1164998  )
        15        Zn     tau(  15) = (  -0.3750348   0.7937470   0.5892089  )
        16        Zn     tau(  16) = (   0.1250330   0.7938041   0.5893866  )
        17        Zn     tau(  17) = (   0.2500000   0.1443375   0.1164998  )
        18        Zn     tau(  18) = (   0.7500000   0.1443375   0.1164998  )
        19        Zn     tau(  19) = (   0.2499793   0.1443524   0.5892478  )
        20        Zn     tau(  20) = (   0.7500154   0.1444015   0.5893369  )
        21        Zn     tau(  21) = (   0.1250000   0.3608439   0.1164998  )
        22        Zn     tau(  22) = (   0.6250000   0.3608439   0.1164998  )
        23        Zn     tau(  23) = (   0.1250142   0.3608841   0.5892372  )
        24        Zn     tau(  24) = (   0.6249793   0.3609637   0.5892403  )
        25        Zn     tau(  25) = (   0.0000000   0.5773502   0.1164998  )
        26        Zn     tau(  26) = (   0.5000000   0.5773502   0.1164998  )
        27        Zn     tau(  27) = (  -0.0000341   0.5773050   0.5893056  )
        28        Zn     tau(  28) = (   0.5000385   0.5773111   0.5891918  )
        29        Zn     tau(  29) = (  -0.1250000   0.7938567   0.1164998  )
        30        Zn     tau(  30) = (   0.3750000   0.7938567   0.1164998  )
        31        Zn     tau(  31) = (  -0.1250706   0.7937840   0.5893112  )
        32        Zn     tau(  32) = (   0.3750688   0.7937688   0.5892851  )
        33        Zn     tau(  33) = (   0.1249499   0.0721180   0.3527750  )
        34        Zn     tau(  34) = (   0.6250516   0.0722806   0.3529955  )
        35        Zn     tau(  35) = (  -0.0001067   0.2887395   0.3528763  )
        36        Zn     tau(  36) = (   0.5001077   0.2888424   0.3530070  )
        37        Zn     tau(  37) = (  -0.1251373   0.5051229   0.3529907  )
        38        Zn     tau(  38) = (   0.3751373   0.5051749   0.3530098  )
        39        Zn     tau(  39) = (  -0.2500771   0.7215201   0.3528974  )
        40        Zn     tau(  40) = (   0.2500778   0.7216345   0.3529906  )
        41        Zn     tau(  41) = (   0.3750658   0.0722199   0.3528654  )
        42        Zn     tau(  42) = (   0.8749310   0.0721759   0.3529169  )
        43        Zn     tau(  43) = (   0.2501013   0.2887983   0.3528633  )
        44        Zn     tau(  44) = (   0.7498955   0.2887831   0.3530222  )
        45        Zn     tau(  45) = (   0.1250465   0.5051922   0.3529544  )
        46        Zn     tau(  46) = (   0.6249532   0.5051087   0.3530488  )
        47        Zn     tau(  47) = (   0.0000130   0.7216316   0.3529497  )
        48        Zn     tau(  48) = (   0.4999851   0.7215192   0.3529316  )
        49        C      tau(  49) = (   0.1987647   0.4395138   0.9529559  )
        50        C      tau(  50) = (   0.4304814   0.4334419   0.9730390  )
        51        C      tau(  51) = (   0.3178265   0.5025322   0.9562517  )
        52        C      tau(  52) = (   0.3102559   0.2376623   0.9838685  )
        53        C      tau(  53) = (   0.1968510   0.3055297   0.9671443  )
        54        C      tau(  54) = (   0.4281828   0.3005258   0.9870772  )
        55        N      tau(  55) = (   0.0869601   0.5072624   0.9363628  )
        56        H      tau(  56) = (   0.0016102   0.4624231   0.9339990  )
        57        H      tau(  57) = (   0.5214370   0.4845903   0.9752029  )
        58        H      tau(  58) = (   0.3061089   0.1339130   0.9945622  )
        59        H      tau(  59) = (   0.1054834   0.2548873   0.9648633  )
        60        H      tau(  60) = (   0.5166003   0.2469534   1.0001642  )
        61        H      tau(  61) = (   0.3213414   0.6064077   0.9454765  )
        62        H      tau(  62) = (   0.0880265   0.6031601   0.9263133  )

     --------------------------------------------
     DFT-D3 Dispersion Correction (3-body terms):
     --------------------------------------------
       Reference C6 values for interpolation: 

         atom   Coordination number   C6
         H          0.912             6.05
         H          0.000            15.18
         C          0.000            98.23
         C          0.987            86.49
         C          1.998            58.72
         C          2.999            51.56
         C          3.984            36.41
         N          0.000            50.54
         N          0.994            44.25
         N          2.014            39.35
         N          2.990            31.16
         Zn         0.000           681.04
         Zn         1.942           306.91

       Values used:

         atom   Coordination number  R0_AB[au]  C6      C8
         Zn         6.783            3.053    306.91  23930.67
         Zn         6.780            3.053    306.91  23930.67
         Zn         6.783            3.053    306.91  23930.67
         Zn         6.782            3.053    306.91  23930.67
         Zn         6.782            3.053    306.91  23930.67
         Zn         6.782            3.053    306.91  23930.67
         Zn         6.791            3.053    306.91  23930.67
         Zn         6.798            3.053    306.91  23930.67
         Zn         6.781            3.053    306.91  23930.67
         Zn         6.780            3.053    306.91  23930.67
         Zn         6.795            3.053    306.91  23930.67
         Zn         6.795            3.053    306.91  23930.67
         Zn         6.783            3.053    306.91  23930.67
         Zn         6.778            3.053    306.91  23930.67
         Zn         6.787            3.053    306.91  23930.67
         Zn         6.779            3.053    306.91  23930.67
         Zn         6.783            3.053    306.91  23930.67
         Zn         6.780            3.053    306.91  23930.67
         Zn         6.782            3.053    306.91  23930.67
         Zn         6.783            3.053    306.91  23930.67
         Zn         6.782            3.053    306.91  23930.67
         Zn         6.781            3.053    306.91  23930.67
         Zn         6.791            3.053    306.91  23930.67
         Zn         6.799            3.053    306.91  23930.67
         Zn         6.779            3.053    306.91  23930.67
         Zn         6.782            3.053    306.91  23930.67
         Zn         6.788            3.053    306.91  23930.67
         Zn         6.802            3.053    306.91  23930.67
         Zn         6.781            3.053    306.91  23930.67
         Zn         6.781            3.053    306.91  23930.67
         Zn         6.779            3.053    306.91  23930.67
         Zn         6.786            3.053    306.91  23930.67
         Zn         8.382            3.053    306.91  23930.67
         Zn         8.381            3.053    306.91  23930.67
         Zn         8.384            3.053    306.91  23930.67
         Zn         8.392            3.053    306.91  23930.67
         Zn         8.390            3.053    306.91  23930.67
         Zn         8.395            3.053    306.91  23930.67
         Zn         8.387            3.053    306.91  23930.67
         Zn         8.384            3.053    306.91  23930.67
         Zn         8.379            3.053    306.91  23930.67
         Zn         8.384            3.053    306.91  23930.67
         Zn         8.384            3.053    306.91  23930.67
         Zn         8.391            3.053    306.91  23930.67
         Zn         8.385            3.053    306.91  23930.67
         Zn         8.399            3.053    306.91  23930.67
         Zn         8.380            3.053    306.91  23930.67
         Zn         8.391            3.053    306.91  23930.67
         C          3.146            2.750     50.57   1462.48
         C          3.136            2.750     50.64   1464.64
         C          3.172            2.750     50.35   1456.08
         C          3.135            2.750     50.65   1464.83
         C          3.170            2.750     50.36   1456.43
         C          3.127            2.750     50.71   1466.49
         N          3.087            2.478     31.24    689.22
         H          1.007            2.062      6.18     74.65
         H          1.004            2.062      6.18     74.68
         H          1.003            2.062      6.18     74.68
         H          1.004            2.062      6.18     74.68
         H          1.003            2.062      6.18     74.68
         H          1.004            2.062      6.18     74.68
         H          1.007            2.062      6.17     74.64

         Molecular C6 ( Ry / a.u.^6 ) =    819921.43


   Crystallographic axes

     site n.     atom                  positions (cryst. coord.)
         1        Zn     tau(   1) = (  0.0833333  0.1666666  0.0513044  )
         2        Zn     tau(   2) = (  0.5833333  0.1666666  0.0513044  )
         3        Zn     tau(   3) = (  0.0833253  0.1666525  0.2594872  )
         4        Zn     tau(   4) = (  0.5833941  0.1667770  0.2595369  )
         5        Zn     tau(   5) = (  0.0833333  0.4166666  0.0513044  )
         6        Zn     tau(   6) = (  0.5833333  0.4166666  0.0513044  )
         7        Zn     tau(   7) = (  0.0833055  0.4167320  0.2594956  )
         8        Zn     tau(   8) = (  0.5834599  0.4167864  0.2594907  )
         9        Zn     tau(   9) = (  0.0833333  0.6666666  0.0513044  )
        10        Zn     tau(  10) = (  0.5833333  0.6666666  0.0513044  )
        11        Zn     tau(  11) = (  0.0832146  0.6666151  0.2594811  )
        12        Zn     tau(  12) = (  0.5833980  0.6666233  0.2595112  )
        13        Zn     tau(  13) = (  0.0833333  0.9166667  0.0513044  )
        14        Zn     tau(  14) = (  0.5833334  0.9166667  0.0513044  )
        15        Zn     tau(  15) = (  0.0832352  0.9165400  0.2594767  )
        16        Zn     tau(  16) = (  0.5833360  0.9166061  0.2595549  )
        17        Zn     tau(  17) = (  0.3333333  0.1666666  0.0513044  )
        18        Zn     tau(  18) = (  0.8333334  0.1666666  0.0513044  )
        19        Zn     tau(  19) = (  0.3333212  0.1666838  0.2594938  )
        20        Zn     tau(  20) = (  0.8333857  0.1667405  0.2595330  )
        21        Zn     tau(  21) = (  0.3333333  0.4166666  0.0513044  )
        22        Zn     tau(  22) = (  0.8333333  0.4166666  0.0513044  )
        23        Zn     tau(  23) = (  0.3333707  0.4167130  0.2594891  )
        24        Zn     tau(  24) = (  0.8333818  0.4168050  0.2594905  )
        25        Zn     tau(  25) = (  0.3333333  0.6666666  0.0513044  )
        26        Zn     tau(  26) = (  0.8333333  0.6666666  0.0513044  )
        27        Zn     tau(  27) = (  0.3332731  0.6666144  0.2595192  )
        28        Zn     tau(  28) = (  0.8333492  0.6666214  0.2594691  )
        29        Zn     tau(  29) = (  0.3333334  0.9166667  0.0513044  )
        30        Zn     tau(  30) = (  0.8333334  0.9166667  0.0513044  )
        31        Zn     tau(  31) = (  0.3332207  0.9165828  0.2595217  )
        32        Zn     tau(  32) = (  0.8333514  0.9165652  0.2595102  )
        33        Zn     tau(  33) = (  0.1665872  0.0832747  0.1553556  )
        34        Zn     tau(  34) = (  0.6667828  0.0834624  0.1554527  )
        35        Zn     tau(  35) = (  0.1665971  0.3334076  0.1554002  )
        36        Zn     tau(  36) = (  0.6668709  0.3335265  0.1554577  )
        37        Zn     tau(  37) = (  0.1664955  0.5832657  0.1554506  )
        38        Zn     tau(  38) = (  0.6668002  0.5833257  0.1554589  )
        39        Zn     tau(  39) = (  0.1664928  0.8331397  0.1554095  )
        40        Zn     tau(  40) = (  0.6667136  0.8332717  0.1554505  )
        41        Zn     tau(  41) = (  0.4167620  0.0833924  0.1553954  )
        42        Zn     tau(  42) = (  0.9166018  0.0833416  0.1554180  )
        43        Zn     tau(  43) = (  0.4168391  0.3334756  0.1553945  )
        44        Zn     tau(  44) = (  0.9166245  0.3334580  0.1554644  )
        45        Zn     tau(  45) = (  0.4167194  0.5833457  0.1554346  )
        46        Zn     tau(  46) = (  0.9165778  0.5832492  0.1554761  )
        47        Zn     tau(  47) = (  0.4166473  0.8332684  0.1554325  )
        48        Zn     tau(  48) = (  0.9165544  0.8331386  0.1554245  )
        49        C      tau(  49) = (  0.4525181  0.5075068  0.4196641  )
        50        C      tau(  50) = (  0.6807292  0.5004956  0.4285083  )
        51        C      tau(  51) = (  0.6079636  0.5802742  0.4211155  )
        52        C      tau(  52) = (  0.4474703  0.2744288  0.4332774  )
        53        C      tau(  53) = (  0.3732486  0.3527953  0.4259124  )
        54        C      tau(  54) = (  0.6016915  0.3470173  0.4346905  )
        55        N      tau(  55) = (  0.3798282  0.5857361  0.4123568  )
        56        H      tau(  56) = (  0.2685903  0.5339602  0.4113158  )
        57        H      tau(  57) = (  0.8012154  0.5595566  0.4294612  )
        58        H      tau(  58) = (  0.3834237  0.1546295  0.4379867  )
        59        H      tau(  59) = (  0.2526427  0.2943185  0.4249079  )
        60        H      tau(  60) = (  0.6591789  0.2851572  0.4404538  )
        61        H      tau(  61) = (  0.6714511  0.7002193  0.4163703  )
        62        H      tau(  62) = (  0.4362611  0.6964693  0.4079312  )

     number of k points=     4  Marzari-Vanderbilt smearing, width (Ry)=  0.0200
                       cart. coord. in units 2pi/alat
        k(    1) = (   0.0000000   0.0000000   0.0000000), wk =   0.5000000
        k(    2) = (   0.0000000  -0.5773503   0.0000000), wk =   0.5000000
        k(    3) = (  -0.5000000  -0.2886751   0.0000000), wk =   0.5000000
        k(    4) = (  -0.5000000  -0.8660254   0.0000000), wk =   0.5000000

                       cryst. coord.
        k(    1) = (   0.0000000   0.0000000   0.0000000), wk =   0.5000000
        k(    2) = (   0.0000000  -0.5000000   0.0000000), wk =   0.5000000
        k(    3) = (  -0.5000000   0.0000000   0.0000000), wk =   0.5000000
        k(    4) = (  -0.5000000  -0.5000000   0.0000000), wk =   0.5000000

     Dense  grid:  1201061 G-vectors     FFT dimensions: ( 108, 108, 240)

     Smooth grid:   518755 G-vectors     FFT dimensions: (  80,  80, 192)

     Dynamical RAM for                 wfc:      17.92 MB

     Dynamical RAM for     wfc (w. buffer):      89.61 MB

     Dynamical RAM for           str. fact:       2.22 MB

     Dynamical RAM for           local pot:       0.00 MB

     Dynamical RAM for          nlocal pot:      27.99 MB

     Dynamical RAM for                qrad:       5.37 MB

     Dynamical RAM for          rho,v,vnew:       3.80 MB

     Dynamical RAM for               rhoin:       1.27 MB

     Dynamical RAM for            rho*nmix:       8.89 MB

     Dynamical RAM for           G-vectors:       2.20 MB

     Dynamical RAM for          h,s,v(r/c):       2.61 MB

     Dynamical RAM for          <psi|beta>:       8.52 MB

     Dynamical RAM for                 psi:      35.84 MB

     Dynamical RAM for                hpsi:      35.84 MB

     Dynamical RAM for                spsi:      35.84 MB

     Dynamical RAM for      wfcinit/wfcrot:      49.44 MB

     Dynamical RAM for           addusdens:     129.95 MB

     Dynamical RAM for          addusforce:     182.62 MB

     Dynamical RAM for         addusstress:     111.63 MB

     Estimated static dynamical RAM per process >     138.80 MB

     Estimated max dynamical RAM per process >     330.31 MB

     Estimated total dynamical RAM >      10.64 GB

     Initial potential from superposition of free atoms

     starting charge     995.9929, renormalised to     996.0000

     negative rho (up, down):  2.814E-03 0.000E+00
     Starting wfcs are  659 randomized atomic wfcs
     Checking if some PAW data can be deallocated... 
       PAW data deallocated on   30 nodes for type:  3

     total cpu time spent up to now is       55.9 secs

     Self-consistent Calculation

     iteration #  1     ecut=    40.00 Ry     beta= 0.40
     Davidson diagonalization with overlap

---- Real-time Memory Report at c_bands before calling an iterative solver
           212 MiB given to the printing process from OS
             0 MiB allocation reported by mallinfo(arena+hblkhd)
          3498 MiB available memory on the node where the printing process lives
------------------
     ethr =  1.00E-02,  avg # of iterations =  9.0

     negative rho (up, down):  3.257E-03 0.000E+00

     total cpu time spent up to now is      284.4 secs

     total energy              =  -22288.71761382 Ry
     estimated scf accuracy    <      11.23489414 Ry

     iteration #  2     ecut=    40.00 Ry     beta= 0.40
     Davidson diagonalization with overlap

---- Real-time Memory Report at c_bands before calling an iterative solver
           306 MiB given to the printing process from OS
             0 MiB allocation reported by mallinfo(arena+hblkhd)
          3870 MiB available memory on the node where the printing process lives
------------------
     ethr =  1.13E-03,  avg # of iterations =  9.0

     negative rho (up, down):  4.432E-03 0.000E+00

     total cpu time spent up to now is      513.7 secs

     total energy              =  -22275.70695126 Ry
     estimated scf accuracy    <     276.00490067 Ry

     iteration #  3     ecut=    40.00 Ry     beta= 0.40
     Davidson diagonalization with overlap

---- Real-time Memory Report at c_bands before calling an iterative solver
           318 MiB given to the printing process from OS
             0 MiB allocation reported by mallinfo(arena+hblkhd)
          4248 MiB available memory on the node where the printing process lives
------------------
     ethr =  1.13E-03,  avg # of iterations =  7.0

     negative rho (up, down):  4.558E-03 0.000E+00

     total cpu time spent up to now is      766.0 secs

     total energy              =  -22292.36953110 Ry
     estimated scf accuracy    <      22.68812787 Ry

     iteration #  4     ecut=    40.00 Ry     beta= 0.40
     Davidson diagonalization with overlap

---- Real-time Memory Report at c_bands before calling an iterative solver
           318 MiB given to the printing process from OS
             0 MiB allocation reported by mallinfo(arena+hblkhd)
          4221 MiB available memory on the node where the printing process lives
------------------
     ethr =  1.13E-03,  avg # of iterations =  3.2

     negative rho (up, down):  4.478E-03 0.000E+00

     total cpu time spent up to now is      957.4 secs

     total energy              =  -22293.87177321 Ry
     estimated scf accuracy    <       2.95309973 Ry

     iteration #  5     ecut=    40.00 Ry     beta= 0.40
     Davidson diagonalization with overlap

---- Real-time Memory Report at c_bands before calling an iterative solver
           319 MiB given to the printing process from OS
             0 MiB allocation reported by mallinfo(arena+hblkhd)
          4199 MiB available memory on the node where the printing process lives
------------------
     ethr =  2.96E-04,  avg # of iterations =  3.0

     negative rho (up, down):  4.435E-03 0.000E+00

     total cpu time spent up to now is     1141.7 secs

     total energy              =  -22294.03831713 Ry
     estimated scf accuracy    <       0.33822119 Ry

     iteration #  6     ecut=    40.00 Ry     beta= 0.40
     Davidson diagonalization with overlap

---- Real-time Memory Report at c_bands before calling an iterative solver
           320 MiB given to the printing process from OS
             0 MiB allocation reported by mallinfo(arena+hblkhd)
          4222 MiB available memory on the node where the printing process lives
------------------
     ethr =  3.40E-05,  avg # of iterations = 11.8

     negative rho (up, down):  4.436E-03 0.000E+00

     total cpu time spent up to now is     1359.7 secs

     total energy              =  -22294.04511668 Ry
     estimated scf accuracy    <       0.15918432 Ry

     iteration #  7     ecut=    40.00 Ry     beta= 0.40
     Davidson diagonalization with overlap

---- Real-time Memory Report at c_bands before calling an iterative solver
           320 MiB given to the printing process from OS
             0 MiB allocation reported by mallinfo(arena+hblkhd)
          4205 MiB available memory on the node where the printing process lives
------------------
     ethr =  1.60E-05,  avg # of iterations =  4.0

     negative rho (up, down):  4.501E-03 0.000E+00

     total cpu time spent up to now is     1547.6 secs

     total energy              =  -22294.04602834 Ry
     estimated scf accuracy    <       0.03945740 Ry

     iteration #  8     ecut=    40.00 Ry     beta= 0.40
     Davidson diagonalization with overlap

---- Real-time Memory Report at c_bands before calling an iterative solver
           321 MiB given to the printing process from OS
             0 MiB allocation reported by mallinfo(arena+hblkhd)
          4239 MiB available memory on the node where the printing process lives
------------------
     c_bands:  2 eigenvalues not converged
     ethr =  3.96E-06,  avg # of iterations = 13.2

     negative rho (up, down):  4.521E-03 0.000E+00

     total cpu time spent up to now is     1758.9 secs

     total energy              =  -22294.04514927 Ry
     estimated scf accuracy    <       0.02862831 Ry

     iteration #  9     ecut=    40.00 Ry     beta= 0.40
     Davidson diagonalization with overlap

---- Real-time Memory Report at c_bands before calling an iterative solver
           322 MiB given to the printing process from OS
             0 MiB allocation reported by mallinfo(arena+hblkhd)
          4217 MiB available memory on the node where the printing process lives
------------------
     c_bands:  2 eigenvalues not converged
     ethr =  2.87E-06,  avg # of iterations =  6.5

     negative rho (up, down):  4.535E-03 0.000E+00

     total cpu time spent up to now is     1948.8 secs

     total energy              =  -22294.04381053 Ry
     estimated scf accuracy    <       0.01852421 Ry

     iteration # 10     ecut=    40.00 Ry     beta= 0.40
     Davidson diagonalization with overlap

---- Real-time Memory Report at c_bands before calling an iterative solver
           322 MiB given to the printing process from OS
             0 MiB allocation reported by mallinfo(arena+hblkhd)
          4203 MiB available memory on the node where the printing process lives
------------------
     c_bands:  1 eigenvalues not converged
     c_bands:  1 eigenvalues not converged
     ethr =  1.86E-06,  avg # of iterations = 14.5

     negative rho (up, down):  4.547E-03 0.000E+00

     total cpu time spent up to now is     2151.2 secs

     total energy              =  -22294.04114857 Ry
     estimated scf accuracy    <       0.01345675 Ry

     iteration # 11     ecut=    40.00 Ry     beta= 0.40
     Davidson diagonalization with overlap

---- Real-time Memory Report at c_bands before calling an iterative solver
           323 MiB given to the printing process from OS
             0 MiB allocation reported by mallinfo(arena+hblkhd)
          4258 MiB available memory on the node where the printing process lives
------------------
     ethr =  1.35E-06,  avg # of iterations =  9.5

     negative rho (up, down):  4.568E-03 0.000E+00

     total cpu time spent up to now is     2352.0 secs

     total energy              =  -22294.03652814 Ry
     estimated scf accuracy    <       0.00755866 Ry

     iteration # 12     ecut=    40.00 Ry     beta= 0.40
     Davidson diagonalization with overlap

---- Real-time Memory Report at c_bands before calling an iterative solver
           323 MiB given to the printing process from OS
             0 MiB allocation reported by mallinfo(arena+hblkhd)
          4259 MiB available memory on the node where the printing process lives
------------------
     ethr =  7.59E-07,  avg # of iterations = 11.2

     negative rho (up, down):  4.558E-03 0.000E+00

     total cpu time spent up to now is     2576.5 secs

     total energy              =  -22294.03795420 Ry
     estimated scf accuracy    <       0.00020553 Ry

     iteration # 13     ecut=    40.00 Ry     beta= 0.40
     Davidson diagonalization with overlap

---- Real-time Memory Report at c_bands before calling an iterative solver
           323 MiB given to the printing process from OS
             0 MiB allocation reported by mallinfo(arena+hblkhd)
          4258 MiB available memory on the node where the printing process lives
------------------
     ethr =  2.06E-08,  avg # of iterations =  2.2

     negative rho (up, down):  4.556E-03 0.000E+00

     total cpu time spent up to now is     2762.4 secs

     total energy              =  -22294.03794946 Ry
     estimated scf accuracy    <       0.00017238 Ry

     iteration # 14     ecut=    40.00 Ry     beta= 0.40
     Davidson diagonalization with overlap

---- Real-time Memory Report at c_bands before calling an iterative solver
           323 MiB given to the printing process from OS
             0 MiB allocation reported by mallinfo(arena+hblkhd)
          4257 MiB available memory on the node where the printing process lives
------------------
     ethr =  1.73E-08,  avg # of iterations =  2.0

     negative rho (up, down):  4.555E-03 0.000E+00

     total cpu time spent up to now is     2944.8 secs

     total energy              =  -22294.03794837 Ry
     estimated scf accuracy    <       0.00034556 Ry

     iteration # 15     ecut=    40.00 Ry     beta= 0.40
     Davidson diagonalization with overlap

---- Real-time Memory Report at c_bands before calling an iterative solver
           323 MiB given to the printing process from OS
             0 MiB allocation reported by mallinfo(arena+hblkhd)
          4258 MiB available memory on the node where the printing process lives
------------------
     ethr =  1.73E-08,  avg # of iterations =  2.0

     negative rho (up, down):  4.554E-03 0.000E+00

     total cpu time spent up to now is     3126.3 secs

     total energy              =  -22294.03797209 Ry
     estimated scf accuracy    <       0.00015925 Ry

     iteration # 16     ecut=    40.00 Ry     beta= 0.40
     Davidson diagonalization with overlap

---- Real-time Memory Report at c_bands before calling an iterative solver
           323 MiB given to the printing process from OS
             0 MiB allocation reported by mallinfo(arena+hblkhd)
          4257 MiB available memory on the node where the printing process lives
------------------
     ethr =  1.60E-08,  avg # of iterations =  1.2

     negative rho (up, down):  4.554E-03 0.000E+00

     total cpu time spent up to now is     3277.1 secs

     total energy              =  -22294.03798310 Ry
     estimated scf accuracy    <       0.00000302 Ry

     iteration # 17     ecut=    40.00 Ry     beta= 0.40
     Davidson diagonalization with overlap

---- Real-time Memory Report at c_bands before calling an iterative solver
           323 MiB given to the printing process from OS
             0 MiB allocation reported by mallinfo(arena+hblkhd)
          4258 MiB available memory on the node where the printing process lives
------------------
     ethr =  3.03E-10,  avg # of iterations =  2.0

     negative rho (up, down):  4.554E-03 0.000E+00

     total cpu time spent up to now is     3466.1 secs

     total energy              =  -22294.03798344 Ry
     estimated scf accuracy    <       0.00000131 Ry

     iteration # 18     ecut=    40.00 Ry     beta= 0.40
     Davidson diagonalization with overlap

---- Real-time Memory Report at c_bands before calling an iterative solver
           323 MiB given to the printing process from OS
             0 MiB allocation reported by mallinfo(arena+hblkhd)
          4258 MiB available memory on the node where the printing process lives
------------------
     ethr =  1.31E-10,  avg # of iterations =  2.0

     negative rho (up, down):  4.554E-03 0.000E+00

     total cpu time spent up to now is     3650.6 secs

     End of self-consistent calculation

          k = 0.0000 0.0000 0.0000 ( 64855 PWs)   bands (ev):

  -124.5182-124.5168-124.5164-124.5160-124.5157-124.5150-124.5144-124.5140
  -124.5138-124.5136-124.5130-124.5127-124.5122-124.5121-124.5117-124.5117
  -124.5080-124.5068-124.5064-124.5061-124.5057-124.5053-124.5047-124.5046
  -124.5044-124.5042-124.5040-124.5040-124.5037-124.5036-124.5034-124.5034
  -124.5031-124.5029-124.5028-124.5024-124.5023-124.5022-124.5019-124.5017
  -124.5016-124.5014-124.5011-124.5007-124.5004-124.5003-124.5002-124.4961
   -78.6803 -78.6786 -78.6783 -78.6777 -78.6776 -78.6773 -78.6772 -78.6770
   -78.6766 -78.6762 -78.6759 -78.6755 -78.6753 -78.6750 -78.6745 -78.6743
   -78.6737 -78.6735 -78.6734 -78.6732 -78.6731 -78.6731 -78.6715 -78.6712
   -78.6710 -78.6708 -78.6707 -78.6704 -78.6703 -78.6701 -78.6696 -78.6679
   -78.6676 -78.6667 -78.6665 -78.6664 -78.6663 -78.6662 -78.6660 -78.6659
   -78.6658 -78.6657 -78.6653 -78.6598 -78.6597 -78.6595 -78.6592 -78.6589
   -78.6587 -78.6575 -78.6574 -78.6571 -78.6571 -78.6567 -78.6565 -78.6562
   -78.6562 -78.6560 -78.6559 -78.6554 -78.6551 -78.6551 -78.6550 -78.6549
   -78.6548 -78.6547 -78.6546 -78.6546 -78.6544 -78.6543 -78.6542 -78.6541
   -78.6540 -78.6537 -78.6536 -78.6533 -78.6531 -78.6530 -78.6529 -78.6529
   -78.6528 -78.6528 -78.6528 -78.6526 -78.6526 -78.6525 -78.6525 -78.6522
   -78.6521 -78.6520 -78.6519 -78.6518 -78.6516 -78.6516 -78.6514 -78.6514
   -78.6511 -78.6509 -78.6505 -78.6504 -78.6503 -78.6503 -78.6502 -78.6501
   -78.6500 -78.6499 -78.6497 -78.6496 -78.6492 -78.6491 -78.6488 -78.6481
   -78.6479 -78.6470 -78.6469 -78.6466 -78.6462 -78.6460 -78.6459 -78.6459
   -78.6458 -78.6457 -78.6452 -78.6451 -78.6448 -78.6442 -78.6430 -78.6425
   -78.6421 -78.6418 -78.6417 -78.6416 -78.6414 -78.6413 -78.6412 -78.6411
   -78.6407 -78.6407 -78.6405 -78.6404 -78.6366 -78.6366 -78.6365 -78.6365
   -17.1761 -14.8511 -12.4510 -12.0326  -9.1945  -8.9425  -8.0822  -7.1508
    -7.0205  -6.9272  -6.6400  -6.5401  -6.5392  -6.5384  -6.5376  -6.5362
    -6.5354  -6.3627  -6.3626  -6.3625  -6.3182  -6.3181  -6.3181  -6.3018
    -6.3017  -6.3017  -6.1467  -6.1465  -6.1464  -6.1462  -6.1458  -6.1457
    -6.1278  -6.1277  -6.1274  -6.1273  -6.1270  -6.1267  -6.0696  -6.0694
    -6.0693  -5.9668  -5.9665  -5.9660  -5.9658  -5.9654  -5.9650  -5.9171
    -5.9167  -5.9166  -5.9119  -5.9117  -5.9116  -5.9113  -5.9112  -5.9111
    -5.8887  -5.8885  -5.8881  -5.8881  -5.8873  -5.8869  -5.8256  -5.8150
    -5.7916  -5.7914  -5.7910  -5.7907  -5.7903  -5.7903  -5.7810  -5.7808
    -5.7804  -5.7804  -5.7801  -5.7798  -5.7770  -5.7769  -5.7766  -5.7764
    -5.7760  -5.7759  -5.7463  -5.7462  -5.7458  -5.7456  -5.7454  -5.7452
    -5.7058  -5.7058  -5.7057  -5.6703  -5.6702  -5.6693  -5.6691  -5.6690
    -5.6689  -5.6035  -5.6034  -5.6030  -5.6028  -5.6026  -5.6023  -5.5713
    -5.5713  -5.5566  -5.5566  -5.5354  -5.5354  -5.5179  -5.5178  -5.5176
    -5.5176  -5.5174  -5.5173  -5.5005  -5.5004  -5.5003  -5.5002  -5.5001
    -5.4999  -5.4603  -5.4603  -5.4597  -5.4595  -5.4591  -5.4590  -5.3949
    -5.3947  -5.3945  -5.3944  -5.3943  -5.3942  -5.3940  -5.3938  -5.3936
    -5.3935  -5.3933  -5.3932  -5.3660  -5.3658  -5.3657  -5.3656  -5.3655
    -5.3653  -5.3623  -5.3622  -5.3620  -5.3619  -5.3617  -5.3616  -5.3314
    -5.3313  -5.3313  -5.3207  -5.3205  -5.3203  -5.3202  -5.3199  -5.3198
    -5.3169  -5.2678  -5.2677  -5.2675  -5.2486  -5.2483  -5.2481  -5.2480
    -5.2478  -5.2477  -5.1874  -5.1872  -5.1867  -5.1864  -5.1860  -5.1859
    -5.1656  -5.1655  -5.1653  -5.1634  -5.1633  -5.1631  -5.1630  -5.1627
    -5.1624  -5.1618  -5.1616  -5.1615  -5.1613  -5.1608  -5.1607  -5.1512
    -5.1510  -5.1505  -5.1505  -5.1504  -5.1502  -5.1501  -5.1498  -5.1498
    -5.1495  -5.1494  -5.1492  -5.1386  -5.1385  -5.1382  -5.1380  -5.1379
    -5.1377  -5.1081  -5.1080  -5.0639  -5.0638  -5.0636  -5.0633  -5.0631
    -5.0630  -5.0230  -5.0229  -5.0229  -5.0206  -5.0204  -5.0200  -5.0200
    -5.0200  -4.9959  -4.9957  -4.9956  -4.9825  -4.9821  -4.9820  -4.9819
    -4.9816  -4.9815  -4.9632  -4.9632  -4.9441  -4.9440  -4.9438  -4.9436
    -4.9434  -4.9430  -4.8531  -4.8530  -4.8528  -4.8526  -4.8524  -4.8523
    -4.7269  -4.7269  -4.7269  -4.7205  -4.7204  -4.7203  -4.7138  -4.7138
    -4.7138  -4.5747  -4.5732  -4.1902  -4.0155  -3.9951  -3.9939  -3.9929
    -3.9912  -3.9880  -3.6128  -3.0700  -2.6759  -2.2097  -1.8563  -1.6827
    -1.6820  -1.6799  -1.6786  -1.6575  -1.6008  -1.5938  -1.5932  -1.5929
    -1.5916  -1.5911  -1.5547  -0.3679  -0.3207  -0.3113  -0.3105  -0.3077
    -0.2528  -0.2508  -0.2500  -0.2488  -0.2465  -0.2194   0.4018   0.4035
     0.4041   0.6370   0.6444   0.6454   0.9536   1.8887   1.8904   1.8918
     1.8931   1.8944   1.9024   1.9369   1.9445   1.9634   1.9826   1.9847
     1.9903   2.6905   2.6914   2.6920   3.3788   3.6595   3.6616   3.6636
     4.4690   4.4860   4.4968   4.7024   4.8728   5.0526   5.0867   5.1300
     5.1444   5.2087   5.2943   5.3559   5.5833   5.7816   5.7948   5.7987
     5.8096   5.8217   5.8333   5.9489   5.9493   5.9507   5.9517   5.9536
     5.9549   6.1214   6.1215   6.1244   6.1247   6.1255   6.1262   6.2688
     6.4116   6.4712   6.5952   6.6540   6.8581   6.8747   6.9377   6.9476
     6.9502   7.3409   7.3553   7.3623   7.3674   7.3760   7.4017   7.4020
     7.4042   7.4044   7.4055   7.4057   7.4083   7.4551   7.5597   7.5650
     7.5660   7.5668   7.5725   7.5739   7.9729   8.0433   8.0546   8.1223
     8.1471   8.1685   8.1917   8.2024   8.2889   8.3049   8.3296   8.3741
     8.3957   8.4335   8.4538   8.4627   8.5101   8.5410   8.5957   8.6999
     8.7186   8.7244   8.9154   9.0337   9.0623   9.3479

     occupation numbers 
     1.0000   1.0000   1.0000   1.0000   1.0000   1.0000   1.0000   1.0000
     1.0000   1.0000   1.0000   1.0000   1.0000   1.0000   1.0000   1.0000
     1.0000   1.0000   1.0000   1.0000   1.0000   1.0000   1.0000   1.0000
     1.0000   1.0000   1.0000   1.0000   1.0000   1.0000   1.0000   1.0000
     1.0000   1.0000   1.0000   1.0000   1.0000   1.0000   1.0000   1.0000
     1.0000   1.0000   1.0000   1.0000   1.0000   1.0000   1.0000   1.0000
     1.0000   1.0000   1.0000   1.0000   1.0000   1.0000   1.0000   1.0000
     1.0000   1.0000   1.0000   1.0000   1.0000   1.0000   1.0000   1.0000
     1.0000   1.0000   1.0000   1.0000   1.0000   1.0000   1.0000   1.0000
     1.0000   1.0000   1.0000   1.0000   1.0000   1.0000   1.0000   1.0000
     1.0000   1.0000   1.0000   1.0000   1.0000   1.0000   1.0000   1.0000
     1.0000   1.0000   1.0000   1.0000   1.0000   1.0000   1.0000   1.0000
     1.0000   1.0000   1.0000   1.0000   1.0000   1.0000   1.0000   1.0000
     1.0000   1.0000   1.0000   1.0000   1.0000   1.0000   1.0000   1.0000
     1.0000   1.0000   1.0000   1.0000   1.0000   1.0000   1.0000   1.0000
     1.0000   1.0000   1.0000   1.0000   1.0000   1.0000   1.0000   1.0000
     1.0000   1.0000   1.0000   1.0000   1.0000   1.0000   1.0000   1.0000
     1.0000   1.0000   1.0000   1.0000   1.0000   1.0000   1.0000   1.0000
     1.0000   1.0000   1.0000   1.0000   1.0000   1.0000   1.0000   1.0000
     1.0000   1.0000   1.0000   1.0000   1.0000   1.0000   1.0000   1.0000
     1.0000   1.0000   1.0000   1.0000   1.0000   1.0000   1.0000   1.0000
     1.0000   1.0000   1.0000   1.0000   1.0000   1.0000   1.0000   1.0000
     1.0000   1.0000   1.0000   1.0000   1.0000   1.0000   1.0000   1.0000
     1.0000   1.0000   1.0000   1.0000   1.0000   1.0000   1.0000   1.0000
     1.0000   1.0000   1.0000   1.0000   1.0000   1.0000   1.0000   1.0000
     1.0000   1.0000   1.0000   1.0000   1.0000   1.0000   1.0000   1.0000
     1.0000   1.0000   1.0000   1.0000   1.0000   1.0000   1.0000   1.0000
     1.0000   1.0000   1.0000   1.0000   1.0000   1.0000   1.0000   1.0000
     1.0000   1.0000   1.0000   1.0000   1.0000   1.0000   1.0000   1.0000
     1.0000   1.0000   1.0000   1.0000   1.0000   1.0000   1.0000   1.0000
     1.0000   1.0000   1.0000   1.0000   1.0000   1.0000   1.0000   1.0000
     1.0000   1.0000   1.0000   1.0000   1.0000   1.0000   1.0000   1.0000
     1.0000   1.0000   1.0000   1.0000   1.0000   1.0000   1.0000   1.0000
     1.0000   1.0000   1.0000   1.0000   1.0000   1.0000   1.0000   1.0000
     1.0000   1.0000   1.0000   1.0000   1.0000   1.0000   1.0000   1.0000
     1.0000   1.0000   1.0000   1.0000   1.0000   1.0000   1.0000   1.0000
     1.0000   1.0000   1.0000   1.0000   1.0000   1.0000   1.0000   1.0000
     1.0000   1.0000   1.0000   1.0000   1.0000   1.0000   1.0000   1.0000
     1.0000   1.0000   1.0000   1.0000   1.0000   1.0000   1.0000   1.0000
     1.0000   1.0000   1.0000   1.0000   1.0000   1.0000   1.0000   1.0000
     1.0000   1.0000   1.0000   1.0000   1.0000   1.0000   1.0000   1.0000
     1.0000   1.0000   1.0000   1.0000   1.0000   1.0000   1.0000   1.0000
     1.0000   1.0000   1.0000   1.0000   1.0000   1.0000   1.0000   1.0000
     1.0000   1.0000   1.0000   1.0000   1.0000   1.0000   1.0000   1.0000
     1.0000   1.0000   1.0000   1.0000   1.0000   1.0000   1.0000   1.0000
     1.0000   1.0000   1.0000   1.0000   1.0000   1.0000   1.0000   1.0000
     1.0000   1.0000   1.0000   1.0000   1.0000   1.0000   1.0000   1.0000
     1.0000   1.0000   1.0000   1.0000   1.0000   1.0000   1.0000   1.0000
     1.0000   1.0000   1.0000   1.0000   1.0000   1.0000   1.0000   1.0000
     1.0000   1.0000   1.0000   1.0000   1.0000   1.0000   1.0000   1.0000
     1.0000   1.0000   1.0000   1.0000   1.0000   1.0000   1.0000   1.0000
     1.0000   1.0000   1.0000   1.0000   1.0000   1.0000   1.0000   1.0000
     1.0000   1.0000   1.0000   1.0000   1.0000   1.0000   1.0000   1.0000
     1.0000   1.0000   1.0000   1.0000   1.0000   1.0000   1.0000   1.0000
     1.0000   1.0000   1.0000   1.0000   1.0000   1.0000   1.0000   1.0000
     1.0000   1.0000   1.0000   1.0000   1.0000   1.0000   1.0000   1.0000
     1.0000   1.0000   1.0000   1.0000   1.0000   1.0000   1.0000   1.0000
     1.0000   1.0000   1.0000   1.0000   1.0000   1.0000   1.0000   1.0000
     1.0000   1.0000   1.0000   1.0000   1.0000   1.0000   1.0000   1.0000
     1.0000   1.0000   1.0000   1.0000   1.0000   1.0000   1.0000   1.0000
     1.0000   1.0000   1.0000   1.0000   1.0000   1.0000   1.0000   1.0000
     1.0000   1.0000   1.0000   1.0000   1.0001   0.4478   0.4433   0.4398
     0.4363   0.4330   0.4124   0.3289   0.3117   0.2711   0.2333   0.2292
     0.2191   0.0000   0.0000   0.0000   0.0000   0.0000   0.0000   0.0000
     0.0000   0.0000   0.0000   0.0000   0.0000   0.0000   0.0000   0.0000
     0.0000   0.0000   0.0000   0.0000   0.0000   0.0000   0.0000   0.0000
     0.0000   0.0000   0.0000   0.0000   0.0000   0.0000   0.0000   0.0000
     0.0000   0.0000   0.0000   0.0000   0.0000   0.0000   0.0000   0.0000
     0.0000   0.0000   0.0000   0.0000   0.0000   0.0000   0.0000   0.0000
     0.0000   0.0000   0.0000   0.0000   0.0000   0.0000   0.0000   0.0000
     0.0000   0.0000   0.0000   0.0000   0.0000   0.0000   0.0000   0.0000
     0.0000   0.0000   0.0000   0.0000   0.0000   0.0000   0.0000   0.0000
     0.0000   0.0000   0.0000   0.0000   0.0000   0.0000   0.0000   0.0000
     0.0000   0.0000   0.0000   0.0000   0.0000   0.0000   0.0000   0.0000
     0.0000   0.0000   0.0000   0.0000   0.0000   0.0000

          k = 0.0000-0.5774 0.0000 ( 64842 PWs)   bands (ev):

  -124.5181-124.5168-124.5165-124.5160-124.5155-124.5151-124.5144-124.5141
  -124.5137-124.5135-124.5131-124.5126-124.5123-124.5121-124.5117-124.5116
  -124.5079-124.5070-124.5064-124.5059-124.5055-124.5053-124.5048-124.5048
  -124.5044-124.5044-124.5040-124.5040-124.5036-124.5034-124.5033-124.5032
  -124.5029-124.5029-124.5029-124.5025-124.5024-124.5022-124.5020-124.5018
  -124.5016-124.5014-124.5011-124.5007-124.5003-124.5002-124.5002-124.4961
   -78.6802 -78.6787 -78.6784 -78.6778 -78.6771 -78.6767 -78.6760 -78.6757
   -78.6755 -78.6753 -78.6749 -78.6747 -78.6745 -78.6741 -78.6740 -78.6737
   -78.6736 -78.6736 -78.6733 -78.6730 -78.6729 -78.6717 -78.6714 -78.6711
   -78.6707 -78.6702 -78.6701 -78.6699 -78.6698 -78.6695 -78.6694 -78.6690
   -78.6690 -78.6682 -78.6675 -78.6674 -78.6671 -78.6665 -78.6663 -78.6662
   -78.6661 -78.6660 -78.6659 -78.6658 -78.6629 -78.6628 -78.6622 -78.6621
   -78.6619 -78.6618 -78.6618 -78.6617 -78.6613 -78.6611 -78.6577 -78.6576
   -78.6570 -78.6569 -78.6564 -78.6557 -78.6554 -78.6549 -78.6543 -78.6542
   -78.6540 -78.6537 -78.6535 -78.6533 -78.6532 -78.6529 -78.6528 -78.6526
   -78.6524 -78.6523 -78.6521 -78.6520 -78.6517 -78.6517 -78.6517 -78.6515
   -78.6514 -78.6514 -78.6513 -78.6511 -78.6510 -78.6507 -78.6506 -78.6506
   -78.6505 -78.6505 -78.6504 -78.6502 -78.6501 -78.6500 -78.6499 -78.6499
   -78.6498 -78.6497 -78.6496 -78.6494 -78.6493 -78.6492 -78.6491 -78.6491
   -78.6490 -78.6490 -78.6488 -78.6487 -78.6486 -78.6483 -78.6481 -78.6480
   -78.6479 -78.6471 -78.6468 -78.6467 -78.6461 -78.6459 -78.6457 -78.6456
   -78.6455 -78.6455 -78.6454 -78.6452 -78.6447 -78.6445 -78.6443 -78.6443
   -78.6441 -78.6438 -78.6436 -78.6429 -78.6425 -78.6422 -78.6417 -78.6415
   -78.6415 -78.6409 -78.6407 -78.6393 -78.6391 -78.6382 -78.6378 -78.6371
   -17.1761 -14.8511 -12.4511 -12.0326  -9.1943  -8.9425  -7.6170  -7.6124
    -7.1511  -6.9277  -6.7782  -6.7779  -6.6453  -6.6425  -6.4064  -6.4039
    -6.3156  -6.3141  -6.2468  -6.2455  -6.2341  -6.2336  -6.2060  -6.2055
    -6.2029  -6.2028  -6.1610  -6.1610  -6.1594  -6.1594  -6.1408  -6.1403
    -6.1388  -6.1385  -6.1194  -6.1193  -6.1192  -6.1192  -6.1064  -6.1060
    -6.0772  -6.0768  -6.0254  -6.0253  -6.0251  -6.0250  -6.0244  -6.0243
    -6.0242  -6.0241  -5.9955  -5.9949  -5.9946  -5.9937  -5.9936  -5.9928
    -5.9416  -5.9413  -5.8952  -5.8950  -5.8806  -5.8804  -5.8803  -5.8802
    -5.8779  -5.8776  -5.8671  -5.8659  -5.8561  -5.8552  -5.8544  -5.8542
    -5.8229  -5.7991  -5.7991  -5.7990  -5.7987  -5.7832  -5.7820  -5.7818
    -5.7817  -5.7701  -5.7698  -5.7518  -5.7517  -5.7026  -5.7024  -5.6891
    -5.6890  -5.6887  -5.6884  -5.6740  -5.6739  -5.6731  -5.6730  -5.6576
    -5.6575  -5.6545  -5.6544  -5.6346  -5.6330  -5.6296  -5.6293  -5.6213
    -5.6206  -5.5842  -5.5842  -5.5840  -5.5839  -5.5802  -5.5796  -5.5715
    -5.5712  -5.5709  -5.5707  -5.5148  -5.5148  -5.4986  -5.4985  -5.4851
    -5.4844  -5.4587  -5.4561  -5.4468  -5.4454  -5.4254  -5.4244  -5.4240
    -5.4240  -5.4238  -5.4236  -5.3910  -5.3909  -5.3906  -5.3905  -5.3868
    -5.3866  -5.3632  -5.3632  -5.3565  -5.3563  -5.3560  -5.3557  -5.3433
    -5.3427  -5.3377  -5.3377  -5.3370  -5.3367  -5.3096  -5.3094  -5.3042
    -5.3028  -5.2939  -5.2937  -5.2932  -5.2932  -5.2930  -5.2929  -5.2589
    -5.2588  -5.2363  -5.2361  -5.2304  -5.2303  -5.2301  -5.2300  -5.2232
    -5.2230  -5.2184  -5.2181  -5.2180  -5.2175  -5.1964  -5.1962  -5.1880
    -5.1871  -5.1577  -5.1577  -5.1574  -5.1573  -5.1493  -5.1482  -5.1422
    -5.1413  -5.1298  -5.1295  -5.1242  -5.1233  -5.1101  -5.1098  -5.1097
    -5.1092  -5.1045  -5.1040  -5.1039  -5.1036  -5.1031  -5.1029  -5.0855
    -5.0851  -5.0845  -5.0844  -5.0699  -5.0698  -5.0653  -5.0651  -5.0646
    -5.0644  -5.0600  -5.0599  -5.0596  -5.0596  -5.0532  -5.0529  -5.0386
    -5.0377  -5.0201  -5.0199  -5.0149  -5.0140  -5.0058  -5.0055  -4.9739
    -4.9737  -4.9676  -4.9665  -4.9563  -4.9561  -4.9557  -4.9555  -4.9521
    -4.9519  -4.9518  -4.9516  -4.9147  -4.9146  -4.9146  -4.9145  -4.8956
    -4.8953  -4.8942  -4.8939  -4.8559  -4.8550  -4.8471  -4.8461  -4.8426
    -4.8419  -4.8238  -4.8235  -4.8229  -4.8229  -4.7999  -4.7972  -4.5741
    -4.5725  -4.2960  -4.2937  -4.1858  -3.9367  -3.9351  -3.9350  -3.9347
    -3.6254  -3.2237  -3.2222  -2.7704  -2.7423  -2.6766  -2.6719  -2.6697
    -2.6632  -2.6621  -2.2106  -2.0772  -2.0376  -1.8560  -1.8463  -1.7087
    -1.2445  -1.2429  -1.2411  -1.2409  -0.4739  -0.4143  -0.4069  -0.4009
    -0.2871   0.0628   0.0665   0.0691   0.0716   0.2954   0.3078   0.3663
     0.3796   0.9584   1.4362   1.4388   1.5584   1.5588   1.7929   1.7956
     1.7974   1.8041   1.8360   1.8362   2.6230   2.6236   3.3387   3.3396
     3.3410   3.3424   3.4636   3.4713   3.4768   3.4857   3.7034   3.7042
     3.7949   3.8615   4.2501   4.2544   4.2555   4.2576   4.3247   4.3757
     4.6459   4.7110   4.7616   4.7690   4.8462   5.0942   5.1176   5.2091
     5.3271   5.3313   5.3996   5.5031   5.8735   5.8782   6.0017   6.0213
     6.1785   6.1849   6.1995   6.2678   6.2747   6.2955   6.3069   6.3250
     6.3359   6.3364   6.3387   6.3492   6.4354   6.4501   6.4623   6.5156
     6.8033   6.8391   6.9193   6.9341   6.9503   6.9514   7.0132   7.0614
     7.1818   7.1929   7.4687   7.5022   7.5123   7.5192   7.5681   7.6390
     7.7372   7.8021   7.9026   7.9425   8.0386   8.2360   8.3801   8.4163
     8.4272   8.4560   8.6058   8.6167   8.6200   8.6312   8.7281   8.7385
     8.7567   8.8361   8.9243   8.9290   8.9305   8.9545   9.0340   9.0563
     9.0860   9.0898   9.1257   9.1721   9.2427   9.2459

     occupation numbers 
     1.0000   1.0000   1.0000   1.0000   1.0000   1.0000   1.0000   1.0000
     1.0000   1.0000   1.0000   1.0000   1.0000   1.0000   1.0000   1.0000
     1.0000   1.0000   1.0000   1.0000   1.0000   1.0000   1.0000   1.0000
     1.0000   1.0000   1.0000   1.0000   1.0000   1.0000   1.0000   1.0000
     1.0000   1.0000   1.0000   1.0000   1.0000   1.0000   1.0000   1.0000
     1.0000   1.0000   1.0000   1.0000   1.0000   1.0000   1.0000   1.0000
     1.0000   1.0000   1.0000   1.0000   1.0000   1.0000   1.0000   1.0000
     1.0000   1.0000   1.0000   1.0000   1.0000   1.0000   1.0000   1.0000
     1.0000   1.0000   1.0000   1.0000   1.0000   1.0000   1.0000   1.0000
     1.0000   1.0000   1.0000   1.0000   1.0000   1.0000   1.0000   1.0000
     1.0000   1.0000   1.0000   1.0000   1.0000   1.0000   1.0000   1.0000
     1.0000   1.0000   1.0000   1.0000   1.0000   1.0000   1.0000   1.0000
     1.0000   1.0000   1.0000   1.0000   1.0000   1.0000   1.0000   1.0000
     1.0000   1.0000   1.0000   1.0000   1.0000   1.0000   1.0000   1.0000
     1.0000   1.0000   1.0000   1.0000   1.0000   1.0000   1.0000   1.0000
     1.0000   1.0000   1.0000   1.0000   1.0000   1.0000   1.0000   1.0000
     1.0000   1.0000   1.0000   1.0000   1.0000   1.0000   1.0000   1.0000
     1.0000   1.0000   1.0000   1.0000   1.0000   1.0000   1.0000   1.0000
     1.0000   1.0000   1.0000   1.0000   1.0000   1.0000   1.0000   1.0000
     1.0000   1.0000   1.0000   1.0000   1.0000   1.0000   1.0000   1.0000
     1.0000   1.0000   1.0000   1.0000   1.0000   1.0000   1.0000   1.0000
     1.0000   1.0000   1.0000   1.0000   1.0000   1.0000   1.0000   1.0000
     1.0000   1.0000   1.0000   1.0000   1.0000   1.0000   1.0000   1.0000
     1.0000   1.0000   1.0000   1.0000   1.0000   1.0000   1.0000   1.0000
     1.0000   1.0000   1.0000   1.0000   1.0000   1.0000   1.0000   1.0000
     1.0000   1.0000   1.0000   1.0000   1.0000   1.0000   1.0000   1.0000
     1.0000   1.0000   1.0000   1.0000   1.0000   1.0000   1.0000   1.0000
     1.0000   1.0000   1.0000   1.0000   1.0000   1.0000   1.0000   1.0000
     1.0000   1.0000   1.0000   1.0000   1.0000   1.0000   1.0000   1.0000
     1.0000   1.0000   1.0000   1.0000   1.0000   1.0000   1.0000   1.0000
     1.0000   1.0000   1.0000   1.0000   1.0000   1.0000   1.0000   1.0000
     1.0000   1.0000   1.0000   1.0000   1.0000   1.0000   1.0000   1.0000
     1.0000   1.0000   1.0000   1.0000   1.0000   1.0000   1.0000   1.0000
     1.0000   1.0000   1.0000   1.0000   1.0000   1.0000   1.0000   1.0000
     1.0000   1.0000   1.0000   1.0000   1.0000   1.0000   1.0000   1.0000
     1.0000   1.0000   1.0000   1.0000   1.0000   1.0000   1.0000   1.0000
     1.0000   1.0000   1.0000   1.0000   1.0000   1.0000   1.0000   1.0000
     1.0000   1.0000   1.0000   1.0000   1.0000   1.0000   1.0000   1.0000
     1.0000   1.0000   1.0000   1.0000   1.0000   1.0000   1.0000   1.0000
     1.0000   1.0000   1.0000   1.0000   1.0000   1.0000   1.0000   1.0000
     1.0000   1.0000   1.0000   1.0000   1.0000   1.0000   1.0000   1.0000
     1.0000   1.0000   1.0000   1.0000   1.0000   1.0000   1.0000   1.0000
     1.0000   1.0000   1.0000   1.0000   1.0000   1.0000   1.0000   1.0000
     1.0000   1.0000   1.0000   1.0000   1.0000   1.0000   1.0000   1.0000
     1.0000   1.0000   1.0000   1.0000   1.0000   1.0000   1.0000   1.0000
     1.0000   1.0000   1.0000   1.0000   1.0000   1.0000   1.0000   1.0000
     1.0000   1.0000   1.0000   1.0000   1.0000   1.0000   1.0000   1.0000
     1.0000   1.0000   1.0000   1.0000   1.0000   1.0000   1.0000   1.0000
     1.0000   1.0000   1.0000   1.0000   1.0000   1.0000   1.0000   1.0000
     1.0000   1.0000   1.0000   1.0000   1.0000   1.0000   1.0000   1.0000
     1.0000   1.0000   1.0000   1.0000   1.0000   1.0000   1.0000   1.0000
     1.0000   1.0000   1.0000   1.0000   1.0000   1.0000   1.0000   1.0000
     1.0000   1.0000   1.0000   1.0000   1.0000   1.0000   1.0000   1.0000
     1.0000   1.0000   1.0000   1.0000   1.0000   1.0000   1.0000   1.0000
     1.0000   1.0000   1.0000   1.0000   1.0000   1.0000   1.0000   1.0000
     1.0000   1.0000   1.0000   1.0000   1.0000   1.0000   1.0000   1.0000
     1.0000   1.0000   1.0000   1.0000   1.0000   1.0000   1.0000   1.0000
     1.0000   1.0000   1.0000   1.0000   1.0000   1.0000   1.0000   1.0000
     1.0000   1.0000   1.0000   1.0000   1.0000   1.0000   1.0000   1.0000
     1.0000   1.0000   1.0000   1.0000   1.0000   1.0000   1.0000   1.0000
     1.0000   1.0000   1.0000   1.0000   1.0000   1.0000   1.0000   1.0000
     1.0000   1.0001   1.0661   1.0669   1.0785   1.0784   0.7094   0.7022
     0.6973   0.6793   0.5912   0.5907   0.0000   0.0000   0.0000   0.0000
     0.0000   0.0000   0.0000   0.0000   0.0000   0.0000   0.0000   0.0000
     0.0000   0.0000   0.0000   0.0000   0.0000   0.0000   0.0000   0.0000
     0.0000   0.0000   0.0000   0.0000   0.0000   0.0000   0.0000   0.0000
     0.0000   0.0000   0.0000   0.0000   0.0000   0.0000   0.0000   0.0000
     0.0000   0.0000   0.0000   0.0000   0.0000   0.0000   0.0000   0.0000
     0.0000   0.0000   0.0000   0.0000   0.0000   0.0000   0.0000   0.0000
     0.0000   0.0000   0.0000   0.0000   0.0000   0.0000   0.0000   0.0000
     0.0000   0.0000   0.0000   0.0000   0.0000   0.0000   0.0000   0.0000
     0.0000   0.0000   0.0000   0.0000   0.0000   0.0000   0.0000   0.0000
     0.0000   0.0000   0.0000   0.0000   0.0000   0.0000   0.0000   0.0000
     0.0000   0.0000   0.0000   0.0000   0.0000   0.0000   0.0000   0.0000
     0.0000   0.0000   0.0000   0.0000   0.0000   0.0000

          k =-0.5000-0.2887 0.0000 ( 64842 PWs)   bands (ev):

  -124.5181-124.5168-124.5167-124.5157-124.5156-124.5150-124.5146-124.5142
  -124.5138-124.5133-124.5130-124.5126-124.5123-124.5122-124.5117-124.5116
  -124.5079-124.5069-124.5065-124.5058-124.5055-124.5054-124.5049-124.5047
  -124.5043-124.5042-124.5041-124.5041-124.5037-124.5035-124.5035-124.5031
  -124.5029-124.5029-124.5027-124.5025-124.5024-124.5022-124.5021-124.5018
  -124.5016-124.5014-124.5011-124.5007-124.5003-124.5002-124.5002-124.4961
   -78.6802 -78.6786 -78.6786 -78.6775 -78.6772 -78.6765 -78.6762 -78.6757
   -78.6753 -78.6750 -78.6749 -78.6748 -78.6746 -78.6742 -78.6741 -78.6739
   -78.6738 -78.6737 -78.6732 -78.6730 -78.6729 -78.6716 -78.6715 -78.6709
   -78.6707 -78.6705 -78.6698 -78.6698 -78.6698 -78.6695 -78.6694 -78.6691
   -78.6689 -78.6683 -78.6675 -78.6671 -78.6671 -78.6663 -78.6662 -78.6662
   -78.6661 -78.6660 -78.6659 -78.6658 -78.6629 -78.6626 -78.6624 -78.6620
   -78.6619 -78.6618 -78.6617 -78.6616 -78.6613 -78.6612 -78.6580 -78.6574
   -78.6571 -78.6568 -78.6564 -78.6557 -78.6554 -78.6549 -78.6543 -78.6539
   -78.6538 -78.6537 -78.6535 -78.6535 -78.6532 -78.6530 -78.6529 -78.6528
   -78.6523 -78.6523 -78.6522 -78.6520 -78.6519 -78.6518 -78.6517 -78.6516
   -78.6514 -78.6513 -78.6512 -78.6510 -78.6509 -78.6509 -78.6507 -78.6506
   -78.6505 -78.6504 -78.6503 -78.6502 -78.6501 -78.6500 -78.6500 -78.6499
   -78.6498 -78.6498 -78.6496 -78.6493 -78.6493 -78.6491 -78.6491 -78.6490
   -78.6490 -78.6489 -78.6488 -78.6486 -78.6485 -78.6485 -78.6483 -78.6481
   -78.6479 -78.6468 -78.6467 -78.6466 -78.6461 -78.6458 -78.6458 -78.6457
   -78.6456 -78.6455 -78.6454 -78.6454 -78.6449 -78.6447 -78.6442 -78.6442
   -78.6441 -78.6437 -78.6436 -78.6429 -78.6423 -78.6421 -78.6417 -78.6417
   -78.6412 -78.6408 -78.6407 -78.6394 -78.6391 -78.6382 -78.6378 -78.6371
   -17.1761 -14.8511 -12.4511 -12.0326  -9.1943  -8.9425  -7.6161  -7.6133
    -7.1511  -6.9277  -6.7782  -6.7779  -6.6445  -6.6433  -6.4057  -6.4045
    -6.3154  -6.3143  -6.2466  -6.2457  -6.2343  -6.2333  -6.2052  -6.2051
    -6.2036  -6.2034  -6.1608  -6.1606  -6.1598  -6.1595  -6.1400  -6.1399
    -6.1394  -6.1391  -6.1193  -6.1193  -6.1192  -6.1192  -6.1064  -6.1061
    -6.0771  -6.0769  -6.0253  -6.0253  -6.0251  -6.0250  -6.0243  -6.0243
    -6.0242  -6.0241  -5.9948  -5.9947  -5.9942  -5.9941  -5.9941  -5.9933
    -5.9416  -5.9414  -5.8952  -5.8950  -5.8805  -5.8805  -5.8803  -5.8802
    -5.8779  -5.8777  -5.8667  -5.8663  -5.8556  -5.8553  -5.8548  -5.8542
    -5.8230  -5.7991  -5.7990  -5.7989  -5.7988  -5.7832  -5.7822  -5.7818
    -5.7815  -5.7701  -5.7698  -5.7518  -5.7517  -5.7025  -5.7025  -5.6891
    -5.6889  -5.6886  -5.6884  -5.6743  -5.6739  -5.6730  -5.6726  -5.6576
    -5.6575  -5.6545  -5.6544  -5.6341  -5.6335  -5.6299  -5.6290  -5.6214
    -5.6205  -5.5842  -5.5842  -5.5840  -5.5839  -5.5801  -5.5796  -5.5713
    -5.5712  -5.5711  -5.5708  -5.5148  -5.5147  -5.4986  -5.4985  -5.4853
    -5.4842  -5.4581  -5.4566  -5.4467  -5.4455  -5.4250  -5.4242  -5.4242
    -5.4241  -5.4240  -5.4237  -5.3913  -5.3910  -5.3906  -5.3902  -5.3869
    -5.3866  -5.3632  -5.3632  -5.3563  -5.3562  -5.3561  -5.3558  -5.3434
    -5.3425  -5.3376  -5.3375  -5.3371  -5.3367  -5.3096  -5.3094  -5.3036
    -5.3034  -5.2937  -5.2936  -5.2933  -5.2932  -5.2931  -5.2930  -5.2589
    -5.2588  -5.2362  -5.2361  -5.2303  -5.2302  -5.2301  -5.2301  -5.2232
    -5.2231  -5.2183  -5.2181  -5.2179  -5.2176  -5.1964  -5.1962  -5.1879
    -5.1872  -5.1578  -5.1577  -5.1575  -5.1573  -5.1492  -5.1482  -5.1422
    -5.1413  -5.1298  -5.1296  -5.1241  -5.1234  -5.1102  -5.1098  -5.1097
    -5.1092  -5.1044  -5.1039  -5.1037  -5.1034  -5.1033  -5.1032  -5.0854
    -5.0850  -5.0847  -5.0844  -5.0699  -5.0698  -5.0651  -5.0651  -5.0648
    -5.0645  -5.0599  -5.0599  -5.0597  -5.0596  -5.0532  -5.0529  -5.0386
    -5.0377  -5.0202  -5.0198  -5.0145  -5.0144  -5.0058  -5.0055  -4.9739
    -4.9738  -4.9675  -4.9667  -4.9563  -4.9563  -4.9556  -4.9555  -4.9520
    -4.9520  -4.9518  -4.9516  -4.9147  -4.9146  -4.9146  -4.9145  -4.8954
    -4.8951  -4.8946  -4.8940  -4.8556  -4.8554  -4.8470  -4.8462  -4.8427
    -4.8417  -4.8236  -4.8235  -4.8231  -4.8229  -4.7989  -4.7981  -4.5741
    -4.5726  -4.2966  -4.2930  -4.1860  -3.9367  -3.9351  -3.9350  -3.9348
    -3.6252  -3.2233  -3.2227  -2.7691  -2.7423  -2.6789  -2.6719  -2.6695
    -2.6626  -2.6620  -2.2099  -2.0756  -2.0389  -1.8569  -1.8457  -1.7090
    -1.2437  -1.2432  -1.2418  -1.2407  -0.4744  -0.4140  -0.4072  -0.4008
    -0.2873   0.0638   0.0659   0.0676   0.0724   0.2953   0.3087   0.3669
     0.3793   0.9588   1.4360   1.4388   1.5584   1.5586   1.7927   1.7956
     1.7975   1.8049   1.8357   1.8360   2.6227   2.6232   3.3381   3.3399
     3.3411   3.3422   3.4616   3.4725   3.4775   3.4833   3.7036   3.7045
     3.7968   3.8603   4.2501   4.2550   4.2559   4.2569   4.3288   4.3755
     4.6455   4.7146   4.7610   4.7685   4.8359   5.1050   5.1138   5.2218
     5.3273   5.3282   5.3751   5.5223   5.8738   5.8767   6.0049   6.0160
     6.1762   6.1844   6.1899   6.2702   6.2737   6.3004   6.3099   6.3217
     6.3344   6.3367   6.3410   6.3527   6.4229   6.4513   6.4686   6.5190
     6.7995   6.8396   6.9170   6.9338   6.9505   6.9515   7.0069   7.0538
     7.1717   7.1993   7.4755   7.5045   7.5136   7.5180   7.5625   7.6280
     7.7599   7.8130   7.8891   7.9593   8.0462   8.2488   8.3739   8.4074
     8.4251   8.4814   8.6100   8.6128   8.6158   8.6427   8.7143   8.7310
     8.7507   8.8264   8.9111   8.9251   8.9355   8.9543   9.0320   9.0519
     9.0868   9.0900   9.1016   9.1842   9.2458   9.2606

     occupation numbers 
     1.0000   1.0000   1.0000   1.0000   1.0000   1.0000   1.0000   1.0000
     1.0000   1.0000   1.0000   1.0000   1.0000   1.0000   1.0000   1.0000
     1.0000   1.0000   1.0000   1.0000   1.0000   1.0000   1.0000   1.0000
     1.0000   1.0000   1.0000   1.0000   1.0000   1.0000   1.0000   1.0000
     1.0000   1.0000   1.0000   1.0000   1.0000   1.0000   1.0000   1.0000
     1.0000   1.0000   1.0000   1.0000   1.0000   1.0000   1.0000   1.0000
     1.0000   1.0000   1.0000   1.0000   1.0000   1.0000   1.0000   1.0000
     1.0000   1.0000   1.0000   1.0000   1.0000   1.0000   1.0000   1.0000
     1.0000   1.0000   1.0000   1.0000   1.0000   1.0000   1.0000   1.0000
     1.0000   1.0000   1.0000   1.0000   1.0000   1.0000   1.0000   1.0000
     1.0000   1.0000   1.0000   1.0000   1.0000   1.0000   1.0000   1.0000
     1.0000   1.0000   1.0000   1.0000   1.0000   1.0000   1.0000   1.0000
     1.0000   1.0000   1.0000   1.0000   1.0000   1.0000   1.0000   1.0000
     1.0000   1.0000   1.0000   1.0000   1.0000   1.0000   1.0000   1.0000
     1.0000   1.0000   1.0000   1.0000   1.0000   1.0000   1.0000   1.0000
     1.0000   1.0000   1.0000   1.0000   1.0000   1.0000   1.0000   1.0000
     1.0000   1.0000   1.0000   1.0000   1.0000   1.0000   1.0000   1.0000
     1.0000   1.0000   1.0000   1.0000   1.0000   1.0000   1.0000   1.0000
     1.0000   1.0000   1.0000   1.0000   1.0000   1.0000   1.0000   1.0000
     1.0000   1.0000   1.0000   1.0000   1.0000   1.0000   1.0000   1.0000
     1.0000   1.0000   1.0000   1.0000   1.0000   1.0000   1.0000   1.0000
     1.0000   1.0000   1.0000   1.0000   1.0000   1.0000   1.0000   1.0000
     1.0000   1.0000   1.0000   1.0000   1.0000   1.0000   1.0000   1.0000
     1.0000   1.0000   1.0000   1.0000   1.0000   1.0000   1.0000   1.0000
     1.0000   1.0000   1.0000   1.0000   1.0000   1.0000   1.0000   1.0000
     1.0000   1.0000   1.0000   1.0000   1.0000   1.0000   1.0000   1.0000
     1.0000   1.0000   1.0000   1.0000   1.0000   1.0000   1.0000   1.0000
     1.0000   1.0000   1.0000   1.0000   1.0000   1.0000   1.0000   1.0000
     1.0000   1.0000   1.0000   1.0000   1.0000   1.0000   1.0000   1.0000
     1.0000   1.0000   1.0000   1.0000   1.0000   1.0000   1.0000   1.0000
     1.0000   1.0000   1.0000   1.0000   1.0000   1.0000   1.0000   1.0000
     1.0000   1.0000   1.0000   1.0000   1.0000   1.0000   1.0000   1.0000
     1.0000   1.0000   1.0000   1.0000   1.0000   1.0000   1.0000   1.0000
     1.0000   1.0000   1.0000   1.0000   1.0000   1.0000   1.0000   1.0000
     1.0000   1.0000   1.0000   1.0000   1.0000   1.0000   1.0000   1.0000
     1.0000   1.0000   1.0000   1.0000   1.0000   1.0000   1.0000   1.0000
     1.0000   1.0000   1.0000   1.0000   1.0000   1.0000   1.0000   1.0000
     1.0000   1.0000   1.0000   1.0000   1.0000   1.0000   1.0000   1.0000
     1.0000   1.0000   1.0000   1.0000   1.0000   1.0000   1.0000   1.0000
     1.0000   1.0000   1.0000   1.0000   1.0000   1.0000   1.0000   1.0000
     1.0000   1.0000   1.0000   1.0000   1.0000   1.0000   1.0000   1.0000
     1.0000   1.0000   1.0000   1.0000   1.0000   1.0000   1.0000   1.0000
     1.0000   1.0000   1.0000   1.0000   1.0000   1.0000   1.0000   1.0000
     1.0000   1.0000   1.0000   1.0000   1.0000   1.0000   1.0000   1.0000
     1.0000   1.0000   1.0000   1.0000   1.0000   1.0000   1.0000   1.0000
     1.0000   1.0000   1.0000   1.0000   1.0000   1.0000   1.0000   1.0000
     1.0000   1.0000   1.0000   1.0000   1.0000   1.0000   1.0000   1.0000
     1.0000   1.0000   1.0000   1.0000   1.0000   1.0000   1.0000   1.0000
     1.0000   1.0000   1.0000   1.0000   1.0000   1.0000   1.0000   1.0000
     1.0000   1.0000   1.0000   1.0000   1.0000   1.0000   1.0000   1.0000
     1.0000   1.0000   1.0000   1.0000   1.0000   1.0000   1.0000   1.0000
     1.0000   1.0000   1.0000   1.0000   1.0000   1.0000   1.0000   1.0000
     1.0000   1.0000   1.0000   1.0000   1.0000   1.0000   1.0000   1.0000
     1.0000   1.0000   1.0000   1.0000   1.0000   1.0000   1.0000   1.0000
     1.0000   1.0000   1.0000   1.0000   1.0000   1.0000   1.0000   1.0000
     1.0000   1.0000   1.0000   1.0000   1.0000   1.0000   1.0000   1.0000
     1.0000   1.0000   1.0000   1.0000   1.0000   1.0000   1.0000   1.0000
     1.0000   1.0000   1.0000   1.0000   1.0000   1.0000   1.0000   1.0000
     1.0000   1.0000   1.0000   1.0000   1.0000   1.0000   1.0000   1.0000
     1.0000   1.0000   1.0000   1.0000   1.0000   1.0000   1.0000   1.0000
     1.0000   1.0000   1.0000   1.0000   1.0000   1.0000   1.0000   1.0000
     1.0000   1.0001   1.0660   1.0669   1.0785   1.0784   0.7101   0.7021
     0.6970   0.6769   0.5919   0.5912   0.0000   0.0000   0.0000   0.0000
     0.0000   0.0000   0.0000   0.0000   0.0000   0.0000   0.0000   0.0000
     0.0000   0.0000   0.0000   0.0000   0.0000   0.0000   0.0000   0.0000
     0.0000   0.0000   0.0000   0.0000   0.0000   0.0000   0.0000   0.0000
     0.0000   0.0000   0.0000   0.0000   0.0000   0.0000   0.0000   0.0000
     0.0000   0.0000   0.0000   0.0000   0.0000   0.0000   0.0000   0.0000
     0.0000   0.0000   0.0000   0.0000   0.0000   0.0000   0.0000   0.0000
     0.0000   0.0000   0.0000   0.0000   0.0000   0.0000   0.0000   0.0000
     0.0000   0.0000   0.0000   0.0000   0.0000   0.0000   0.0000   0.0000
     0.0000   0.0000   0.0000   0.0000   0.0000   0.0000   0.0000   0.0000
     0.0000   0.0000   0.0000   0.0000   0.0000   0.0000   0.0000   0.0000
     0.0000   0.0000   0.0000   0.0000   0.0000   0.0000   0.0000   0.0000
     0.0000   0.0000   0.0000   0.0000   0.0000   0.0000

          k =-0.5000-0.8660 0.0000 ( 64842 PWs)   bands (ev):

  -124.5181-124.5169-124.5165-124.5159-124.5156-124.5150-124.5145-124.5140
  -124.5137-124.5132-124.5131-124.5128-124.5122-124.5121-124.5117-124.5117
  -124.5079-124.5068-124.5066-124.5059-124.5055-124.5054-124.5049-124.5047
  -124.5044-124.5043-124.5041-124.5038-124.5038-124.5036-124.5034-124.5031
  -124.5030-124.5029-124.5026-124.5026-124.5024-124.5021-124.5019-124.5018
  -124.5016-124.5014-124.5011-124.5007-124.5003-124.5002-124.5002-124.4961
   -78.6802 -78.6787 -78.6784 -78.6776 -78.6772 -78.6766 -78.6761 -78.6756
   -78.6753 -78.6753 -78.6749 -78.6747 -78.6746 -78.6743 -78.6740 -78.6738
   -78.6736 -78.6734 -78.6732 -78.6730 -78.6728 -78.6715 -78.6713 -78.6709
   -78.6706 -78.6704 -78.6703 -78.6701 -78.6696 -78.6695 -78.6693 -78.6692
   -78.6688 -78.6683 -78.6676 -78.6673 -78.6671 -78.6667 -78.6664 -78.6664
   -78.6660 -78.6659 -78.6657 -78.6656 -78.6632 -78.6627 -78.6624 -78.6624
   -78.6621 -78.6616 -78.6614 -78.6614 -78.6612 -78.6609 -78.6581 -78.6574
   -78.6573 -78.6565 -78.6563 -78.6558 -78.6554 -78.6546 -78.6544 -78.6543
   -78.6539 -78.6538 -78.6536 -78.6533 -78.6531 -78.6529 -78.6528 -78.6526
   -78.6523 -78.6523 -78.6522 -78.6519 -78.6519 -78.6518 -78.6516 -78.6516
   -78.6515 -78.6513 -78.6512 -78.6511 -78.6509 -78.6508 -78.6507 -78.6506
   -78.6505 -78.6503 -78.6502 -78.6502 -78.6499 -78.6499 -78.6499 -78.6498
   -78.6497 -78.6496 -78.6496 -78.6494 -78.6493 -78.6492 -78.6492 -78.6491
   -78.6490 -78.6490 -78.6489 -78.6488 -78.6488 -78.6485 -78.6481 -78.6481
   -78.6479 -78.6471 -78.6469 -78.6467 -78.6461 -78.6461 -78.6460 -78.6457
   -78.6455 -78.6451 -78.6450 -78.6449 -78.6448 -78.6447 -78.6445 -78.6443
   -78.6442 -78.6438 -78.6435 -78.6428 -78.6426 -78.6422 -78.6418 -78.6416
   -78.6413 -78.6413 -78.6403 -78.6393 -78.6390 -78.6382 -78.6377 -78.6372
   -17.1761 -14.8511 -12.4510 -12.0325  -9.1941  -8.9426  -7.6158  -7.6137
    -7.1517  -6.9283  -6.7784  -6.7777  -6.6440  -6.6437  -6.4056  -6.4046
    -6.3154  -6.3143  -6.2462  -6.2460  -6.2340  -6.2337  -6.2051  -6.2051
    -6.2036  -6.2036  -6.1605  -6.1604  -6.1599  -6.1599  -6.1400  -6.1397
    -6.1395  -6.1392  -6.1194  -6.1194  -6.1192  -6.1191  -6.1065  -6.1061
    -6.0773  -6.0768  -6.0254  -6.0253  -6.0251  -6.0250  -6.0246  -6.0245
    -6.0240  -6.0239  -5.9950  -5.9948  -5.9943  -5.9940  -5.9939  -5.9932
    -5.9417  -5.9413  -5.8953  -5.8949  -5.8806  -5.8805  -5.8802  -5.8801
    -5.8780  -5.8776  -5.8666  -5.8664  -5.8553  -5.8550  -5.8549  -5.8548
    -5.8226  -5.7992  -5.7990  -5.7989  -5.7988  -5.7833  -5.7821  -5.7817
    -5.7816  -5.7701  -5.7698  -5.7519  -5.7516  -5.7027  -5.7024  -5.6891
    -5.6890  -5.6886  -5.6884  -5.6738  -5.6738  -5.6732  -5.6731  -5.6576
    -5.6574  -5.6545  -5.6544  -5.6341  -5.6335  -5.6299  -5.6290  -5.6212
    -5.6208  -5.5842  -5.5841  -5.5840  -5.5840  -5.5802  -5.5796  -5.5713
    -5.5711  -5.5709  -5.5708  -5.5148  -5.5147  -5.4986  -5.4985  -5.4850
    -5.4845  -5.4580  -5.4567  -5.4462  -5.4460  -5.4248  -5.4243  -5.4241
    -5.4240  -5.4240  -5.4238  -5.3915  -5.3910  -5.3905  -5.3901  -5.3868
    -5.3867  -5.3633  -5.3631  -5.3563  -5.3562  -5.3559  -5.3558  -5.3432
    -5.3427  -5.3377  -5.3375  -5.3370  -5.3369  -5.3096  -5.3094  -5.3039
    -5.3030  -5.2938  -5.2936  -5.2933  -5.2932  -5.2930  -5.2929  -5.2589
    -5.2588  -5.2363  -5.2361  -5.2303  -5.2302  -5.2302  -5.2300  -5.2233
    -5.2229  -5.2182  -5.2181  -5.2180  -5.2178  -5.1964  -5.1962  -5.1879
    -5.1872  -5.1577  -5.1576  -5.1575  -5.1574  -5.1489  -5.1485  -5.1421
    -5.1413  -5.1298  -5.1295  -5.1240  -5.1235  -5.1101  -5.1099  -5.1097
    -5.1093  -5.1045  -5.1042  -5.1036  -5.1034  -5.1033  -5.1031  -5.0853
    -5.0851  -5.0847  -5.0844  -5.0699  -5.0698  -5.0655  -5.0652  -5.0645
    -5.0644  -5.0599  -5.0599  -5.0597  -5.0596  -5.0532  -5.0529  -5.0384
    -5.0379  -5.0201  -5.0200  -5.0146  -5.0142  -5.0059  -5.0055  -4.9740
    -4.9737  -4.9673  -4.9667  -4.9565  -4.9563  -4.9555  -4.9554  -4.9520
    -4.9519  -4.9519  -4.9518  -4.9148  -4.9147  -4.9145  -4.9145  -4.8953
    -4.8949  -4.8946  -4.8942  -4.8560  -4.8549  -4.8471  -4.8462  -4.8428
    -4.8417  -4.8239  -4.8236  -4.8229  -4.8226  -4.7995  -4.7971  -4.5734
    -4.5729  -4.2973  -4.2960  -4.1821  -3.9366  -3.9353  -3.9349  -3.9347
    -3.6223  -3.2239  -3.2227  -2.7771  -2.7449  -2.6777  -2.6703  -2.6698
    -2.6685  -2.6570  -2.2066  -2.0512  -2.0379  -1.8669  -1.8470  -1.7237
    -1.2437  -1.2430  -1.2420  -1.2412  -0.4637  -0.4102  -0.4093  -0.3968
    -0.2913   0.0662   0.0672   0.0684   0.0780   0.2871   0.3112   0.3542
     0.3711   0.9663   1.4360   1.4463   1.5586   1.5593   1.7925   1.7956
     1.7967   1.8005   1.8357   1.8366   2.6224   2.6250   3.3379   3.3388
     3.3412   3.3429   3.4468   3.4714   3.4768   3.4862   3.7029   3.7043
     3.7768   3.8653   4.2498   4.2535   4.2554   4.2571   4.3689   4.3777
     4.6957   4.7228   4.7636   4.7665   4.7690   5.0857   5.1245   5.1700
     5.3076   5.3276   5.3426   5.5874   5.8729   5.8768   5.9969   6.0360
     6.0934   6.1786   6.1879   6.2545   6.2814   6.2893   6.3154   6.3343
     6.3375   6.3384   6.3431   6.3747   6.4535   6.4623   6.4928   6.5220
     6.7604   6.8648   6.9054   6.9277   6.9493   6.9505   7.0155   7.0474
     7.1560   7.2402   7.4961   7.5059   7.5170   7.5222   7.6103   7.6568
     7.8177   7.8497   7.9399   8.0316   8.0653   8.1132   8.2559   8.4132
     8.4263   8.4945   8.5745   8.6225   8.6363   8.6443   8.6682   8.6966
     8.7273   8.8426   8.9293   8.9401   8.9516   8.9566   9.0678   9.0758
     9.0890   9.0947   9.1302   9.1862   9.2131   9.3066

     occupation numbers 
     1.0000   1.0000   1.0000   1.0000   1.0000   1.0000   1.0000   1.0000
     1.0000   1.0000   1.0000   1.0000   1.0000   1.0000   1.0000   1.0000
     1.0000   1.0000   1.0000   1.0000   1.0000   1.0000   1.0000   1.0000
     1.0000   1.0000   1.0000   1.0000   1.0000   1.0000   1.0000   1.0000
     1.0000   1.0000   1.0000   1.0000   1.0000   1.0000   1.0000   1.0000
     1.0000   1.0000   1.0000   1.0000   1.0000   1.0000   1.0000   1.0000
     1.0000   1.0000   1.0000   1.0000   1.0000   1.0000   1.0000   1.0000
     1.0000   1.0000   1.0000   1.0000   1.0000   1.0000   1.0000   1.0000
     1.0000   1.0000   1.0000   1.0000   1.0000   1.0000   1.0000   1.0000
     1.0000   1.0000   1.0000   1.0000   1.0000   1.0000   1.0000   1.0000
     1.0000   1.0000   1.0000   1.0000   1.0000   1.0000   1.0000   1.0000
     1.0000   1.0000   1.0000   1.0000   1.0000   1.0000   1.0000   1.0000
     1.0000   1.0000   1.0000   1.0000   1.0000   1.0000   1.0000   1.0000
     1.0000   1.0000   1.0000   1.0000   1.0000   1.0000   1.0000   1.0000
     1.0000   1.0000   1.0000   1.0000   1.0000   1.0000   1.0000   1.0000
     1.0000   1.0000   1.0000   1.0000   1.0000   1.0000   1.0000   1.0000
     1.0000   1.0000   1.0000   1.0000   1.0000   1.0000   1.0000   1.0000
     1.0000   1.0000   1.0000   1.0000   1.0000   1.0000   1.0000   1.0000
     1.0000   1.0000   1.0000   1.0000   1.0000   1.0000   1.0000   1.0000
     1.0000   1.0000   1.0000   1.0000   1.0000   1.0000   1.0000   1.0000
     1.0000   1.0000   1.0000   1.0000   1.0000   1.0000   1.0000   1.0000
     1.0000   1.0000   1.0000   1.0000   1.0000   1.0000   1.0000   1.0000
     1.0000   1.0000   1.0000   1.0000   1.0000   1.0000   1.0000   1.0000
     1.0000   1.0000   1.0000   1.0000   1.0000   1.0000   1.0000   1.0000
     1.0000   1.0000   1.0000   1.0000   1.0000   1.0000   1.0000   1.0000
     1.0000   1.0000   1.0000   1.0000   1.0000   1.0000   1.0000   1.0000
     1.0000   1.0000   1.0000   1.0000   1.0000   1.0000   1.0000   1.0000
     1.0000   1.0000   1.0000   1.0000   1.0000   1.0000   1.0000   1.0000
     1.0000   1.0000   1.0000   1.0000   1.0000   1.0000   1.0000   1.0000
     1.0000   1.0000   1.0000   1.0000   1.0000   1.0000   1.0000   1.0000
     1.0000   1.0000   1.0000   1.0000   1.0000   1.0000   1.0000   1.0000
     1.0000   1.0000   1.0000   1.0000   1.0000   1.0000   1.0000   1.0000
     1.0000   1.0000   1.0000   1.0000   1.0000   1.0000   1.0000   1.0000
     1.0000   1.0000   1.0000   1.0000   1.0000   1.0000   1.0000   1.0000
     1.0000   1.0000   1.0000   1.0000   1.0000   1.0000   1.0000   1.0000
     1.0000   1.0000   1.0000   1.0000   1.0000   1.0000   1.0000   1.0000
     1.0000   1.0000   1.0000   1.0000   1.0000   1.0000   1.0000   1.0000
     1.0000   1.0000   1.0000   1.0000   1.0000   1.0000   1.0000   1.0000
     1.0000   1.0000   1.0000   1.0000   1.0000   1.0000   1.0000   1.0000
     1.0000   1.0000   1.0000   1.0000   1.0000   1.0000   1.0000   1.0000
     1.0000   1.0000   1.0000   1.0000   1.0000   1.0000   1.0000   1.0000
     1.0000   1.0000   1.0000   1.0000   1.0000   1.0000   1.0000   1.0000
     1.0000   1.0000   1.0000   1.0000   1.0000   1.0000   1.0000   1.0000
     1.0000   1.0000   1.0000   1.0000   1.0000   1.0000   1.0000   1.0000
     1.0000   1.0000   1.0000   1.0000   1.0000   1.0000   1.0000   1.0000
     1.0000   1.0000   1.0000   1.0000   1.0000   1.0000   1.0000   1.0000
     1.0000   1.0000   1.0000   1.0000   1.0000   1.0000   1.0000   1.0000
     1.0000   1.0000   1.0000   1.0000   1.0000   1.0000   1.0000   1.0000
     1.0000   1.0000   1.0000   1.0000   1.0000   1.0000   1.0000   1.0000
     1.0000   1.0000   1.0000   1.0000   1.0000   1.0000   1.0000   1.0000
     1.0000   1.0000   1.0000   1.0000   1.0000   1.0000   1.0000   1.0000
     1.0000   1.0000   1.0000   1.0000   1.0000   1.0000   1.0000   1.0000
     1.0000   1.0000   1.0000   1.0000   1.0000   1.0000   1.0000   1.0000
     1.0000   1.0000   1.0000   1.0000   1.0000   1.0000   1.0000   1.0000
     1.0000   1.0000   1.0000   1.0000   1.0000   1.0000   1.0000   1.0000
     1.0000   1.0000   1.0000   1.0000   1.0000   1.0000   1.0000   1.0000
     1.0000   1.0000   1.0000   1.0000   1.0000   1.0000   1.0000   1.0000
     1.0000   1.0000   1.0000   1.0000   1.0000   1.0000   1.0000   1.0000
     1.0000   1.0000   1.0000   1.0000   1.0000   1.0000   1.0000   1.0000
     1.0000   1.0000   1.0000   1.0000   1.0000   1.0000   1.0000   1.0000
     1.0000   1.0000   1.0000   1.0000   1.0000   1.0000   1.0000   1.0000
     1.0000   1.0002   1.0660   1.0693   1.0785   1.0783   0.7107   0.7022
     0.6991   0.6888   0.5921   0.5896   0.0000   0.0000   0.0000   0.0000
     0.0000   0.0000   0.0000   0.0000   0.0000   0.0000   0.0000   0.0000
     0.0000   0.0000   0.0000   0.0000   0.0000   0.0000   0.0000   0.0000
     0.0000   0.0000   0.0000   0.0000   0.0000   0.0000   0.0000   0.0000
[...]
     atom   40 type  1   force =     0.00000000    0.00000000    0.00000000
     atom   41 type  1   force =     0.00000000    0.00000000    0.00000000
     atom   42 type  1   force =     0.00000000    0.00000000    0.00000000
     atom   43 type  1   force =     0.00000000    0.00000000    0.00000000
     atom   44 type  1   force =     0.00000000    0.00000000    0.00000000
     atom   45 type  1   force =     0.00000000    0.00000000    0.00000000
     atom   46 type  1   force =     0.00000000    0.00000000    0.00000000
     atom   47 type  1   force =     0.00000000    0.00000000    0.00000000
     atom   48 type  1   force =     0.00000000    0.00000000    0.00000000
     atom   49 type  3   force =     0.00000000    0.00000000    0.00000000
     atom   50 type  3   force =     0.00000000    0.00000000    0.00000000
     atom   51 type  3   force =     0.00000000    0.00000000    0.00000000
     atom   52 type  3   force =     0.00000000    0.00000000    0.00000000
     atom   53 type  3   force =     0.00000000    0.00000000    0.00000000
     atom   54 type  3   force =     0.00000000    0.00000000    0.00000000
     atom   55 type  2   force =     0.00000000    0.00000000    0.00000000
     atom   56 type  4   force =     0.00000000    0.00000000    0.00000000
     atom   57 type  4   force =     0.00000000    0.00000000    0.00000000
     atom   58 type  4   force =     0.00000000    0.00000000    0.00000000
     atom   59 type  4   force =     0.00000000    0.00000000    0.00000000
     atom   60 type  4   force =     0.00000000    0.00000000    0.00000000
     atom   61 type  4   force =     0.00000000    0.00000000    0.00000000
     atom   62 type  4   force =     0.00000000    0.00000000    0.00000000
     The SCF correction term to forces
     atom    1 type  1   force =    -0.00000000   -0.00000000    0.00000000
     atom    2 type  1   force =     0.00000000   -0.00000000    0.00000000
     atom    3 type  1   force =    -0.00006799   -0.00005062   -0.00017170
     atom    4 type  1   force =     0.00006709   -0.00005614   -0.00016196
     atom    5 type  1   force =     0.00000000   -0.00000000    0.00000000
     atom    6 type  1   force =    -0.00000000    0.00000000    0.00000000
     atom    7 type  1   force =    -0.00003018   -0.00001687   -0.00016763
     atom    8 type  1   force =     0.00001894    0.00002011   -0.00004495
     atom    9 type  1   force =     0.00000000   -0.00000000    0.00000000
     atom   10 type  1   force =    -0.00000000    0.00000000    0.00000000
     atom   11 type  1   force =     0.00001056    0.00001280   -0.00015963
     atom   12 type  1   force =    -0.00000701    0.00007794   -0.00012655
     atom   13 type  1   force =    -0.00000000    0.00000000    0.00000000
     atom   14 type  1   force =     0.00000000   -0.00000000    0.00000000
     atom   15 type  1   force =    -0.00003092   -0.00001380   -0.00016880
     atom   16 type  1   force =     0.00002827    0.00002081   -0.00021363
     atom   17 type  1   force =     0.00000000    0.00000000    0.00000000
     atom   18 type  1   force =    -0.00000000   -0.00000000    0.00000000
     atom   19 type  1   force =     0.00000598   -0.00004319   -0.00011112
     atom   20 type  1   force =    -0.00000506   -0.00005537   -0.00020640
     atom   21 type  1   force =     0.00000000    0.00000000    0.00000000
     atom   22 type  1   force =    -0.00000000   -0.00000000    0.00000000
     atom   23 type  1   force =    -0.00001840    0.00002828   -0.00007197
     atom   24 type  1   force =     0.00003459   -0.00002754   -0.00015109
     atom   25 type  1   force =     0.00000000    0.00000000    0.00000000
     atom   26 type  1   force =    -0.00000000    0.00000000    0.00000000
     atom   27 type  1   force =     0.00000617    0.00005637   -0.00015871
     atom   28 type  1   force =    -0.00001261    0.00004499   -0.00015231
     atom   29 type  1   force =     0.00000000    0.00000000    0.00000000
     atom   30 type  1   force =    -0.00000000   -0.00000000    0.00000000
     atom   31 type  1   force =     0.00004574   -0.00001820   -0.00017147
     atom   32 type  1   force =    -0.00004060    0.00002496   -0.00020615
     atom   33 type  1   force =    -0.00004224   -0.00003197   -0.00000823
     atom   34 type  1   force =     0.00003963   -0.00004923    0.00001520
     atom   35 type  1   force =    -0.00004208   -0.00001857   -0.00003209
     atom   36 type  1   force =     0.00004273   -0.00003475   -0.00003236
     atom   37 type  1   force =     0.00001672    0.00001058   -0.00000219
     atom   38 type  1   force =    -0.00001477    0.00006774   -0.00007617
     atom   39 type  1   force =     0.00001232    0.00000195    0.00002331
     atom   40 type  1   force =    -0.00001339    0.00004946   -0.00002805
     atom   41 type  1   force =     0.00006661   -0.00003589   -0.00000681
     atom   42 type  1   force =    -0.00006445   -0.00004665    0.00001499
     atom   43 type  1   force =     0.00000663    0.00000987   -0.00008115
     atom   44 type  1   force =    -0.00001007   -0.00006255    0.00001297
     atom   45 type  1   force =     0.00001054    0.00007836   -0.00007544
     atom   46 type  1   force =    -0.00001497   -0.00000178   -0.00000172
     atom   47 type  1   force =     0.00006840    0.00003550   -0.00000705
     atom   48 type  1   force =    -0.00007315    0.00001839   -0.00000111
     atom   49 type  3   force =    -0.00000615    0.00000709    0.00000518
     atom   50 type  3   force =    -0.00000278    0.00000907    0.00000511
     atom   51 type  3   force =    -0.00000921    0.00000461    0.00000266
     atom   52 type  3   force =    -0.00000668   -0.00000120    0.00000533
     atom   53 type  3   force =    -0.00000643    0.00000773    0.00000285
     atom   54 type  3   force =     0.00000271   -0.00000026    0.00000643
     atom   55 type  2   force =     0.00000392    0.00000082    0.00000155
     atom   56 type  4   force =     0.00000190    0.00000157    0.00000194
     atom   57 type  4   force =     0.00000051    0.00000180    0.00000029
     atom   58 type  4   force =    -0.00000093   -0.00000158    0.00000045
     atom   59 type  4   force =    -0.00000101    0.00000097   -0.00000016
     atom   60 type  4   force =     0.00000165   -0.00000090    0.00000041
     atom   61 type  4   force =    -0.00000143    0.00000032   -0.00000057
     atom   62 type  4   force =     0.00000017   -0.00000152    0.00000162

     DFT-D3 dispersion contribution to forces:
     atom    1 type  1   force =    -0.00000716    0.00000903    0.00334678
     atom    2 type  1   force =     0.00000831    0.00000195    0.00335613
     atom    3 type  1   force =     0.00035749    0.00041673   -0.00251073
     atom    4 type  1   force =    -0.00033785    0.00036991   -0.00234760
     atom    5 type  1   force =     0.00000993   -0.00000713    0.00337146
     atom    6 type  1   force =    -0.00000214   -0.00000684    0.00336498
     atom    7 type  1   force =     0.00058619    0.00025133   -0.00228654
     atom    8 type  1   force =    -0.00035046    0.00019328   -0.00133732
     atom    9 type  1   force =     0.00000610   -0.00001594    0.00337543
     atom   10 type  1   force =    -0.00001177    0.00000171    0.00338196
     atom   11 type  1   force =     0.00013419   -0.00016078   -0.00271118
     atom   12 type  1   force =    -0.00022278   -0.00052930   -0.00137345
     atom   13 type  1   force =    -0.00001340    0.00001003    0.00334857
     atom   14 type  1   force =     0.00000614   -0.00000253    0.00337891
     atom   15 type  1   force =    -0.00001761    0.00009702   -0.00291782
     atom   16 type  1   force =     0.00001704   -0.00057544   -0.00240593
     atom   17 type  1   force =    -0.00000244   -0.00000433    0.00336795
     atom   18 type  1   force =     0.00000199    0.00000074    0.00333823
     atom   19 type  1   force =     0.00006055    0.00062232   -0.00191985
     atom   20 type  1   force =    -0.00008839    0.00006166   -0.00304348
     atom   21 type  1   force =     0.00000419    0.00000713    0.00339636
     atom   22 type  1   force =    -0.00000294   -0.00000102    0.00336877
     atom   23 type  1   force =     0.00026988    0.00036913   -0.00120807
     atom   24 type  1   force =    -0.00047416    0.00005866   -0.00236552
     atom   25 type  1   force =    -0.00000078   -0.00000014    0.00339786
     atom   26 type  1   force =     0.00000743    0.00000650    0.00337636
     atom   27 type  1   force =     0.00057012   -0.00038306   -0.00180279
     atom   28 type  1   force =    -0.00050196   -0.00039645   -0.00205079
     atom   29 type  1   force =     0.00001151    0.00000077    0.00336798
     atom   30 type  1   force =    -0.00000300   -0.00000550    0.00336415
     atom   31 type  1   force =     0.00015967    0.00003759   -0.00270183
     atom   32 type  1   force =    -0.00015103   -0.00042109   -0.00265825
     atom   33 type  1   force =    -0.00000039   -0.00000255    0.00003566
     atom   34 type  1   force =     0.00001667   -0.00002476    0.00001866
     atom   35 type  1   force =     0.00002083   -0.00002682    0.00003377
     atom   36 type  1   force =    -0.00002656    0.00000207    0.00006235
     atom   37 type  1   force =     0.00005269    0.00002674    0.00011233
     atom   38 type  1   force =    -0.00004556    0.00002207    0.00013060
     atom   39 type  1   force =    -0.00001139    0.00002725   -0.00000339
     atom   40 type  1   force =     0.00002490    0.00000098    0.00001195
     atom   41 type  1   force =     0.00000946    0.00000050    0.00006106
     atom   42 type  1   force =    -0.00001787   -0.00000778    0.00003934
     atom   43 type  1   force =    -0.00003864    0.00002654    0.00010967
     atom   44 type  1   force =     0.00002145   -0.00001249    0.00003390
     atom   45 type  1   force =     0.00000098    0.00000911    0.00024726
     atom   46 type  1   force =    -0.00001117    0.00000262    0.00006283
     atom   47 type  1   force =     0.00000725   -0.00004019    0.00009542
     atom   48 type  1   force =    -0.00001284    0.00000240    0.00003839
     atom   49 type  3   force =    -0.00019398    0.00013167   -0.00167435
     atom   50 type  3   force =     0.00022544    0.00021466   -0.00158788
     atom   51 type  3   force =     0.00025355    0.00032899   -0.00165265
     atom   52 type  3   force =    -0.00010554   -0.00032066   -0.00145781
     atom   53 type  3   force =    -0.00019887   -0.00036013   -0.00155464
     atom   54 type  3   force =     0.00029033   -0.00017277   -0.00144044
     atom   55 type  2   force =    -0.00018578    0.00010486   -0.00185458
     atom   56 type  4   force =    -0.00007253    0.00009971   -0.00164640
     atom   57 type  4   force =     0.00004972    0.00001882   -0.00096049
     atom   58 type  4   force =     0.00000093   -0.00004917   -0.00071010
     atom   59 type  4   force =    -0.00004415   -0.00006364   -0.00103150
     atom   60 type  4   force =     0.00005124   -0.00003152   -0.00071644
     atom   61 type  4   force =     0.00005124    0.00007897   -0.00126455
     atom   62 type  4   force =    -0.00013426    0.00000855   -0.00179870

     Total force =     0.011140     Total SCF correction =     0.000725

     DFT-D3 dispersion Force =     0.017298


     Computing stress (Cartesian axis) and pressure


     negative rho (up, down):  5.677E-03 0.000E+00
          total   stress  (Ry/bohr**3)                   (kbar)     P=       -2.16
  -0.00002105   0.00000056  -0.00000187           -3.10        0.08       -0.27
   0.00000056  -0.00002096   0.00000051            0.08       -3.08        0.07
  -0.00000187   0.00000051  -0.00000205           -0.27        0.07       -0.30

     kinetic stress (kbar)  12855.09     -1.52     -8.29
                               -1.52  12854.99      8.92
                               -8.29      8.92  12973.73

     local   stress (kbar)**********    240.54   -168.59
                              240.54**********    198.66
                             -168.59    198.661273735.64

     nonloc. stress (kbar)  -1212.26     -0.15      0.37
                               -0.15  -1212.49     -0.55
                                0.37     -0.55  -1254.60

     hartree stress (kbar) 656950.62   -107.97     62.71
                             -107.97 656830.83    -72.54
                               62.71    -72.54-600662.48

     exc-cor stress (kbar)  -6316.27     -0.01      0.32
                               -0.01  -6316.34     -0.40
                                0.32     -0.40  -6327.55

     corecor stress (kbar)    -69.21     -0.03     -0.07
                               -0.03    -69.22      0.11
                               -0.07      0.11    -68.19

     ewald   stress (kbar) 598390.35   -130.78    113.28
                             -130.78 598237.11   -134.13
                              113.28   -134.13-678390.86

     hubbard stress (kbar)      0.00      0.00      0.00
                                0.00      0.00      0.00
                                0.00      0.00      0.00

     DFT-D   stress (kbar)    -10.79     -0.00      0.00
                               -0.00    -10.80     -0.01
                                0.00     -0.01     -5.98

     XDM     stress (kbar)      0.00      0.00      0.00
                                0.00      0.00      0.00
                                0.00      0.00      0.00

     dft-nl  stress (kbar)      0.00      0.00      0.00
                                0.00      0.00      0.00
                                0.00      0.00      0.00

     TS-vdW  stress (kbar)      0.00      0.00      0.00
                                0.00      0.00      0.00
                                0.00      0.00      0.00

     MDB     stress (kbar)      0.00      0.00      0.00
                                0.00      0.00      0.00
                                0.00      0.00      0.00

     3D-RISM stress (kbar)      0.00      0.00      0.00
                                0.00      0.00      0.00
                                0.00      0.00      0.00

     Energy error            =      2.9E-04 Ry
     Gradient error          =      3.3E-03 Ry/Bohr

     number of scf cycles    =  42
     number of bfgs steps    =  41

     energy             old  =  -22294.0591148061 Ry
     energy             new  =  -22294.0594018790 Ry

     CASE: energy            _new < energy            _old

     new trust radius        =       0.0451273588 bohr
     new conv_thr            =       0.0000000332 Ry


ATOMIC_POSITIONS (angstrom)
Zn               0.0000000000        1.5094010000        1.2182900000    0   0   0
Zn               5.2287200000        1.5094010000        1.2182900000    0   0   0
Zn               0.0097730970        1.5085168974        5.9288584023
Zn               5.2371278441        1.5075539440        5.9269031667
Zn              -1.3071800000        3.7735030000        1.2182900000    0   0   0
Zn               3.9215400000        3.7735030000        1.2182900000    0   0   0
Zn              -1.2906654993        3.7679369146        5.9254131485
Zn               3.9293202781        3.7699269910        5.9297696869
Zn              -2.6143600000        6.0376050000        1.2182900000    0   0   0
Zn               2.6143600000        6.0376050000        1.2182900000    0   0   0
Zn              -2.6000461085        6.0304855360        5.9272947977
Zn               2.6236718574        6.0289420216        5.9059283913
Zn              -3.9215400000        8.3017080000        1.2182900000    0   0   0
Zn               1.3071800000        8.3017080000        1.2182900000    0   0   0
Zn              -3.9127893119        8.3050822602        5.9258660454
Zn               1.3186200899        8.2953756930        5.9282510651
Zn               2.6143600000        1.5094010000        1.2182900000    0   0   0
Zn               7.8430800000        1.5094010000        1.2182900000    0   0   0
Zn               2.6253126811        1.5096192914        5.9282487841
Zn               7.8487636102        1.5045753409        5.9242387315
Zn               1.3071800000        3.7735030000        1.2182900000    0   0   0
Zn               6.5359000000        3.7735030000        1.2182900000    0   0   0
Zn               1.3225690587        3.7698067494        5.9077808812
Zn               6.5416024584        3.7676227989        5.9274081054
Zn               0.0000000000        6.0376050000        1.2182900000    0   0   0
Zn               5.2287200000        6.0376050000        1.2182900000    0   0   0
Zn               0.0163436924        6.0300926563        5.8671564156
Zn               5.2378149669        6.0335258120        5.9213439896
Zn              -1.3071800000        8.3017080000        1.2182900000    0   0   0
Zn               3.9215400000        8.3017080000        1.2182900000    0   0   0
Zn              -1.2913735514        8.3012539721        5.9247764700
Zn               3.9286874802        8.3003385251        5.9257587897
Zn               1.3119990161        0.7512171770        3.5711398550
Zn               6.5455913489        0.7496323980        3.5742070680
Zn               0.0069178079        3.0175842689        3.5650471516
Zn               5.2352414929        3.0150394173        3.5666759038
Zn              -1.2956487205        5.2817450859        3.5617319511
Zn               3.9260533186        5.2833490182        3.5692531527
Zn              -2.6035702500        7.5446247832        3.5779752895
Zn               2.6192738474        7.5450684237        3.5646442781
Zn               3.9281215527        0.7496170336        3.5685674160
Zn               9.1568595678        0.7507977243        3.5795497981
Zn               2.6183011118        3.0173800197        3.5583333003
Zn               7.8519704344        3.0122308138        3.5762438053
Zn               1.3143385465        5.2810699945        3.5547931000
Zn               6.5438460234        5.2822736877        3.5623596841
Zn               0.0085357709        7.5428322951        3.5626792276
Zn               5.2338279470        7.5482284108        3.5660473110
C                2.0362854018        4.6144748620        9.3719048977
C                4.4606853795        4.5575916194        9.5710753776
C                3.2786612993        5.2773398637        9.3967992899
C                3.2044072163        2.5076746927        9.7067255512
C                2.0176581288        3.2157589819        9.5315907420
C                4.4383918303        3.1663217573        9.7172576616
N                0.8520971545        5.3305044403        9.2529470100
H                0.0584108807        4.8042549696        8.8988817364
H                5.4089607599        5.0944269992        9.6071498775
H                3.1643494004        1.4272812996        9.8549048482
H                1.0598514422        2.6885620091        9.5352293191
H                5.3657319164        2.6090305227        9.8567739095
H                3.3094329695        6.3647099488        9.2949156796
H                0.9351681856        6.2389702153        8.8042501189



     Writing config-only to output data dir ./tmp/Zn002_3layer_aniline_relax.save/ :
     XML data file
     NEW-OLD atomic charge density approx. for the potential

     negative rho (up, down):  5.739E-03 0.000E+00

     total cpu time spent up to now is    87105.4 secs

     Self-consistent Calculation

     iteration #  1     ecut=    40.00 Ry     beta= 0.40
     Davidson diagonalization with overlap

---- Real-time Memory Report at c_bands before calling an iterative solver
           411 MiB given to the printing process from OS
             0 MiB allocation reported by mallinfo(arena+hblkhd)
          7279 MiB available memory on the node where the printing process lives
------------------
