
     Program PWSCF v.7.3.1 starts on  9Apr2025 at  1: 5:52 

     This program is part of the open-source Quantum ESPRESSO suite
     for quantum simulation of materials; please cite
         "P. Giannozzi et al., J. Phys.:Condens. Matter 21 395502 (2009);
         "P. Giannozzi et al., J. Phys.:Condens. Matter 29 465901 (2017);
         "P. Giannozzi et al., J. Chem. Phys. 152 154105 (2020);
          URL http://www.quantum-espresso.org", 
     in publications or presentations arising from this work. More details at
     http://www.quantum-espresso.org/quote

     Parallel version (MPI), running on    33 processors

     MPI processes distributed on     1 nodes
     43954 MiB available memory on the printing compute node when the environment starts

     Waiting for input...
     Reading input from standard input
Warning: card &CELL ignored
Warning: card   CELL_DOFREE = 'ALL' ignored
Warning: card / ignored

     Current dimensions of program PWSCF are:
     Max number of different atomic species (ntypx) = 10
     Max number of k-points (npk) =  40000
     Max angular momentum in pseudopotentials (lmaxx) =  4
     file C.pbe-n-kjpaw_psl.1.0.0.UPF: wavefunction(s)  2S 2P renormalized

     R & G space division:  proc/nbgrp/npool/nimage =      33
     Subspace diagonalization in iterative solution of the eigenvalue problem:
     one sub-group per band group will be used
     custom distributed-memory algorithm (size of sub-group:  5*  5 procs)


     Parallelization info
     --------------------
     sticks:   dense  smooth     PW     G-vecs:    dense   smooth      PW
     Min         270     154     45                40385    17444    2719
     Max         271     155     45                40396    17453    2727
     Sum        8941    5109   1485              1332973   575857   89907

     Using Slab Decomposition



     bravais-lattice index     =            0
     lattice parameter (alat)  =      20.9009  a.u.
     unit-cell volume          =   16846.7507 (a.u.)^3
     number of atoms/cell      =           62
     number of atomic types    =            4
     number of electrons       =       996.00
     number of Kohn-Sham states=          598
     kinetic-energy cutoff     =      40.0000  Ry
     charge density cutoff     =     280.0000  Ry
     scf convergence threshold =      1.0E-06
     mixing beta               =       0.4000
     number of iterations used =            8  plain     mixing
     energy convergence thresh.=      5.0E-05
     force convergence thresh. =      1.0E-03
     Exchange-correlation= PBE
                           (   1   4   3   4   0   0   0)
     nstep                     =          300


     celldm(1)=  20.900943  celldm(2)=   0.000000  celldm(3)=   0.000000
     celldm(4)=   0.000000  celldm(5)=   0.000000  celldm(6)=   0.000000

     crystal axes: (cart. coord. in units of alat)
               a(1) = (   1.000000   0.000000   0.000000 )  
               a(2) = (  -0.223489   0.918700   0.000000 )  
               a(3) = (  -4.200249  -1.021781   2.008375 )  

     reciprocal axes: (cart. coord. in units 2 pi/alat)
               b(1) = (  1.000000  0.243267  2.215131 )  
               b(2) = ( -0.000000  1.088495  0.553783 )  
               b(3) = (  0.000000 -0.000000  0.497915 )  


     PseudoPot. # 1 for Zn read from file:
     /home/ys/qepseudo/SSSP_1.3.0_PBE_efficiency/Zn_pbe_v1.uspp.F.UPF
     MD5 check sum: df62231357ef9e81f77b2b3087fa5675
     Pseudo is Ultrasoft, Zval = 20.0
     Generated by new atomic code, or converted to UPF format
     Using radial grid of  943 points,  6 beta functions with: 
                l(1) =   0
                l(2) =   0
                l(3) =   1
                l(4) =   1
                l(5) =   2
                l(6) =   2
     Q(r) pseudized with  8 coefficients,  rinner =    1.100   1.100   1.100
                                                       1.100   1.100

     PseudoPot. # 2 for N  read from file:
     /home/ys/qepseudo/SSSP_1.3.0_PBE_efficiency/N.pbe-n-radius_5.UPF
     MD5 check sum: 16739722b17309cd8fe442a2ace49922
     Pseudo is Ultrasoft + core correction, Zval =  5.0
     Generated using "atomic" code by A. Dal Corso  v.5.1
     Using radial grid of 1085 points,  4 beta functions with: 
                l(1) =   0
                l(2) =   0
                l(3) =   1
                l(4) =   1
     Q(r) pseudized with 0 coefficients 


     PseudoPot. # 3 for C  read from file:
     /home/ys/qepseudo/SSSP_1.3.0_PBE_efficiency/C.pbe-n-kjpaw_psl.1.0.0.UPF
     MD5 check sum: 5d2aebdfa2cae82b50a7e79e9516da0f
     Pseudo is Projector augmented-wave + core cor, Zval =  4.0
     Generated using "atomic" code by A. Dal Corso  v.5.1
     Shape of augmentation charge: PSQ
     Using radial grid of 1073 points,  4 beta functions with: 
                l(1) =   0
                l(2) =   0
                l(3) =   1
                l(4) =   1
     Q(r) pseudized with 0 coefficients 


     PseudoPot. # 4 for H  read from file:
     /home/ys/qepseudo/SSSP_1.3.0_PBE_efficiency/H.pbe-rrkjus_psl.1.0.0.UPF
     MD5 check sum: f52b6d4d1c606e5624b1dc7b2218f220
     Pseudo is Ultrasoft, Zval =  1.0
     Generated using "atomic" code by A. Dal Corso  v.5.1
     Using radial grid of  929 points,  2 beta functions with: 
                l(1) =   0
                l(2) =   0
     Q(r) pseudized with 0 coefficients 


     atomic species   valence    mass     pseudopotential
     Zn               20.00    65.38000     Zn( 1.00)
     N                 5.00    14.00674     N ( 1.00)
     C                 4.00    12.01070     C ( 1.00)
     H                 1.00     1.00794     H ( 1.00)

     No symmetry found


                                    s                        frac. trans.

      isym =  1     identity                                     

 cryst.   s( 1) = (     1          0          0      )
                  (     0          1          0      )
                  (     0          0          1      )

 cart.    s( 1) = (  1.0000000  0.0000000  0.0000000 )
                  (  0.0000000  1.0000000  0.0000000 )
                  (  0.0000000  0.0000000  1.0000000 )


   Cartesian axes

     site n.     atom                  positions (alat units)
         1        Zn     tau(   1) = (  -0.0970639   0.0980210   0.1082940  )
         2        Zn     tau(   2) = (  -0.2088085   0.5573710   0.1082940  )
         3        Zn     tau(   3) = (  -0.4436296   0.0133021   0.3267644  )
         4        Zn     tau(   4) = (  -0.5553466   0.4727589   0.3266326  )
         5        Zn     tau(   5) = (  -0.8015675  -0.0738560   0.5204735  )
         6        Zn     tau(   6) = (  -0.9136705   0.3857182   0.5203452  )
         7        Zn     tau(   7) = (  -0.1529361   0.3276960   0.1082940  )
         8        Zn     tau(   8) = (  -0.2646808   0.7870460   0.1082940  )
         9        Zn     tau(   9) = (  -0.4994158   0.2431043   0.3267310  )
        10        Zn     tau(  10) = (  -0.6113085   0.7023487   0.3266788  )
        11        Zn     tau(  11) = (  -0.8577155   0.1559534   0.5203020  )
        12        Zn     tau(  12) = (  -0.9693047   0.6153537   0.5205194  )
        13        Zn     tau(  13) = (   0.4029362   0.0980210   0.1082940  )
        14        Zn     tau(  14) = (   0.2911915   0.5573710   0.1082940  )
        15        Zn     tau(  15) = (   0.0565086   0.0133360   0.3241562  )
        16        Zn     tau(  16) = (  -0.0552146   0.4727957   0.3239770  )
        17        Zn     tau(  17) = (  -0.2990019  -0.0732614   0.5203282  )
        18        Zn     tau(  18) = (  -0.4111263   0.3864037   0.5201985  )
        19        Zn     tau(  19) = (   0.3470638   0.3276960   0.1082940  )
        20        Zn     tau(  20) = (   0.2353192   0.7870460   0.1082940  )
        21        Zn     tau(  21) = (   0.0007168   0.2430908   0.3241551  )
        22        Zn     tau(  22) = (  -0.1111493   0.7024087   0.3239982  )
        23        Zn     tau(  23) = (  -0.3551819   0.1565713   0.5201829  )
        24        Zn     tau(  24) = (  -0.4667146   0.6159736   0.5203598  )
        25        Zn     tau(  25) = (   0.1529361   0.0372043   0.0773528  )
        26        Zn     tau(  26) = (   0.0411915   0.4965543   0.0773528  )
        27        Zn     tau(  27) = (  -0.2122732  -0.0516715   0.2654630  )
        28        Zn     tau(  28) = (  -0.3239465   0.4077318   0.2654478  )
        29        Zn     tau(  29) = (  -0.5765287  -0.1406552   0.4574179  )
        30        Zn     tau(  30) = (  -0.6884677   0.3189336   0.4575418  )
        31        Zn     tau(  31) = (   0.0970639   0.2668793   0.0773528  )
        32        Zn     tau(  32) = (  -0.0146808   0.7262293   0.0773528  )
        33        Zn     tau(  33) = (  -0.2680871   0.1780502   0.2653609  )
        34        Zn     tau(  34) = (  -0.3798692   0.6373411   0.2655337  )
        35        Zn     tau(  35) = (  -0.6325059   0.0891251   0.4575687  )
        36        Zn     tau(  36) = (  -0.7442124   0.5485014   0.4573723  )
        37        Zn     tau(  37) = (   0.6529362   0.0372043   0.0773528  )
        38        Zn     tau(  38) = (   0.5411915   0.4965543   0.0773528  )
        39        Zn     tau(  39) = (   0.2881095  -0.0515887   0.2651273  )
        40        Zn     tau(  40) = (   0.1764595   0.4078348   0.2650500  )
        41        Zn     tau(  41) = (  -0.0738569  -0.1399537   0.4576836  )
        42        Zn     tau(  42) = (  -0.1858471   0.3195453   0.4578116  )
        43        Zn     tau(  43) = (   0.5970639   0.2668793   0.0773528  )
        44        Zn     tau(  44) = (   0.4853193   0.7262293   0.0773528  )
        45        Zn     tau(  45) = (   0.2323041   0.1780975   0.2650220  )
        46        Zn     tau(  46) = (   0.1205228   0.6374688   0.2651506  )
        47        Zn     tau(  47) = (  -0.1298290   0.0898017   0.4578049  )
        48        Zn     tau(  48) = (  -0.2415973   0.5491238   0.4576724  )
        49        C      tau(  49) = (  -0.8913466   0.2302407   1.0184867  )
        50        N      tau(  50) = (  -0.8779599   0.1472050   0.8161237  )
        51        C      tau(  51) = (  -0.8843023   0.2144443   1.1432475  )
        52        C      tau(  52) = (  -0.8711144   0.1322467   0.9396289  )
        53        H      tau(  53) = (  -0.9128039   0.3191252   0.9810581  )
        54        H      tau(  54) = (  -0.8976023   0.2284610   0.7796862  )
        55        C      tau(  55) = (  -0.8569872   0.1015365   1.1930431  )
        56        C      tau(  56) = (  -0.8436145   0.0185735   0.9901779  )
        57        C      tau(  57) = (  -0.8368497   0.0040938   1.1151082  )
        58        H      tau(  58) = (  -0.9004305   0.2918351   1.2023133  )
        59        H      tau(  59) = (  -0.8634040   0.0772749   0.7594652  )
        60        H      tau(  60) = (  -0.8515987   0.0896925   1.2907048  )
        61        H      tau(  61) = (  -0.8275592  -0.0585519   0.9305489  )
        62        H      tau(  62) = (  -0.8154208  -0.0849284   1.1519174  )

     --------------------------------------------
     DFT-D3 Dispersion Correction (3-body terms):
     --------------------------------------------
       Reference C6 values for interpolation: 

         atom   Coordination number   C6
         H          0.912             6.05
         H          0.000            15.18
         C          0.000            98.23
         C          0.987            86.49
         C          1.998            58.72
         C          2.999            51.56
         C          3.984            36.41
         N          0.000            50.54
         N          0.994            44.25
         N          2.014            39.35
         N          2.990            31.16
         Zn         0.000           681.04
         Zn         1.942           306.91

       Values used:

         atom   Coordination number  R0_AB[au]  C6      C8
         Zn         5.577            3.053    306.91  23930.67
         Zn         5.581            3.053    306.91  23930.67
         Zn         7.262            3.053    306.91  23930.67
         Zn         7.270            3.053    306.91  23930.67
         Zn         5.106            3.053    306.91  23930.67
         Zn         5.109            3.053    306.91  23930.67
         Zn         5.580            3.053    306.91  23930.67
         Zn         5.578            3.053    306.91  23930.67
         Zn         7.264            3.053    306.91  23930.67
         Zn         7.268            3.053    306.91  23930.67
         Zn         5.131            3.053    306.91  23930.67
         Zn         5.102            3.053    306.91  23930.67
         Zn         5.546            3.053    306.91  23930.67
         Zn         5.549            3.053    306.91  23930.67
         Zn         7.336            3.053    306.91  23930.67
         Zn         7.339            3.053    306.91  23930.67
         Zn         5.107            3.053    306.91  23930.67
         Zn         5.115            3.053    306.91  23930.67
         Zn         5.549            3.053    306.91  23930.67
         Zn         5.547            3.053    306.91  23930.67
         Zn         7.337            3.053    306.91  23930.67
         Zn         7.340            3.053    306.91  23930.67
         Zn         5.111            3.053    306.91  23930.67
         Zn         5.110            3.053    306.91  23930.67
         Zn         5.382            3.053    306.91  23930.67
         Zn         5.384            3.053    306.91  23930.67
         Zn         8.153            3.053    306.91  23930.67
         Zn         8.160            3.053    306.91  23930.67
         Zn         6.503            3.053    306.91  23930.67
         Zn         6.493            3.053    306.91  23930.67
         Zn         5.382            3.053    306.91  23930.67
         Zn         5.383            3.053    306.91  23930.67
         Zn         8.153            3.053    306.91  23930.67
         Zn         8.159            3.053    306.91  23930.67
         Zn         6.492            3.053    306.91  23930.67
         Zn         6.503            3.053    306.91  23930.67
         Zn         5.342            3.053    306.91  23930.67
         Zn         5.343            3.053    306.91  23930.67
         Zn         8.196            3.053    306.91  23930.67
         Zn         8.199            3.053    306.91  23930.67
         Zn         6.508            3.053    306.91  23930.67
         Zn         6.500            3.053    306.91  23930.67
         Zn         5.343            3.053    306.91  23930.67
         Zn         5.341            3.053    306.91  23930.67
         Zn         8.193            3.053    306.91  23930.67
         Zn         8.201            3.053    306.91  23930.67
         Zn         6.500            3.053    306.91  23930.67
         Zn         6.508            3.053    306.91  23930.67
         C          3.165            2.750     50.41   1457.92
         N          3.096            2.478     31.24    689.11
         C          3.131            2.750     50.68   1465.83
         C          3.139            2.750     50.62   1463.92
         H          1.003            2.062      6.18     74.69
         H          1.009            2.062      6.17     74.62
         C          3.123            2.750     50.74   1467.41
         C          3.165            2.750     50.41   1457.85
         C          3.131            2.750     50.68   1465.82
         H          1.003            2.062      6.18     74.69
         H          1.013            2.062      6.17     74.58
         H          1.002            2.062      6.18     74.69
         H          1.003            2.062      6.18     74.69
         H          1.003            2.062      6.18     74.69

         Molecular C6 ( Ry / a.u.^6 ) =    819955.88


   Crystallographic axes

     site n.     atom                  positions (cryst. coord.)
         1        Zn     tau(   1) = (  0.1666667  0.1666667  0.0539212  )
         2        Zn     tau(   2) = (  0.1666668  0.6666667  0.0539212  )
         3        Zn     tau(   3) = (  0.2834325  0.1954358  0.1627009  )
         4        Zn     tau(   4) = (  0.2831942  0.6954790  0.1626353  )
         5        Zn     tau(   5) = (  0.3333829  0.2078374  0.2591516  )
         6        Zn     tau(   6) = (  0.3327949  0.7080104  0.2590877  )
         7        Zn     tau(   7) = (  0.1666668  0.4166667  0.0539212  )
         8        Zn     tau(   8) = (  0.1666667  0.9166667  0.0539212  )
         9        Zn     tau(   9) = (  0.2834754  0.4455557  0.1626843  )
        10        Zn     tau(  10) = (  0.2831861  0.9454119  0.1626583  )
        11        Zn     tau(  11) = (  0.3327602  0.4578888  0.2590662  )
        12        Zn     tau(  12) = (  0.3334092  0.9580638  0.2591744  )
        13        Zn     tau(  13) = (  0.6666668  0.1666667  0.0539212  )
        14        Zn     tau(  14) = (  0.6666667  0.6666667  0.0539212  )
        15        Zn     tau(  15) = (  0.7778014  0.1940282  0.1614022  )
        16        Zn     tau(  16) = (  0.7774525  0.6940484  0.1613130  )
        17        Zn     tau(  17) = (  0.8357713  0.2084042  0.2590792  )
        18        Zn     tau(  18) = (  0.8351810  0.7086753  0.2590146  )
        19        Zn     tau(  19) = (  0.6666668  0.4166667  0.0539212  )
        20        Zn     tau(  20) = (  0.6666668  0.9166667  0.0539212  )
        21        Zn     tau(  21) = (  0.7778988  0.4441146  0.1614017  )
        22        Zn     tau(  22) = (  0.7774220  0.9439927  0.1613236  )
        23        Zn     tau(  23) = (  0.8351802  0.4584954  0.2590069  )
        24        Zn     tau(  24) = (  0.8357966  0.9586503  0.2590949  )
        25        Zn     tau(  25) = (  0.3333333  0.0833333  0.0385151  )
        26        Zn     tau(  26) = (  0.3333333  0.5833333  0.0385151  )
        27        Zn     tau(  27) = (  0.3631923  0.0907647  0.1321780  )
        28        Zn     tau(  28) = (  0.3632429  0.5908143  0.1321704  )
        29        Zn     tau(  29) = (  0.4024953  0.1002077  0.2277552  )
        30        Zn     tau(  30) = (  0.4026334  0.6005363  0.2278169  )
        31        Zn     tau(  31) = (  0.3333333  0.3333333  0.0385151  )
        32        Zn     tau(  32) = (  0.3333333  0.8333333  0.0385151  )
        33        Zn     tau(  33) = (  0.3630358  0.3407590  0.1321272  )
        34        Zn     tau(  34) = (  0.3633667  0.8407904  0.1322132  )
        35        Zn     tau(  35) = (  0.4027500  0.3504058  0.2278303  )
        36        Zn     tau(  36) = (  0.4023595  0.8503257  0.2277325  )
        37        Zn     tau(  37) = (  0.8333333  0.0833333  0.0385151  )
        38        Zn     tau(  38) = (  0.8333333  0.5833333  0.0385151  )
        39        Zn     tau(  39) = (  0.8628514  0.0906689  0.1320109  )
        40        Zn     tau(  40) = (  0.8627927  0.5907061  0.1319724  )
        41        Zn     tau(  41) = (  0.9059264  0.1011185  0.2278875  )
        42        Zn     tau(  42) = (  0.9060006  0.6013515  0.2279513  )
        43        Zn     tau(  43) = (  0.8333333  0.3333333  0.0385151  )
        44        Zn     tau(  44) = (  0.8333333  0.8333333  0.0385151  )
        45        Zn     tau(  45) = (  0.8626880  0.3406228  0.1319584  )
        46        Zn     tau(  46) = (  0.8629413  0.8407172  0.1320225  )
        47        Zn     tau(  47) = (  0.9061147  0.3512731  0.2279479  )
        48        Zn     tau(  48) = (  0.9057908  0.8511694  0.2278820  )
        49        C      tau(  49) = (  1.4207452  0.8146362  0.5071198  )
        50        N      tau(  50) = (  0.9656715  0.6121872  0.4063602  )
        51        C      tau(  51) = (  1.7003082  0.8665323  0.5692401  )
        52        C      tau(  52) = (  1.2424584  0.6643002  0.4678553  )
        53        H      tau(  53) = (  1.3380012  0.8906591  0.4884835  )
        54        H      tau(  54) = (  0.8850822  0.6804554  0.3882175  )
        55        C      tau(  55) = (  1.8104604  0.7712086  0.5940340  )
        56        C      tau(  56) = (  1.3542779  0.5685606  0.4930244  )
        57        C      tau(  57) = (  1.6342574  0.6219838  0.5552291  )
        58        H      tau(  58) = (  1.8338452  0.9834813  0.5986498  )
        59        H      tau(  59) = (  0.8377095  0.5046920  0.3781491  )
        60        H      tau(  60) = (  2.0293011  0.8123999  0.6426613  )
        61        H      tau(  61) = (  1.2194851  0.4515885  0.4633342  )
        62        H      tau(  62) = (  1.7155673  0.5454679  0.5735570  )

     number of k points=     4  Marzari-Vanderbilt smearing, width (Ry)=  0.0200
                       cart. coord. in units 2pi/alat
        k(    1) = (   0.0000000   0.0000000   0.0000000), wk =   0.5000000
        k(    2) = (   0.0000000  -0.5442473  -0.2768914), wk =   0.5000000
        k(    3) = (  -0.5000000  -0.1216334  -1.1075657), wk =   0.5000000
        k(    4) = (  -0.5000000  -0.6658807  -1.3844571), wk =   0.5000000

                       cryst. coord.
        k(    1) = (   0.0000000   0.0000000   0.0000000), wk =   0.5000000
        k(    2) = (   0.0000000  -0.5000000   0.0000000), wk =   0.5000000
        k(    3) = (  -0.5000000   0.0000000   0.0000000), wk =   0.5000000
        k(    4) = (  -0.5000000  -0.5000000   0.0000000), wk =   0.5000000

     Dense  grid:  1332973 G-vectors     FFT dimensions: ( 120, 108, 540)

     Smooth grid:   575857 G-vectors     FFT dimensions: (  90,  80, 405)

     Dynamical RAM for                 wfc:      19.89 MB

     Dynamical RAM for     wfc (w. buffer):      99.46 MB

     Dynamical RAM for           str. fact:       2.47 MB

     Dynamical RAM for           local pot:       0.00 MB

     Dynamical RAM for          nlocal pot:      31.07 MB

     Dynamical RAM for                qrad:       5.37 MB

     Dynamical RAM for          rho,v,vnew:       6.89 MB

     Dynamical RAM for               rhoin:       2.30 MB

     Dynamical RAM for            rho*nmix:       9.86 MB

     Dynamical RAM for           G-vectors:       2.44 MB

     Dynamical RAM for          h,s,v(r/c):       2.61 MB

     Dynamical RAM for          <psi|beta>:       8.52 MB

     Dynamical RAM for                 psi:      39.78 MB

     Dynamical RAM for                hpsi:      39.78 MB

     Dynamical RAM for                spsi:      39.78 MB

     Dynamical RAM for      wfcinit/wfcrot:      53.79 MB

     Dynamical RAM for           addusdens:     144.24 MB

     Dynamical RAM for          addusforce:     202.67 MB

     Dynamical RAM for         addusstress:     123.90 MB

     Estimated static dynamical RAM per process >     161.49 MB

     Estimated max dynamical RAM per process >     374.02 MB

     Estimated total dynamical RAM >      12.05 GB

     Initial potential from superposition of free atoms

     starting charge     995.9929, renormalised to     996.0000

     negative rho (up, down):  2.065E-03 0.000E+00
     Starting wfcs are  659 randomized atomic wfcs
     Checking if some PAW data can be deallocated... 
       PAW data deallocated on   29 nodes for type:  3

     total cpu time spent up to now is       64.8 secs

     Self-consistent Calculation

     iteration #  1     ecut=    40.00 Ry     beta= 0.40
     Davidson diagonalization with overlap

---- Real-time Memory Report at c_bands before calling an iterative solver
           244 MiB given to the printing process from OS
             0 MiB allocation reported by mallinfo(arena+hblkhd)
         37958 MiB available memory on the node where the printing process lives
------------------
     ethr =  1.00E-02,  avg # of iterations =  7.8

     negative rho (up, down):  2.543E-03 0.000E+00

     total cpu time spent up to now is      309.5 secs

     total energy              =  -22288.04723173 Ry
     estimated scf accuracy    <      11.40500830 Ry

     iteration #  2     ecut=    40.00 Ry     beta= 0.40
     Davidson diagonalization with overlap

---- Real-time Memory Report at c_bands before calling an iterative solver
           346 MiB given to the printing process from OS
             0 MiB allocation reported by mallinfo(arena+hblkhd)
         36630 MiB available memory on the node where the printing process lives
------------------
     ethr =  1.15E-03,  avg # of iterations = 10.8

     negative rho (up, down):  3.717E-03 0.000E+00

     total cpu time spent up to now is      557.6 secs

     total energy              =  -22276.77253171 Ry
     estimated scf accuracy    <     238.54903312 Ry

     iteration #  3     ecut=    40.00 Ry     beta= 0.40
     Davidson diagonalization with overlap

---- Real-time Memory Report at c_bands before calling an iterative solver
           363 MiB given to the printing process from OS
             0 MiB allocation reported by mallinfo(arena+hblkhd)
         36603 MiB available memory on the node where the printing process lives
------------------
     ethr =  1.15E-03,  avg # of iterations =  9.0

     negative rho (up, down):  3.628E-03 0.000E+00

     total cpu time spent up to now is      853.7 secs

     total energy              =  -22292.89094031 Ry
     estimated scf accuracy    <       6.50573711 Ry

     iteration #  4     ecut=    40.00 Ry     beta= 0.40
     Davidson diagonalization with overlap

---- Real-time Memory Report at c_bands before calling an iterative solver
           364 MiB given to the printing process from OS
             0 MiB allocation reported by mallinfo(arena+hblkhd)
         36583 MiB available memory on the node where the printing process lives
------------------
     ethr =  6.53E-04,  avg # of iterations =  3.5

     negative rho (up, down):  3.533E-03 0.000E+00

     total cpu time spent up to now is     1059.0 secs

     total energy              =  -22293.34235358 Ry
     estimated scf accuracy    <       4.12377450 Ry

     iteration #  5     ecut=    40.00 Ry     beta= 0.40
     Davidson diagonalization with overlap

---- Real-time Memory Report at c_bands before calling an iterative solver
           365 MiB given to the printing process from OS
             0 MiB allocation reported by mallinfo(arena+hblkhd)
         36553 MiB available memory on the node where the printing process lives
------------------
     ethr =  4.14E-04,  avg # of iterations =  2.0

     negative rho (up, down):  3.536E-03 0.000E+00

     total cpu time spent up to now is     1255.5 secs

     total energy              =  -22293.58805667 Ry
     estimated scf accuracy    <       0.31630198 Ry

     iteration #  6     ecut=    40.00 Ry     beta= 0.40
     Davidson diagonalization with overlap

---- Real-time Memory Report at c_bands before calling an iterative solver
           365 MiB given to the printing process from OS
             0 MiB allocation reported by mallinfo(arena+hblkhd)
         36529 MiB available memory on the node where the printing process lives
------------------
     ethr =  3.18E-05,  avg # of iterations = 12.2

     negative rho (up, down):  3.634E-03 0.000E+00

     total cpu time spent up to now is     1480.4 secs

     total energy              =  -22293.58433214 Ry
     estimated scf accuracy    <       0.15550961 Ry

     iteration #  7     ecut=    40.00 Ry     beta= 0.40
     Davidson diagonalization with overlap

---- Real-time Memory Report at c_bands before calling an iterative solver
           366 MiB given to the printing process from OS
             0 MiB allocation reported by mallinfo(arena+hblkhd)
         36503 MiB available memory on the node where the printing process lives
------------------
     ethr =  1.56E-05,  avg # of iterations = 12.5

     negative rho (up, down):  3.696E-03 0.000E+00

     total cpu time spent up to now is     1700.7 secs

     total energy              =  -22293.58111947 Ry
     estimated scf accuracy    <       0.11179912 Ry

     iteration #  8     ecut=    40.00 Ry     beta= 0.40
     Davidson diagonalization with overlap

---- Real-time Memory Report at c_bands before calling an iterative solver
           367 MiB given to the printing process from OS
             0 MiB allocation reported by mallinfo(arena+hblkhd)
         36484 MiB available memory on the node where the printing process lives
------------------
     ethr =  1.12E-05,  avg # of iterations =  6.8

     negative rho (up, down):  3.735E-03 0.000E+00

     total cpu time spent up to now is     1906.9 secs

     total energy              =  -22293.58504376 Ry
     estimated scf accuracy    <       0.04283070 Ry

     iteration #  9     ecut=    40.00 Ry     beta= 0.40
     Davidson diagonalization with overlap

---- Real-time Memory Report at c_bands before calling an iterative solver
           369 MiB given to the printing process from OS
             0 MiB allocation reported by mallinfo(arena+hblkhd)
         36455 MiB available memory on the node where the printing process lives
------------------
     c_bands:  2 eigenvalues not converged
     ethr =  4.30E-06,  avg # of iterations = 15.0

     negative rho (up, down):  3.756E-03 0.000E+00

     total cpu time spent up to now is     2129.7 secs

     total energy              =  -22293.58314315 Ry
     estimated scf accuracy    <       0.02957736 Ry

     iteration # 10     ecut=    40.00 Ry     beta= 0.40
     Davidson diagonalization with overlap

---- Real-time Memory Report at c_bands before calling an iterative solver
           369 MiB given to the printing process from OS
             0 MiB allocation reported by mallinfo(arena+hblkhd)
         36437 MiB available memory on the node where the printing process lives
------------------
     ethr =  2.97E-06,  avg # of iterations =  5.0

     negative rho (up, down):  3.787E-03 0.000E+00

     total cpu time spent up to now is     2331.5 secs

     total energy              =  -22293.57857508 Ry
     estimated scf accuracy    <       0.02502004 Ry

     iteration # 11     ecut=    40.00 Ry     beta= 0.40
     Davidson diagonalization with overlap

---- Real-time Memory Report at c_bands before calling an iterative solver
           370 MiB given to the printing process from OS
             0 MiB allocation reported by mallinfo(arena+hblkhd)
         36429 MiB available memory on the node where the printing process lives
------------------
     ethr =  2.51E-06,  avg # of iterations = 16.8

     negative rho (up, down):  3.886E-03 0.000E+00

     total cpu time spent up to now is     2562.3 secs

     total energy              =  -22293.56646024 Ry
     estimated scf accuracy    <       0.01652316 Ry

     iteration # 12     ecut=    40.00 Ry     beta= 0.40
     Davidson diagonalization with overlap

---- Real-time Memory Report at c_bands before calling an iterative solver
           370 MiB given to the printing process from OS
             0 MiB allocation reported by mallinfo(arena+hblkhd)
         36428 MiB available memory on the node where the printing process lives
------------------
     c_bands:  2 eigenvalues not converged
     ethr =  1.66E-06,  avg # of iterations = 17.0

     negative rho (up, down):  3.855E-03 0.000E+00

     total cpu time spent up to now is     2832.8 secs

     total energy              =  -22293.56574124 Ry
     estimated scf accuracy    <       0.00239387 Ry

     iteration # 13     ecut=    40.00 Ry     beta= 0.40
     Davidson diagonalization with overlap

---- Real-time Memory Report at c_bands before calling an iterative solver
           370 MiB given to the printing process from OS
             0 MiB allocation reported by mallinfo(arena+hblkhd)
         36425 MiB available memory on the node where the printing process lives
------------------
     ethr =  2.40E-07,  avg # of iterations =  7.2

     negative rho (up, down):  3.862E-03 0.000E+00

     total cpu time spent up to now is     3042.7 secs

     total energy              =  -22293.56548550 Ry
     estimated scf accuracy    <       0.01113478 Ry

     iteration # 14     ecut=    40.00 Ry     beta= 0.40
     Davidson diagonalization with overlap

---- Real-time Memory Report at c_bands before calling an iterative solver
           370 MiB given to the printing process from OS
             0 MiB allocation reported by mallinfo(arena+hblkhd)
         36429 MiB available memory on the node where the printing process lives
------------------
     ethr =  2.40E-07,  avg # of iterations =  6.0

     negative rho (up, down):  3.846E-03 0.000E+00

     total cpu time spent up to now is     3245.6 secs

     total energy              =  -22293.56620529 Ry
     estimated scf accuracy    <       0.00285219 Ry

     iteration # 15     ecut=    40.00 Ry     beta= 0.40
     Davidson diagonalization with overlap

---- Real-time Memory Report at c_bands before calling an iterative solver
           370 MiB given to the printing process from OS
             0 MiB allocation reported by mallinfo(arena+hblkhd)
         36423 MiB available memory on the node where the printing process lives
------------------
     ethr =  2.40E-07,  avg # of iterations =  1.2

     negative rho (up, down):  3.843E-03 0.000E+00

     total cpu time spent up to now is     3415.8 secs

     total energy              =  -22293.56640366 Ry
     estimated scf accuracy    <       0.00047798 Ry

     iteration # 16     ecut=    40.00 Ry     beta= 0.40
     Davidson diagonalization with overlap

---- Real-time Memory Report at c_bands before calling an iterative solver
           370 MiB given to the printing process from OS
             0 MiB allocation reported by mallinfo(arena+hblkhd)
         36425 MiB available memory on the node where the printing process lives
------------------
     ethr =  4.80E-08,  avg # of iterations =  1.0

     negative rho (up, down):  3.841E-03 0.000E+00

     total cpu time spent up to now is     3578.2 secs

     total energy              =  -22293.56644522 Ry
     estimated scf accuracy    <       0.00019835 Ry

     iteration # 17     ecut=    40.00 Ry     beta= 0.40
     Davidson diagonalization with overlap

---- Real-time Memory Report at c_bands before calling an iterative solver
           370 MiB given to the printing process from OS
             0 MiB allocation reported by mallinfo(arena+hblkhd)
         36418 MiB available memory on the node where the printing process lives
------------------
     ethr =  1.99E-08,  avg # of iterations =  1.0

     negative rho (up, down):  3.840E-03 0.000E+00

     total cpu time spent up to now is     3741.1 secs

     total energy              =  -22293.56644515 Ry
     estimated scf accuracy    <       0.00021752 Ry

     iteration # 18     ecut=    40.00 Ry     beta= 0.40
     Davidson diagonalization with overlap

---- Real-time Memory Report at c_bands before calling an iterative solver
           370 MiB given to the printing process from OS
             0 MiB allocation reported by mallinfo(arena+hblkhd)
         36418 MiB available memory on the node where the printing process lives
------------------
     ethr =  1.99E-08,  avg # of iterations =  1.0

     negative rho (up, down):  3.840E-03 0.000E+00

     total cpu time spent up to now is     3903.8 secs

     total energy              =  -22293.56645275 Ry
     estimated scf accuracy    <       0.00000868 Ry

     iteration # 19     ecut=    40.00 Ry     beta= 0.40
     Davidson diagonalization with overlap

---- Real-time Memory Report at c_bands before calling an iterative solver
           370 MiB given to the printing process from OS
             0 MiB allocation reported by mallinfo(arena+hblkhd)
         36414 MiB available memory on the node where the printing process lives
------------------
     ethr =  8.71E-10,  avg # of iterations =  2.0

     negative rho (up, down):  3.840E-03 0.000E+00

     total cpu time spent up to now is     4099.6 secs

     total energy              =  -22293.56645352 Ry
     estimated scf accuracy    <       0.00000349 Ry

     iteration # 20     ecut=    40.00 Ry     beta= 0.40
     Davidson diagonalization with overlap

---- Real-time Memory Report at c_bands before calling an iterative solver
           370 MiB given to the printing process from OS
             0 MiB allocation reported by mallinfo(arena+hblkhd)
         36417 MiB available memory on the node where the printing process lives
------------------
     ethr =  3.50E-10,  avg # of iterations =  2.0

     negative rho (up, down):  3.840E-03 0.000E+00

     total cpu time spent up to now is     4296.0 secs

     total energy              =  -22293.56645325 Ry
     estimated scf accuracy    <       0.00000683 Ry

     iteration # 21     ecut=    40.00 Ry     beta= 0.40
     Davidson diagonalization with overlap

---- Real-time Memory Report at c_bands before calling an iterative solver
           370 MiB given to the printing process from OS
             0 MiB allocation reported by mallinfo(arena+hblkhd)
         36413 MiB available memory on the node where the printing process lives
------------------
     ethr =  3.50E-10,  avg # of iterations =  2.0

     negative rho (up, down):  3.840E-03 0.000E+00

     total cpu time spent up to now is     4491.1 secs

     total energy              =  -22293.56645375 Ry
     estimated scf accuracy    <       0.00000308 Ry

     iteration # 22     ecut=    40.00 Ry     beta= 0.40
     Davidson diagonalization with overlap

---- Real-time Memory Report at c_bands before calling an iterative solver
           370 MiB given to the printing process from OS
             0 MiB allocation reported by mallinfo(arena+hblkhd)
         36410 MiB available memory on the node where the printing process lives
------------------
     ethr =  3.09E-10,  avg # of iterations =  1.2

     negative rho (up, down):  3.839E-03 0.000E+00

     total cpu time spent up to now is     4662.0 secs

     End of self-consistent calculation

          k = 0.0000 0.0000 0.0000 ( 71933 PWs)   bands (ev):

  -125.4662-125.4651-125.4648-125.4629-125.4595-125.4587-125.4584-125.4575
  -125.3748-125.3730-125.3728-125.3712-125.3681-125.3674-125.3671-125.3663
  -125.2630-125.2627-125.2620-125.2618-125.2616-125.2608-125.2608-125.2598
  -125.1770-125.1761-125.1758-125.1753-125.1750-125.1744-125.1744-125.1735
  -125.0901-125.0892-125.0889-125.0880-125.0875-125.0867-125.0853-125.0830
  -125.0100-124.9932-124.9921-124.9920-124.9918-124.9916-124.9910-124.9866
   -79.6317 -79.6254 -79.6195 -79.6190 -79.6173 -79.6160 -79.6157 -79.6139
   -79.6138 -79.6131 -79.6129 -79.6125 -79.6123 -79.6112 -79.6102 -79.6101
   -79.6099 -79.6089 -79.6071 -79.6066 -79.6060 -79.6057 -79.6047 -79.6004
   -79.5414 -79.5359 -79.5291 -79.5290 -79.5285 -79.5267 -79.5265 -79.5248
   -79.5238 -79.5235 -79.5215 -79.5206 -79.5202 -79.5194 -79.5192 -79.5174
   -79.5168 -79.5164 -79.5151 -79.5126 -79.5117 -79.5114 -79.5112 -79.5106
   -79.4271 -79.4268 -79.4180 -79.4176 -79.4172 -79.4169 -79.4166 -79.4161
   -79.4156 -79.4150 -79.4146 -79.4146 -79.4144 -79.4143 -79.4115 -79.4113
   -79.4105 -79.4104 -79.4101 -79.4094 -79.4093 -79.4083 -79.4024 -79.4022
   -79.3411 -79.3395 -79.3348 -79.3338 -79.3335 -79.3331 -79.3326 -79.3321
   -79.3320 -79.3311 -79.3289 -79.3288 -79.3280 -79.3272 -79.3271 -79.3270
   -79.3267 -79.3263 -79.3258 -79.3253 -79.3253 -79.3243 -79.3165 -79.3149
   -79.2575 -79.2566 -79.2562 -79.2557 -79.2553 -79.2548 -79.2532 -79.2508
   -79.2495 -79.2456 -79.2379 -79.2373 -79.2372 -79.2368 -79.2366 -79.2357
   -79.2352 -79.2343 -79.2337 -79.2329 -79.2325 -79.2306 -79.2249 -79.2206
   -79.1871 -79.1673 -79.1661 -79.1660 -79.1654 -79.1654 -79.1650 -79.1599
   -79.1592 -79.1501 -79.1442 -79.1431 -79.1430 -79.1426 -79.1423 -79.1422
   -79.1419 -79.1379 -79.1330 -79.1303 -79.1302 -79.1292 -79.1179 -79.1171
   -17.4050 -15.0508 -12.6510 -12.2422  -9.4044  -9.1707  -8.4628  -7.6039
    -7.3844  -7.3316  -7.1923  -7.1877  -7.1756  -7.1707  -7.1178  -7.0739
    -7.0197  -7.0027  -6.9956  -6.9806  -6.9767  -6.9407  -6.9407  -6.9337
    -6.9151  -6.9134  -6.8614  -6.8480  -6.8013  -6.8009  -6.7981  -6.7936
    -6.7934  -6.7835  -6.7831  -6.7802  -6.7800  -6.7746  -6.7431  -6.7429
    -6.7399  -6.7398  -6.7239  -6.7232  -6.7195  -6.7194  -6.7050  -6.7050
    -6.6717  -6.6716  -6.6693  -6.6679  -6.6678  -6.6447  -6.6419  -6.6418
    -6.6133  -6.6133  -6.6016  -6.5998  -6.5980  -6.5896  -6.5895  -6.5763
    -6.5762  -6.5365  -6.5331  -6.5200  -6.4997  -6.4930  -6.4929  -6.4895
    -6.4618  -6.4616  -6.4411  -6.4382  -6.4351  -6.4317  -6.4262  -6.4259
    -6.4192  -6.4174  -6.4162  -6.4079  -6.4079  -6.3837  -6.3836  -6.3823
    -6.3822  -6.3771  -6.3409  -6.3408  -6.3366  -6.3305  -6.3304  -6.3122
    -6.3107  -6.2981  -6.2976  -6.2903  -6.2878  -6.2769  -6.2723  -6.2721
    -6.2705  -6.2704  -6.2649  -6.2467  -6.2466  -6.2435  -6.2432  -6.2253
    -6.2201  -6.2068  -6.2063  -6.2062  -6.1976  -6.1973  -6.1965  -6.1884
    -6.1838  -6.1680  -6.1638  -6.1638  -6.1506  -6.1503  -6.1418  -6.1418
    -6.1319  -6.1314  -6.1309  -6.1305  -6.1124  -6.1056  -6.1040  -6.1039
    -6.0912  -6.0910  -6.0891  -6.0833  -6.0748  -6.0723  -6.0656  -6.0625
    -6.0615  -6.0614  -6.0566  -6.0380  -6.0289  -6.0174  -6.0173  -6.0153
    -6.0150  -6.0067  -5.9987  -5.9985  -5.9975  -5.9967  -5.9780  -5.9710
    -5.9709  -5.9695  -5.9643  -5.9634  -5.9579  -5.9574  -5.9411  -5.9405
    -5.9363  -5.9335  -5.9331  -5.9248  -5.9237  -5.9235  -5.9233  -5.9067
    -5.9059  -5.9002  -5.8923  -5.8907  -5.8893  -5.8888  -5.8802  -5.8778
    -5.8718  -5.8693  -5.8669  -5.8659  -5.8621  -5.8535  -5.8418  -5.8410
    -5.8406  -5.8401  -5.8347  -5.8345  -5.8312  -5.8189  -5.8180  -5.8179
    -5.8131  -5.8128  -5.8088  -5.8026  -5.8015  -5.8008  -5.7979  -5.7978
    -5.7966  -5.7893  -5.7879  -5.7845  -5.7808  -5.7731  -5.7713  -5.7638
    -5.7625  -5.7595  -5.7593  -5.7550  -5.7546  -5.7478  -5.7470  -5.7334
    -5.7320  -5.7316  -5.7309  -5.7221  -5.7216  -5.7093  -5.7090  -5.6833
    -5.6817  -5.6802  -5.6787  -5.6682  -5.6680  -5.6672  -5.6586  -5.6493
    -5.6330  -5.6321  -5.6300  -5.6107  -5.6097  -5.5899  -5.5796  -5.5762
    -5.5386  -5.5181  -5.5093  -5.4971  -5.4951  -5.4354  -5.4344  -5.4128
    -5.4115  -4.8473  -4.7855  -4.7814  -4.4744  -4.4728  -4.3953  -4.2464
    -4.2256  -4.2253  -3.8325  -3.8314  -3.7852  -2.9637  -2.8698  -2.5998
    -2.4468  -2.4411  -2.4141  -2.3211  -2.2684  -2.2683  -1.9850  -1.9316
    -1.9088  -1.9083  -1.7184  -1.7150  -1.6358  -1.6312  -1.1414  -0.9219
    -0.9176  -0.6921  -0.5150  -0.5013  -0.3664  -0.3578  -0.3095  -0.3086
     0.1001   0.1033   0.3258   0.3292   0.3536   0.3545   0.4255   0.7010
     0.7266   0.7842   1.0560   1.4014   1.4126   1.7022   1.7142   2.0314
     2.0705   2.2597   2.2713   2.2740   2.2789   2.4006   2.4011   2.8261
     2.8294   2.9168   2.9651   2.9781   3.0508   3.0586   3.3080   3.3528
     3.5999   3.6557   3.7036   3.7088   4.1253   4.1313   4.1875   4.5588
     4.6161   4.8037   4.8347   4.9269   4.9638   4.9735   5.1734   5.1756
     5.2888   5.3555   5.3617   5.3670   5.3938   5.4256   5.4703   5.6597
     5.7104   5.7139   5.7332   5.7456   5.8348   5.8375   5.9216   5.9582
     5.9636   5.9958   6.0155   6.1144   6.1235   6.1590   6.1921   6.2158
     6.2480   6.2791   6.4026   6.4077   6.4431   6.5504   6.6134   6.6696
     6.7254   6.7889   6.8611   6.9106   6.9594   6.9714   7.0573   7.0761
     7.0978   7.1212   7.2244   7.2334   7.2823   7.3484   7.3915   7.4094
     7.4575   7.5913   7.6181   7.6866   7.7159   7.7438   7.7503   7.7861
     7.7870   7.8779   7.8937   7.9557   8.0354   8.1460

     occupation numbers 
     1.0000   1.0000   1.0000   1.0000   1.0000   1.0000   1.0000   1.0000
     1.0000   1.0000   1.0000   1.0000   1.0000   1.0000   1.0000   1.0000
     1.0000   1.0000   1.0000   1.0000   1.0000   1.0000   1.0000   1.0000
     1.0000   1.0000   1.0000   1.0000   1.0000   1.0000   1.0000   1.0000
     1.0000   1.0000   1.0000   1.0000   1.0000   1.0000   1.0000   1.0000
     1.0000   1.0000   1.0000   1.0000   1.0000   1.0000   1.0000   1.0000
     1.0000   1.0000   1.0000   1.0000   1.0000   1.0000   1.0000   1.0000
     1.0000   1.0000   1.0000   1.0000   1.0000   1.0000   1.0000   1.0000
     1.0000   1.0000   1.0000   1.0000   1.0000   1.0000   1.0000   1.0000
     1.0000   1.0000   1.0000   1.0000   1.0000   1.0000   1.0000   1.0000
     1.0000   1.0000   1.0000   1.0000   1.0000   1.0000   1.0000   1.0000
     1.0000   1.0000   1.0000   1.0000   1.0000   1.0000   1.0000   1.0000
     1.0000   1.0000   1.0000   1.0000   1.0000   1.0000   1.0000   1.0000
     1.0000   1.0000   1.0000   1.0000   1.0000   1.0000   1.0000   1.0000
     1.0000   1.0000   1.0000   1.0000   1.0000   1.0000   1.0000   1.0000
     1.0000   1.0000   1.0000   1.0000   1.0000   1.0000   1.0000   1.0000
     1.0000   1.0000   1.0000   1.0000   1.0000   1.0000   1.0000   1.0000
     1.0000   1.0000   1.0000   1.0000   1.0000   1.0000   1.0000   1.0000
     1.0000   1.0000   1.0000   1.0000   1.0000   1.0000   1.0000   1.0000
     1.0000   1.0000   1.0000   1.0000   1.0000   1.0000   1.0000   1.0000
     1.0000   1.0000   1.0000   1.0000   1.0000   1.0000   1.0000   1.0000
     1.0000   1.0000   1.0000   1.0000   1.0000   1.0000   1.0000   1.0000
     1.0000   1.0000   1.0000   1.0000   1.0000   1.0000   1.0000   1.0000
     1.0000   1.0000   1.0000   1.0000   1.0000   1.0000   1.0000   1.0000
     1.0000   1.0000   1.0000   1.0000   1.0000   1.0000   1.0000   1.0000
     1.0000   1.0000   1.0000   1.0000   1.0000   1.0000   1.0000   1.0000
     1.0000   1.0000   1.0000   1.0000   1.0000   1.0000   1.0000   1.0000
     1.0000   1.0000   1.0000   1.0000   1.0000   1.0000   1.0000   1.0000
     1.0000   1.0000   1.0000   1.0000   1.0000   1.0000   1.0000   1.0000
     1.0000   1.0000   1.0000   1.0000   1.0000   1.0000   1.0000   1.0000
     1.0000   1.0000   1.0000   1.0000   1.0000   1.0000   1.0000   1.0000
     1.0000   1.0000   1.0000   1.0000   1.0000   1.0000   1.0000   1.0000
     1.0000   1.0000   1.0000   1.0000   1.0000   1.0000   1.0000   1.0000
     1.0000   1.0000   1.0000   1.0000   1.0000   1.0000   1.0000   1.0000
     1.0000   1.0000   1.0000   1.0000   1.0000   1.0000   1.0000   1.0000
     1.0000   1.0000   1.0000   1.0000   1.0000   1.0000   1.0000   1.0000
     1.0000   1.0000   1.0000   1.0000   1.0000   1.0000   1.0000   1.0000
     1.0000   1.0000   1.0000   1.0000   1.0000   1.0000   1.0000   1.0000
     1.0000   1.0000   1.0000   1.0000   1.0000   1.0000   1.0000   1.0000
     1.0000   1.0000   1.0000   1.0000   1.0000   1.0000   1.0000   1.0000
     1.0000   1.0000   1.0000   1.0000   1.0000   1.0000   1.0000   1.0000
     1.0000   1.0000   1.0000   1.0000   1.0000   1.0000   1.0000   1.0000
     1.0000   1.0000   1.0000   1.0000   1.0000   1.0000   1.0000   1.0000
     1.0000   1.0000   1.0000   1.0000   1.0000   1.0000   1.0000   1.0000
     1.0000   1.0000   1.0000   1.0000   1.0000   1.0000   1.0000   1.0000
     1.0000   1.0000   1.0000   1.0000   1.0000   1.0000   1.0000   1.0000
     1.0000   1.0000   1.0000   1.0000   1.0000   1.0000   1.0000   1.0000
     1.0000   1.0000   1.0000   1.0000   1.0000   1.0000   1.0000   1.0000
     1.0000   1.0000   1.0000   1.0000   1.0000   1.0000   1.0000   1.0000
     1.0000   1.0000   1.0000   1.0000   1.0000   1.0000   1.0000   1.0000
     1.0000   1.0000   1.0000   1.0000   1.0000   1.0000   1.0000   1.0000
     1.0000   1.0000   1.0000   1.0000   1.0000   1.0000   1.0000   1.0000
     1.0000   1.0000   1.0000   1.0000   1.0000   1.0000   1.0000   1.0000
     1.0000   1.0000   1.0000   1.0000   1.0000   1.0000   1.0000   1.0000
     1.0000   1.0000   1.0000   1.0000   1.0000   1.0000   1.0000   1.0000
     1.0000   1.0000   1.0000   1.0000   1.0000   1.0000   1.0000   1.0000
     1.0000   1.0000   1.0000   1.0000   1.0000   1.0000   1.0000   1.0000
     1.0000   1.0000   1.0000   1.0000   1.0000   1.0000   1.0000   1.0000
     1.0000   1.0000   1.0000   1.0000   1.0000   1.0000   1.0000   1.0000
     1.0000   1.0000   1.0000   1.0000   1.0000   1.0000   1.0000   1.0000
     1.0000   1.0000   1.0000   1.0000   1.0000   1.0000   1.0000   1.0000
     1.0002   1.0003   1.0090   1.0094   1.0127   1.0128   1.0272   1.0647
     1.0457   0.9746   0.3095   0.0059   0.0049   0.0000   0.0000   0.0000
     0.0000   0.0000   0.0000   0.0000   0.0000   0.0000   0.0000   0.0000
     0.0000   0.0000   0.0000   0.0000   0.0000   0.0000   0.0000   0.0000
     0.0000   0.0000   0.0000   0.0000   0.0000   0.0000   0.0000   0.0000
     0.0000   0.0000   0.0000   0.0000   0.0000   0.0000   0.0000   0.0000
     0.0000   0.0000   0.0000   0.0000   0.0000   0.0000   0.0000   0.0000
     0.0000   0.0000   0.0000   0.0000   0.0000   0.0000   0.0000   0.0000
     0.0000   0.0000   0.0000   0.0000   0.0000   0.0000   0.0000   0.0000
     0.0000   0.0000   0.0000   0.0000   0.0000   0.0000   0.0000   0.0000
     0.0000   0.0000   0.0000   0.0000   0.0000   0.0000   0.0000   0.0000
     0.0000   0.0000   0.0000   0.0000   0.0000   0.0000   0.0000   0.0000
     0.0000   0.0000   0.0000   0.0000   0.0000   0.0000   0.0000   0.0000
     0.0000   0.0000   0.0000   0.0000   0.0000   0.0000

          k = 0.0000-0.5442-0.2769 ( 71974 PWs)   bands (ev):

  -125.4662-125.4652-125.4647-125.4629-125.4594-125.4590-125.4581-125.4576
  -125.3748-125.3732-125.3727-125.3712-125.3680-125.3678-125.3667-125.3665
  -125.2629-125.2626-125.2622-125.2621-125.2612-125.2609-125.2608-125.2598
  -125.1769-125.1764-125.1756-125.1751-125.1751-125.1749-125.1739-125.1736
  -125.0900-125.0895-125.0886-125.0881-125.0875-125.0867-125.0852-125.0830
  -125.0100-124.9931-124.9924-124.9918-124.9917-124.9916-124.9910-124.9866
   -79.6287 -79.6273 -79.6220 -79.6215 -79.6173 -79.6162 -79.6155 -79.6139
   -79.6139 -79.6129 -79.6121 -79.6110 -79.6110 -79.6106 -79.6103 -79.6095
   -79.6095 -79.6090 -79.6070 -79.6065 -79.6053 -79.6048 -79.6042 -79.6038
   -79.5385 -79.5370 -79.5325 -79.5322 -79.5286 -79.5269 -79.5263 -79.5248
   -79.5214 -79.5211 -79.5210 -79.5198 -79.5196 -79.5195 -79.5191 -79.5174
   -79.5166 -79.5152 -79.5150 -79.5148 -79.5124 -79.5121 -79.5109 -79.5108
   -79.4242 -79.4234 -79.4229 -79.4227 -79.4179 -79.4176 -79.4176 -79.4167
   -79.4165 -79.4163 -79.4155 -79.4145 -79.4114 -79.4111 -79.4108 -79.4106
   -79.4097 -79.4095 -79.4093 -79.4083 -79.4067 -79.4060 -79.4056 -79.4053
   -79.3378 -79.3373 -79.3360 -79.3357 -79.3347 -79.3341 -79.3332 -79.3329
   -79.3327 -79.3327 -79.3315 -79.3313 -79.3279 -79.3274 -79.3264 -79.3261
   -79.3259 -79.3258 -79.3247 -79.3244 -79.3204 -79.3198 -79.3186 -79.3183
   -79.2574 -79.2569 -79.2559 -79.2557 -79.2553 -79.2548 -79.2532 -79.2508
   -79.2462 -79.2456 -79.2429 -79.2409 -79.2377 -79.2373 -79.2363 -79.2358
   -79.2352 -79.2343 -79.2329 -79.2307 -79.2288 -79.2282 -79.2254 -79.2232
   -79.1871 -79.1672 -79.1665 -79.1657 -79.1655 -79.1653 -79.1650 -79.1599
   -79.1592 -79.1495 -79.1441 -79.1434 -79.1426 -79.1423 -79.1421 -79.1420
   -79.1393 -79.1386 -79.1379 -79.1361 -79.1255 -79.1219 -79.1212 -79.1181
   -17.4050 -15.0508 -12.6510 -12.2422  -9.4044  -9.1706  -8.0939  -8.0928
    -7.3963  -7.3832  -7.3710  -7.1763  -7.0597  -7.0579  -6.9936  -6.9934
    -6.9674  -6.9662  -6.9489  -6.9488  -6.9417  -6.9413  -6.9160  -6.9149
    -6.9147  -6.9142  -6.9091  -6.9090  -6.8653  -6.8649  -6.8576  -6.8570
    -6.8544  -6.8539  -6.8213  -6.8210  -6.7653  -6.7650  -6.7604  -6.7596
    -6.7467  -6.7461  -6.7457  -6.7453  -6.7379  -6.7373  -6.7362  -6.7360
    -6.6859  -6.6858  -6.6720  -6.6717  -6.6646  -6.6641  -6.6620  -6.6615
    -6.6008  -6.5999  -6.5813  -6.5811  -6.5598  -6.5596  -6.5561  -6.5559
    -6.5327  -6.5324  -6.5134  -6.5131  -6.5093  -6.5086  -6.5025  -6.5020
    -6.4696  -6.4694  -6.4612  -6.4610  -6.4534  -6.4532  -6.4411  -6.4399
    -6.4297  -6.4297  -6.4259  -6.4257  -6.3958  -6.3957  -6.3883  -6.3877
    -6.3706  -6.3703  -6.3662  -6.3655  -6.3614  -6.3610  -6.3517  -6.3515
    -6.3131  -6.3126  -6.2995  -6.2988  -6.2931  -6.2924  -6.2772  -6.2762
    -6.2681  -6.2679  -6.2634  -6.2623  -6.2586  -6.2582  -6.2394  -6.2385
    -6.2383  -6.2378  -6.2317  -6.2314  -6.2251  -6.2242  -6.2059  -6.2054
    -6.1950  -6.1946  -6.1892  -6.1884  -6.1710  -6.1705  -6.1453  -6.1448
    -6.1414  -6.1393  -6.1321  -6.1319  -6.1253  -6.1246  -6.1229  -6.1221
    -6.0924  -6.0921  -6.0843  -6.0834  -6.0784  -6.0779  -6.0714  -6.0706
    -6.0540  -6.0356  -6.0353  -6.0153  -6.0152  -6.0151  -6.0138  -6.0121
    -6.0115  -5.9866  -5.9860  -5.9717  -5.9713  -5.9649  -5.9645  -5.9620
    -5.9619  -5.9482  -5.9477  -5.9398  -5.9393  -5.9368  -5.9364  -5.9296
    -5.9292  -5.9229  -5.9223  -5.9179  -5.9174  -5.9097  -5.9093  -5.8749
    -5.8747  -5.8735  -5.8732  -5.8650  -5.8649  -5.8622  -5.8616  -5.8615
    -5.8611  -5.8573  -5.8559  -5.8529  -5.8522  -5.8452  -5.8442  -5.8369
    -5.8367  -5.8225  -5.8220  -5.8198  -5.8187  -5.8146  -5.8132  -5.8073
    -5.8060  -5.7851  -5.7826  -5.7819  -5.7805  -5.7796  -5.7784  -5.7722
    -5.7712  -5.7586  -5.7560  -5.7555  -5.7548  -5.7547  -5.7539  -5.7493
    -5.7490  -5.7424  -5.7421  -5.7376  -5.7369  -5.7323  -5.7318  -5.7084
    -5.7065  -5.7057  -5.7055  -5.7034  -5.7029  -5.6970  -5.6961  -5.6939
    -5.6923  -5.6774  -5.6768  -5.6764  -5.6747  -5.6566  -5.6509  -5.6329
    -5.6323  -5.6275  -5.6241  -5.6216  -5.6177  -5.6153  -5.6145  -5.5776
    -5.5746  -5.5674  -5.5619  -5.5465  -5.5412  -5.3322  -5.3318  -5.3030
    -5.3019  -4.7885  -4.7844  -4.5715  -4.5692  -4.4373  -4.4368  -4.3960
    -4.1542  -4.1536  -3.7896  -3.7593  -3.7558  -2.8924  -2.7541  -2.7480
    -2.6875  -2.6863  -2.5808  -2.5747  -2.4184  -2.3650  -2.3631  -2.1498
    -2.1495  -1.9387  -1.7385  -1.7352  -1.4069  -1.4065  -1.1735  -1.1732
    -0.7874  -0.7857  -0.6385  -0.6374  -0.5152  -0.4003  -0.3993  -0.0216
    -0.0192   0.2676   0.2680   0.5595   0.5635   0.7594   0.8710   0.8729
     0.9683   0.9718   1.3240   1.3266   1.3515   1.3561   1.5166   1.5194
     2.1057   2.1078   2.5738   2.5764   2.7701   2.7722   2.9048   2.9077
     3.2682   3.2737   3.4260   3.4318   3.5403   3.5439   3.5833   3.5844
     3.7633   3.7677   3.8845   3.8878   3.9229   3.9239   4.0027   4.0097
     4.0391   4.0544   4.4982   4.5084   4.5627   4.7241   4.7259   4.8367
     4.8416   4.9897   5.0177   5.0218   5.0968   5.1340   5.1401   5.1525
     5.3345   5.3383   5.4947   5.5039   5.7735   5.8226   5.8277   5.8768
     5.8878   5.9225   5.9762   6.0535   6.1532   6.1648   6.2279   6.2623
     6.3331   6.3436   6.3780   6.4004   6.4654   6.4868   6.5108   6.5582
     6.6665   6.7391   6.8225   6.8252   6.9050   6.9282   7.0350   7.0527
     7.1306   7.1533   7.2012   7.2100   7.2223   7.2764   7.2885   7.4452
     7.5388   7.5859   7.6572   7.7493   7.8095   7.8127   7.8159   7.8914
     7.9462   8.0177   8.0841   8.1927   8.2603   8.3054

     occupation numbers 
     1.0000   1.0000   1.0000   1.0000   1.0000   1.0000   1.0000   1.0000
     1.0000   1.0000   1.0000   1.0000   1.0000   1.0000   1.0000   1.0000
     1.0000   1.0000   1.0000   1.0000   1.0000   1.0000   1.0000   1.0000
     1.0000   1.0000   1.0000   1.0000   1.0000   1.0000   1.0000   1.0000
     1.0000   1.0000   1.0000   1.0000   1.0000   1.0000   1.0000   1.0000
     1.0000   1.0000   1.0000   1.0000   1.0000   1.0000   1.0000   1.0000
     1.0000   1.0000   1.0000   1.0000   1.0000   1.0000   1.0000   1.0000
     1.0000   1.0000   1.0000   1.0000   1.0000   1.0000   1.0000   1.0000
     1.0000   1.0000   1.0000   1.0000   1.0000   1.0000   1.0000   1.0000
     1.0000   1.0000   1.0000   1.0000   1.0000   1.0000   1.0000   1.0000
     1.0000   1.0000   1.0000   1.0000   1.0000   1.0000   1.0000   1.0000
     1.0000   1.0000   1.0000   1.0000   1.0000   1.0000   1.0000   1.0000
     1.0000   1.0000   1.0000   1.0000   1.0000   1.0000   1.0000   1.0000
     1.0000   1.0000   1.0000   1.0000   1.0000   1.0000   1.0000   1.0000
     1.0000   1.0000   1.0000   1.0000   1.0000   1.0000   1.0000   1.0000
     1.0000   1.0000   1.0000   1.0000   1.0000   1.0000   1.0000   1.0000
     1.0000   1.0000   1.0000   1.0000   1.0000   1.0000   1.0000   1.0000
     1.0000   1.0000   1.0000   1.0000   1.0000   1.0000   1.0000   1.0000
     1.0000   1.0000   1.0000   1.0000   1.0000   1.0000   1.0000   1.0000
     1.0000   1.0000   1.0000   1.0000   1.0000   1.0000   1.0000   1.0000
     1.0000   1.0000   1.0000   1.0000   1.0000   1.0000   1.0000   1.0000
     1.0000   1.0000   1.0000   1.0000   1.0000   1.0000   1.0000   1.0000
     1.0000   1.0000   1.0000   1.0000   1.0000   1.0000   1.0000   1.0000
     1.0000   1.0000   1.0000   1.0000   1.0000   1.0000   1.0000   1.0000
     1.0000   1.0000   1.0000   1.0000   1.0000   1.0000   1.0000   1.0000
     1.0000   1.0000   1.0000   1.0000   1.0000   1.0000   1.0000   1.0000
     1.0000   1.0000   1.0000   1.0000   1.0000   1.0000   1.0000   1.0000
     1.0000   1.0000   1.0000   1.0000   1.0000   1.0000   1.0000   1.0000
     1.0000   1.0000   1.0000   1.0000   1.0000   1.0000   1.0000   1.0000
     1.0000   1.0000   1.0000   1.0000   1.0000   1.0000   1.0000   1.0000
     1.0000   1.0000   1.0000   1.0000   1.0000   1.0000   1.0000   1.0000
     1.0000   1.0000   1.0000   1.0000   1.0000   1.0000   1.0000   1.0000
     1.0000   1.0000   1.0000   1.0000   1.0000   1.0000   1.0000   1.0000
     1.0000   1.0000   1.0000   1.0000   1.0000   1.0000   1.0000   1.0000
     1.0000   1.0000   1.0000   1.0000   1.0000   1.0000   1.0000   1.0000
     1.0000   1.0000   1.0000   1.0000   1.0000   1.0000   1.0000   1.0000
     1.0000   1.0000   1.0000   1.0000   1.0000   1.0000   1.0000   1.0000
     1.0000   1.0000   1.0000   1.0000   1.0000   1.0000   1.0000   1.0000
     1.0000   1.0000   1.0000   1.0000   1.0000   1.0000   1.0000   1.0000
     1.0000   1.0000   1.0000   1.0000   1.0000   1.0000   1.0000   1.0000
     1.0000   1.0000   1.0000   1.0000   1.0000   1.0000   1.0000   1.0000
     1.0000   1.0000   1.0000   1.0000   1.0000   1.0000   1.0000   1.0000
     1.0000   1.0000   1.0000   1.0000   1.0000   1.0000   1.0000   1.0000
     1.0000   1.0000   1.0000   1.0000   1.0000   1.0000   1.0000   1.0000
     1.0000   1.0000   1.0000   1.0000   1.0000   1.0000   1.0000   1.0000
     1.0000   1.0000   1.0000   1.0000   1.0000   1.0000   1.0000   1.0000
     1.0000   1.0000   1.0000   1.0000   1.0000   1.0000   1.0000   1.0000
     1.0000   1.0000   1.0000   1.0000   1.0000   1.0000   1.0000   1.0000
     1.0000   1.0000   1.0000   1.0000   1.0000   1.0000   1.0000   1.0000
     1.0000   1.0000   1.0000   1.0000   1.0000   1.0000   1.0000   1.0000
     1.0000   1.0000   1.0000   1.0000   1.0000   1.0000   1.0000   1.0000
     1.0000   1.0000   1.0000   1.0000   1.0000   1.0000   1.0000   1.0000
     1.0000   1.0000   1.0000   1.0000   1.0000   1.0000   1.0000   1.0000
     1.0000   1.0000   1.0000   1.0000   1.0000   1.0000   1.0000   1.0000
     1.0000   1.0000   1.0000   1.0000   1.0000   1.0000   1.0000   1.0000
     1.0000   1.0000   1.0000   1.0000   1.0000   1.0000   1.0000   1.0000
     1.0000   1.0000   1.0000   1.0000   1.0000   1.0000   1.0000   1.0000
     1.0000   1.0000   1.0000   1.0000   1.0000   1.0000   1.0000   1.0000
     1.0000   1.0000   1.0000   1.0000   1.0000   1.0000   1.0000   1.0000
     1.0000   1.0000   1.0000   1.0000   1.0000   1.0000   1.0000   1.0000
     1.0000   1.0000   1.0000   1.0000   1.0000   1.0000   1.0000   1.0000
     1.0000   1.0041   1.0041   1.0701   1.0713   1.0102   0.7940   0.7891
     0.5312   0.5216   0.0186   0.0180   0.0126   0.0118   0.0008   0.0008
     0.0000   0.0000   0.0000   0.0000   0.0000   0.0000   0.0000   0.0000
     0.0000   0.0000   0.0000   0.0000   0.0000   0.0000   0.0000   0.0000
     0.0000   0.0000   0.0000   0.0000   0.0000   0.0000   0.0000   0.0000
     0.0000   0.0000   0.0000   0.0000   0.0000   0.0000   0.0000   0.0000
     0.0000   0.0000   0.0000   0.0000   0.0000   0.0000   0.0000   0.0000
     0.0000   0.0000   0.0000   0.0000   0.0000   0.0000   0.0000   0.0000
     0.0000   0.0000   0.0000   0.0000   0.0000   0.0000   0.0000   0.0000
     0.0000   0.0000   0.0000   0.0000   0.0000   0.0000   0.0000   0.0000
     0.0000   0.0000   0.0000   0.0000   0.0000   0.0000   0.0000   0.0000
     0.0000   0.0000   0.0000   0.0000   0.0000   0.0000   0.0000   0.0000
     0.0000   0.0000   0.0000   0.0000   0.0000   0.0000   0.0000   0.0000
     0.0000   0.0000   0.0000   0.0000   0.0000   0.0000

          k =-0.5000-0.1216-1.1076 ( 71976 PWs)   bands (ev):

  -125.4662-125.4651-125.4648-125.4629-125.4595-125.4587-125.4584-125.4575
  -125.3748-125.3730-125.3728-125.3712-125.3681-125.3674-125.3671-125.3663
  -125.2630-125.2627-125.2620-125.2618-125.2616-125.2608-125.2608-125.2598
  -125.1770-125.1761-125.1758-125.1753-125.1750-125.1744-125.1744-125.1735
  -125.0901-125.0892-125.0889-125.0880-125.0875-125.0867-125.0853-125.0830
  -125.0100-124.9932-124.9921-124.9920-124.9918-124.9916-124.9910-124.9866
   -79.6317 -79.6254 -79.6195 -79.6190 -79.6173 -79.6160 -79.6157 -79.6139
   -79.6138 -79.6131 -79.6129 -79.6125 -79.6123 -79.6112 -79.6102 -79.6101
   -79.6099 -79.6089 -79.6071 -79.6066 -79.6060 -79.6057 -79.6047 -79.6004
   -79.5414 -79.5359 -79.5291 -79.5290 -79.5285 -79.5267 -79.5265 -79.5248
   -79.5238 -79.5235 -79.5215 -79.5206 -79.5202 -79.5194 -79.5192 -79.5174
   -79.5168 -79.5164 -79.5151 -79.5126 -79.5117 -79.5114 -79.5112 -79.5106
   -79.4271 -79.4268 -79.4180 -79.4176 -79.4172 -79.4169 -79.4166 -79.4161
   -79.4156 -79.4150 -79.4146 -79.4146 -79.4144 -79.4143 -79.4115 -79.4113
   -79.4105 -79.4104 -79.4101 -79.4094 -79.4093 -79.4083 -79.4024 -79.4022
   -79.3411 -79.3395 -79.3348 -79.3338 -79.3335 -79.3331 -79.3326 -79.3321
   -79.3320 -79.3311 -79.3289 -79.3288 -79.3280 -79.3272 -79.3271 -79.3270
   -79.3267 -79.3263 -79.3258 -79.3253 -79.3253 -79.3243 -79.3165 -79.3149
   -79.2575 -79.2566 -79.2562 -79.2557 -79.2553 -79.2548 -79.2532 -79.2508
   -79.2495 -79.2456 -79.2379 -79.2373 -79.2372 -79.2368 -79.2366 -79.2357
   -79.2352 -79.2343 -79.2337 -79.2329 -79.2325 -79.2306 -79.2249 -79.2206
   -79.1871 -79.1673 -79.1661 -79.1660 -79.1654 -79.1654 -79.1650 -79.1599
   -79.1592 -79.1501 -79.1442 -79.1431 -79.1430 -79.1426 -79.1423 -79.1422
   -79.1419 -79.1379 -79.1330 -79.1303 -79.1302 -79.1292 -79.1179 -79.1171
   -17.4050 -15.0508 -12.6510 -12.2422  -9.4044  -9.1707  -8.1787  -8.1608
    -7.3844  -7.1920  -7.1880  -7.1869  -7.1792  -7.1721  -7.0962  -7.0950
    -7.0178  -7.0137  -6.9730  -6.9648  -6.9522  -6.9521  -6.9416  -6.9415
    -6.8912  -6.8888  -6.8703  -6.8649  -6.8304  -6.8238  -6.7963  -6.7933
    -6.7932  -6.7911  -6.7802  -6.7801  -6.7686  -6.7662  -6.7430  -6.7429
    -6.7400  -6.7399  -6.7193  -6.7192  -6.7052  -6.7051  -6.6887  -6.6885
    -6.6744  -6.6717  -6.6716  -6.6707  -6.6679  -6.6678  -6.6421  -6.6419
    -6.6133  -6.6132  -6.6068  -6.6029  -6.5897  -6.5896  -6.5762  -6.5760
    -6.5606  -6.5526  -6.5420  -6.5370  -6.4927  -6.4926  -6.4732  -6.4715
    -6.4616  -6.4615  -6.4453  -6.4440  -6.4420  -6.4381  -6.4263  -6.4259
    -6.4124  -6.4090  -6.4079  -6.4078  -6.3836  -6.3835  -6.3823  -6.3822
    -6.3702  -6.3687  -6.3518  -6.3466  -6.3414  -6.3413  -6.3307  -6.3306
    -6.3230  -6.3203  -6.2986  -6.2979  -6.2835  -6.2833  -6.2719  -6.2717
    -6.2584  -6.2516  -6.2475  -6.2468  -6.2467  -6.2457  -6.2435  -6.2430
    -6.2414  -6.2390  -6.2065  -6.2062  -6.2056  -6.1977  -6.1972  -6.1967
    -6.1638  -6.1638  -6.1507  -6.1505  -6.1496  -6.1456  -6.1417  -6.1415
    -6.1318  -6.1314  -6.1219  -6.1212  -6.1041  -6.1039  -6.0984  -6.0952
    -6.0910  -6.0909  -6.0824  -6.0759  -6.0649  -6.0626  -6.0615  -6.0614
    -6.0548  -6.0463  -6.0450  -6.0369  -6.0339  -6.0174  -6.0173  -6.0152
    -6.0150  -6.0061  -6.0061  -5.9988  -5.9985  -5.9978  -5.9969  -5.9952
    -5.9930  -5.9844  -5.9827  -5.9708  -5.9707  -5.9578  -5.9574  -5.9564
    -5.9560  -5.9334  -5.9330  -5.9236  -5.9235  -5.9079  -5.9070  -5.9064
    -5.9060  -5.9023  -5.9015  -5.8923  -5.8907  -5.8893  -5.8889  -5.8811
    -5.8783  -5.8683  -5.8662  -5.8660  -5.8648  -5.8504  -5.8479  -5.8471
    -5.8462  -5.8409  -5.8405  -5.8349  -5.8345  -5.8259  -5.8236  -5.8129
    -5.8126  -5.8095  -5.8080  -5.7986  -5.7978  -5.7910  -5.7904  -5.7894
    -5.7881  -5.7760  -5.7750  -5.7671  -5.7649  -5.7630  -5.7623  -5.7595
    -5.7591  -5.7550  -5.7546  -5.7439  -5.7426  -5.7333  -5.7329  -5.7317
    -5.7316  -5.7290  -5.7268  -5.7223  -5.7215  -5.7095  -5.7089  -5.7073
    -5.7038  -5.6826  -5.6817  -5.6683  -5.6672  -5.6629  -5.6602  -5.6345
    -5.6341  -5.6132  -5.6122  -5.6122  -5.6093  -5.5792  -5.5760  -5.5146
    -5.5131  -5.4876  -5.4859  -5.4306  -5.4296  -5.4125  -5.4113  -5.3894
    -5.3757  -4.7883  -4.7845  -4.7126  -4.7002  -4.4744  -4.4730  -4.3953
    -4.2261  -4.2256  -3.8325  -3.8311  -3.7856  -3.0503  -3.0459  -2.8820
    -2.4470  -2.4410  -2.4281  -2.4095  -2.3866  -2.2684  -2.2681  -2.1119
    -2.1099  -1.9361  -1.6358  -1.6313  -1.0975  -1.0970  -0.9217  -0.9173
    -0.7242  -0.7233  -0.5151  -0.4210  -0.4123  -0.3096  -0.3086  -0.1657
    -0.1535   0.3536   0.3544   0.3665   0.3971   0.7001   0.7249   0.7270
     0.7284   0.7862   0.8361   0.8678   1.1903   1.1958   1.7023   1.7143
     2.2654   2.2792   2.4003   2.4017   2.5881   2.5943   2.6116   2.6230
     2.8262   2.8290   3.3082   3.3298   3.3562   3.3802   3.3838   3.4192
     3.5206   3.5246   3.7038   3.7078   3.8851   3.9008   4.1253   4.1308
     4.5475   4.5562   4.5706   4.6774   4.6822   4.8048   4.8449   4.9643
     5.0101   5.1734   5.1755   5.2608   5.3544   5.3863   5.4259   5.4297
     5.4634   5.4932   5.5661   5.6388   5.6824   5.6875   5.7115   5.7160
     5.8372   5.8414   5.9565   5.9627   6.1830   6.1858   6.2716   6.3608
     6.3701   6.3740   6.4799   6.5356   6.6802   6.8143   6.8866   6.9050
     6.9215   6.9510   7.0356   7.0711   7.0746   7.1074   7.1298   7.1991
     7.2311   7.2357   7.2533   7.4450   7.5196   7.5949   7.6047   7.6069
     7.6220   7.6635   7.7022   7.7137   7.7369   7.7667   7.7871   7.7907
     7.9359   7.9744   7.9953   8.0704   8.0935   8.1432

     occupation numbers 
     1.0000   1.0000   1.0000   1.0000   1.0000   1.0000   1.0000   1.0000
     1.0000   1.0000   1.0000   1.0000   1.0000   1.0000   1.0000   1.0000
     1.0000   1.0000   1.0000   1.0000   1.0000   1.0000   1.0000   1.0000
     1.0000   1.0000   1.0000   1.0000   1.0000   1.0000   1.0000   1.0000
     1.0000   1.0000   1.0000   1.0000   1.0000   1.0000   1.0000   1.0000
     1.0000   1.0000   1.0000   1.0000   1.0000   1.0000   1.0000   1.0000
     1.0000   1.0000   1.0000   1.0000   1.0000   1.0000   1.0000   1.0000
     1.0000   1.0000   1.0000   1.0000   1.0000   1.0000   1.0000   1.0000
     1.0000   1.0000   1.0000   1.0000   1.0000   1.0000   1.0000   1.0000
     1.0000   1.0000   1.0000   1.0000   1.0000   1.0000   1.0000   1.0000
     1.0000   1.0000   1.0000   1.0000   1.0000   1.0000   1.0000   1.0000
     1.0000   1.0000   1.0000   1.0000   1.0000   1.0000   1.0000   1.0000
     1.0000   1.0000   1.0000   1.0000   1.0000   1.0000   1.0000   1.0000
     1.0000   1.0000   1.0000   1.0000   1.0000   1.0000   1.0000   1.0000
     1.0000   1.0000   1.0000   1.0000   1.0000   1.0000   1.0000   1.0000
     1.0000   1.0000   1.0000   1.0000   1.0000   1.0000   1.0000   1.0000
     1.0000   1.0000   1.0000   1.0000   1.0000   1.0000   1.0000   1.0000
     1.0000   1.0000   1.0000   1.0000   1.0000   1.0000   1.0000   1.0000
     1.0000   1.0000   1.0000   1.0000   1.0000   1.0000   1.0000   1.0000
     1.0000   1.0000   1.0000   1.0000   1.0000   1.0000   1.0000   1.0000
     1.0000   1.0000   1.0000   1.0000   1.0000   1.0000   1.0000   1.0000
     1.0000   1.0000   1.0000   1.0000   1.0000   1.0000   1.0000   1.0000
     1.0000   1.0000   1.0000   1.0000   1.0000   1.0000   1.0000   1.0000
     1.0000   1.0000   1.0000   1.0000   1.0000   1.0000   1.0000   1.0000
     1.0000   1.0000   1.0000   1.0000   1.0000   1.0000   1.0000   1.0000
     1.0000   1.0000   1.0000   1.0000   1.0000   1.0000   1.0000   1.0000
     1.0000   1.0000   1.0000   1.0000   1.0000   1.0000   1.0000   1.0000
     1.0000   1.0000   1.0000   1.0000   1.0000   1.0000   1.0000   1.0000
     1.0000   1.0000   1.0000   1.0000   1.0000   1.0000   1.0000   1.0000
     1.0000   1.0000   1.0000   1.0000   1.0000   1.0000   1.0000   1.0000
     1.0000   1.0000   1.0000   1.0000   1.0000   1.0000   1.0000   1.0000
     1.0000   1.0000   1.0000   1.0000   1.0000   1.0000   1.0000   1.0000
     1.0000   1.0000   1.0000   1.0000   1.0000   1.0000   1.0000   1.0000
     1.0000   1.0000   1.0000   1.0000   1.0000   1.0000   1.0000   1.0000
     1.0000   1.0000   1.0000   1.0000   1.0000   1.0000   1.0000   1.0000
     1.0000   1.0000   1.0000   1.0000   1.0000   1.0000   1.0000   1.0000
     1.0000   1.0000   1.0000   1.0000   1.0000   1.0000   1.0000   1.0000
     1.0000   1.0000   1.0000   1.0000   1.0000   1.0000   1.0000   1.0000
     1.0000   1.0000   1.0000   1.0000   1.0000   1.0000   1.0000   1.0000
     1.0000   1.0000   1.0000   1.0000   1.0000   1.0000   1.0000   1.0000
     1.0000   1.0000   1.0000   1.0000   1.0000   1.0000   1.0000   1.0000
     1.0000   1.0000   1.0000   1.0000   1.0000   1.0000   1.0000   1.0000
     1.0000   1.0000   1.0000   1.0000   1.0000   1.0000   1.0000   1.0000
     1.0000   1.0000   1.0000   1.0000   1.0000   1.0000   1.0000   1.0000
     1.0000   1.0000   1.0000   1.0000   1.0000   1.0000   1.0000   1.0000
     1.0000   1.0000   1.0000   1.0000   1.0000   1.0000   1.0000   1.0000
     1.0000   1.0000   1.0000   1.0000   1.0000   1.0000   1.0000   1.0000
     1.0000   1.0000   1.0000   1.0000   1.0000   1.0000   1.0000   1.0000
     1.0000   1.0000   1.0000   1.0000   1.0000   1.0000   1.0000   1.0000
     1.0000   1.0000   1.0000   1.0000   1.0000   1.0000   1.0000   1.0000
     1.0000   1.0000   1.0000   1.0000   1.0000   1.0000   1.0000   1.0000
     1.0000   1.0000   1.0000   1.0000   1.0000   1.0000   1.0000   1.0000
     1.0000   1.0000   1.0000   1.0000   1.0000   1.0000   1.0000   1.0000
     1.0000   1.0000   1.0000   1.0000   1.0000   1.0000   1.0000   1.0000
     1.0000   1.0000   1.0000   1.0000   1.0000   1.0000   1.0000   1.0000
     1.0000   1.0000   1.0000   1.0000   1.0000   1.0000   1.0000   1.0000
     1.0000   1.0000   1.0000   1.0000   1.0000   1.0000   1.0000   1.0000
     1.0000   1.0000   1.0000   1.0000   1.0000   1.0000   1.0000   1.0000
     1.0000   1.0000   1.0000   1.0000   1.0000   1.0000   1.0000   1.0000
     1.0000   1.0000   1.0000   1.0000   1.0000   1.0000   1.0000   1.0000
     1.0000   1.0000   1.0000   1.0000   1.0000   1.0000   1.0000   1.0000
     1.0000   1.0127   1.0128   1.0147   1.0205   1.0652   1.0473   1.0454
     1.0442   0.9712   0.8758   0.8018   0.0948   0.0895   0.0000   0.0000
     0.0000   0.0000   0.0000   0.0000   0.0000   0.0000   0.0000   0.0000
     0.0000   0.0000   0.0000   0.0000   0.0000   0.0000   0.0000   0.0000
     0.0000   0.0000   0.0000   0.0000   0.0000   0.0000   0.0000   0.0000
     0.0000   0.0000   0.0000   0.0000   0.0000   0.0000   0.0000   0.0000
     0.0000   0.0000   0.0000   0.0000   0.0000   0.0000   0.0000   0.0000
     0.0000   0.0000   0.0000   0.0000   0.0000   0.0000   0.0000   0.0000
     0.0000   0.0000   0.0000   0.0000   0.0000   0.0000   0.0000   0.0000
     0.0000   0.0000   0.0000   0.0000   0.0000   0.0000   0.0000   0.0000
     0.0000   0.0000   0.0000   0.0000   0.0000   0.0000   0.0000   0.0000
     0.0000   0.0000   0.0000   0.0000   0.0000   0.0000   0.0000   0.0000
     0.0000   0.0000   0.0000   0.0000   0.0000   0.0000   0.0000   0.0000
     0.0000   0.0000   0.0000   0.0000   0.0000   0.0000

          k =-0.5000-0.6659-1.3845 ( 72036 PWs)   bands (ev):

  -125.4662-125.4652-125.4647-125.4629-125.4594-125.4590-125.4581-125.4576
  -125.3748-125.3732-125.3727-125.3712-125.3680-125.3678-125.3667-125.3665
  -125.2629-125.2626-125.2622-125.2621-125.2612-125.2609-125.2608-125.2598
  -125.1769-125.1764-125.1756-125.1751-125.1751-125.1749-125.1739-125.1736
  -125.0900-125.0895-125.0886-125.0881-125.0875-125.0867-125.0852-125.0830
  -125.0100-124.9931-124.9924-124.9918-124.9917-124.9916-124.9910-124.9866
   -79.6287 -79.6273 -79.6220 -79.6215 -79.6173 -79.6162 -79.6155 -79.6139
   -79.6139 -79.6129 -79.6121 -79.6110 -79.6110 -79.6106 -79.6103 -79.6095
   -79.6095 -79.6090 -79.6070 -79.6065 -79.6053 -79.6048 -79.6042 -79.6038
   -79.5385 -79.5370 -79.5325 -79.5322 -79.5286 -79.5269 -79.5263 -79.5248
   -79.5214 -79.5211 -79.5210 -79.5198 -79.5196 -79.5195 -79.5191 -79.5174
   -79.5166 -79.5152 -79.5150 -79.5148 -79.5124 -79.5121 -79.5109 -79.5108
   -79.4242 -79.4234 -79.4229 -79.4227 -79.4179 -79.4176 -79.4176 -79.4167
   -79.4165 -79.4163 -79.4155 -79.4145 -79.4114 -79.4111 -79.4108 -79.4106
   -79.4097 -79.4095 -79.4093 -79.4083 -79.4067 -79.4060 -79.4056 -79.4053
   -79.3378 -79.3373 -79.3360 -79.3357 -79.3347 -79.3341 -79.3332 -79.3329
   -79.3327 -79.3327 -79.3315 -79.3313 -79.3279 -79.3274 -79.3264 -79.3261
   -79.3259 -79.3258 -79.3247 -79.3244 -79.3204 -79.3198 -79.3186 -79.3183
   -79.2574 -79.2569 -79.2559 -79.2557 -79.2553 -79.2548 -79.2532 -79.2508
   -79.2462 -79.2456 -79.2429 -79.2409 -79.2377 -79.2373 -79.2363 -79.2358
   -79.2352 -79.2343 -79.2329 -79.2307 -79.2288 -79.2282 -79.2254 -79.2232
   -79.1871 -79.1672 -79.1665 -79.1657 -79.1655 -79.1653 -79.1650 -79.1599
   -79.1592 -79.1495 -79.1441 -79.1434 -79.1426 -79.1423 -79.1421 -79.1420
   -79.1393 -79.1386 -79.1379 -79.1361 -79.1255 -79.1219 -79.1212 -79.1181
   -17.4050 -15.0508 -12.6510 -12.2422  -9.4044  -9.1706  -7.9505  -7.9494
    -7.6861  -7.6847  -7.3824  -7.1763  -7.0143  -7.0137  -6.9971  -6.9966
    -6.9678  -6.9677  -6.9505  -6.9501  -6.9484  -6.9481  -6.9374  -6.9369
    -6.9112  -6.9105  -6.8932  -6.8927  -6.8631  -6.8629  -6.8273  -6.8271
    -6.8208  -6.8206  -6.8166  -6.8162  -6.7757  -6.7752  -6.7664  -6.7663
    -6.7584  -6.7582  -6.7542  -6.7535  -6.7508  -6.7504  -6.7337  -6.7336
    -6.6764  -6.6763  -6.6665  -6.6663  -6.6466  -6.6461  -6.6422  -6.6420
    -6.5830  -6.5826  -6.5825  -6.5815  -6.5731  -6.5720  -6.5303  -6.5299
    -6.5293  -6.5289  -6.5232  -6.5228  -6.5181  -6.5177  -6.4947  -6.4947
    -6.4711  -6.4707  -6.4683  -6.4681  -6.4468  -6.4467  -6.4405  -6.4393
    -6.4303  -6.4298  -6.4275  -6.4269  -6.3842  -6.3837  -6.3836  -6.3833
    -6.3808  -6.3804  -6.3756  -6.3753  -6.3580  -6.3569  -6.3504  -6.3499
    -6.3288  -6.3277  -6.3153  -6.3141  -6.3043  -6.3036  -6.3004  -6.2993
    -6.2645  -6.2634  -6.2491  -6.2476  -6.2460  -6.2454  -6.2421  -6.2412
    -6.2408  -6.2404  -6.2294  -6.2281  -6.2059  -6.2052  -6.1980  -6.1973
    -6.1786  -6.1780  -6.1772  -6.1767  -6.1596  -6.1594  -6.1461  -6.1457
    -6.1433  -6.1429  -6.1340  -6.1332  -6.1290  -6.1286  -6.1184  -6.1177
    -6.0979  -6.0975  -6.0964  -6.0960  -6.0822  -6.0812  -6.0594  -6.0590
    -6.0551  -6.0457  -6.0455  -6.0270  -6.0267  -6.0240  -6.0239  -6.0100
    -6.0099  -6.0000  -5.9995  -5.9746  -5.9743  -5.9701  -5.9697  -5.9652
    -5.9651  -5.9479  -5.9471  -5.9443  -5.9441  -5.9417  -5.9414  -5.9289
    -5.9289  -5.9267  -5.9261  -5.9191  -5.9189  -5.9063  -5.9057  -5.8941
    -5.8933  -5.8837  -5.8835  -5.8803  -5.8798  -5.8787  -5.8784  -5.8612
    -5.8582  -5.8530  -5.8518  -5.8353  -5.8345  -5.8337  -5.8330  -5.8291
    -5.8285  -5.8275  -5.8264  -5.8095  -5.8078  -5.8075  -5.8066  -5.7938
    -5.7932  -5.7882  -5.7863  -5.7858  -5.7846  -5.7818  -5.7807  -5.7786
    -5.7776  -5.7729  -5.7718  -5.7673  -5.7659  -5.7655  -5.7649  -5.7524
    -5.7520  -5.7432  -5.7420  -5.7371  -5.7351  -5.7245  -5.7243  -5.7196
    -5.7161  -5.7155  -5.7146  -5.7059  -5.7052  -5.6900  -5.6894  -5.6888
    -5.6887  -5.6777  -5.6775  -5.6651  -5.6631  -5.6577  -5.6521  -5.6471
    -5.6451  -5.6288  -5.6283  -5.6090  -5.6066  -5.5989  -5.5967  -5.5904
    -5.5897  -5.5778  -5.5741  -5.5291  -5.5259  -5.1939  -5.1932  -4.9525
    -4.9508  -4.7853  -4.7831  -4.7416  -4.7401  -4.5667  -4.5664  -4.3961
    -3.8481  -3.8473  -3.7861  -3.7159  -3.7153  -3.0586  -3.0562  -2.9601
    -2.9597  -2.8889  -2.8539  -2.8499  -2.5601  -2.5555  -2.4166  -2.0274
    -2.0246  -1.9358  -1.8946  -1.8915  -1.8184  -1.8181  -1.1049  -1.1040
    -0.5154  -0.1149  -0.1119  -0.0508  -0.0497  -0.0124  -0.0104  -0.0059
    -0.0042   0.6938   0.7066   0.7589   0.7951   0.8024   0.9184   0.9291
     1.0843   1.0847   1.0983   1.1001   1.1517   1.1542   1.7405   1.7439
     1.8863   1.8876   2.2427   2.2435   2.2574   2.2577   2.4443   2.4449
     3.0634   3.0644   3.1178   3.1206   3.2879   3.2944   3.3937   3.3967
     3.8533   3.8545   3.8734   3.8792   3.8985   3.9005   4.1273   4.1354
     4.2553   4.2584   4.2984   4.3100   4.4032   4.4113   4.5634   4.6537
     4.6575   5.0049   5.0643   5.0742   5.1112   5.1272   5.2690   5.3453
     5.5150   5.5240   5.6602   5.7352   5.8253   5.8303   5.8949   5.9225
     5.9419   5.9497   5.9643   5.9725   6.1003   6.1163   6.2746   6.2754
     6.3026   6.3098   6.4617   6.5167   6.6058   6.6550   6.7239   6.7293
     6.8933   6.9363   6.9903   7.0222   7.0378   7.0817   7.1674   7.2702
     7.3100   7.3163   7.3385   7.4608   7.5555   7.6148   7.6501   7.6778
     7.7164   7.7691   7.7908   7.7985   7.8313   7.8427   7.9153   8.0189
     8.0550   8.1031   8.1169   8.1212   8.1848   8.1980

     occupation numbers 
     1.0000   1.0000   1.0000   1.0000   1.0000   1.0000   1.0000   1.0000
     1.0000   1.0000   1.0000   1.0000   1.0000   1.0000   1.0000   1.0000
     1.0000   1.0000   1.0000   1.0000   1.0000   1.0000   1.0000   1.0000
     1.0000   1.0000   1.0000   1.0000   1.0000   1.0000   1.0000   1.0000
     1.0000   1.0000   1.0000   1.0000   1.0000   1.0000   1.0000   1.0000
     1.0000   1.0000   1.0000   1.0000   1.0000   1.0000   1.0000   1.0000
     1.0000   1.0000   1.0000   1.0000   1.0000   1.0000   1.0000   1.0000
     1.0000   1.0000   1.0000   1.0000   1.0000   1.0000   1.0000   1.0000
     1.0000   1.0000   1.0000   1.0000   1.0000   1.0000   1.0000   1.0000
     1.0000   1.0000   1.0000   1.0000   1.0000   1.0000   1.0000   1.0000
     1.0000   1.0000   1.0000   1.0000   1.0000   1.0000   1.0000   1.0000
     1.0000   1.0000   1.0000   1.0000   1.0000   1.0000   1.0000   1.0000
     1.0000   1.0000   1.0000   1.0000   1.0000   1.0000   1.0000   1.0000
     1.0000   1.0000   1.0000   1.0000   1.0000   1.0000   1.0000   1.0000
     1.0000   1.0000   1.0000   1.0000   1.0000   1.0000   1.0000   1.0000
     1.0000   1.0000   1.0000   1.0000   1.0000   1.0000   1.0000   1.0000
     1.0000   1.0000   1.0000   1.0000   1.0000   1.0000   1.0000   1.0000
     1.0000   1.0000   1.0000   1.0000   1.0000   1.0000   1.0000   1.0000
     1.0000   1.0000   1.0000   1.0000   1.0000   1.0000   1.0000   1.0000
     1.0000   1.0000   1.0000   1.0000   1.0000   1.0000   1.0000   1.0000
     1.0000   1.0000   1.0000   1.0000   1.0000   1.0000   1.0000   1.0000
     1.0000   1.0000   1.0000   1.0000   1.0000   1.0000   1.0000   1.0000
     1.0000   1.0000   1.0000   1.0000   1.0000   1.0000   1.0000   1.0000
     1.0000   1.0000   1.0000   1.0000   1.0000   1.0000   1.0000   1.0000
     1.0000   1.0000   1.0000   1.0000   1.0000   1.0000   1.0000   1.0000
     1.0000   1.0000   1.0000   1.0000   1.0000   1.0000   1.0000   1.0000
     1.0000   1.0000   1.0000   1.0000   1.0000   1.0000   1.0000   1.0000
     1.0000   1.0000   1.0000   1.0000   1.0000   1.0000   1.0000   1.0000
     1.0000   1.0000   1.0000   1.0000   1.0000   1.0000   1.0000   1.0000
     1.0000   1.0000   1.0000   1.0000   1.0000   1.0000   1.0000   1.0000
     1.0000   1.0000   1.0000   1.0000   1.0000   1.0000   1.0000   1.0000
     1.0000   1.0000   1.0000   1.0000   1.0000   1.0000   1.0000   1.0000
[...]
     atom   40 type  1   force =     0.00000000    0.00000000    0.00000000
     atom   41 type  1   force =     0.00000000    0.00000000    0.00000000
     atom   42 type  1   force =     0.00000000    0.00000000    0.00000000
     atom   43 type  1   force =     0.00000000    0.00000000    0.00000000
     atom   44 type  1   force =     0.00000000    0.00000000    0.00000000
     atom   45 type  1   force =     0.00000000    0.00000000    0.00000000
     atom   46 type  1   force =     0.00000000    0.00000000    0.00000000
     atom   47 type  1   force =     0.00000000    0.00000000    0.00000000
     atom   48 type  1   force =     0.00000000    0.00000000    0.00000000
     atom   49 type  3   force =     0.00000000    0.00000000    0.00000000
     atom   50 type  2   force =     0.00000000    0.00000000    0.00000000
     atom   51 type  3   force =     0.00000000    0.00000000    0.00000000
     atom   52 type  3   force =     0.00000000    0.00000000    0.00000000
     atom   53 type  4   force =     0.00000000    0.00000000    0.00000000
     atom   54 type  4   force =     0.00000000    0.00000000    0.00000000
     atom   55 type  3   force =     0.00000000    0.00000000    0.00000000
     atom   56 type  3   force =     0.00000000    0.00000000    0.00000000
     atom   57 type  3   force =     0.00000000    0.00000000    0.00000000
     atom   58 type  4   force =     0.00000000    0.00000000    0.00000000
     atom   59 type  4   force =     0.00000000    0.00000000    0.00000000
     atom   60 type  4   force =     0.00000000    0.00000000    0.00000000
     atom   61 type  4   force =     0.00000000    0.00000000    0.00000000
     atom   62 type  4   force =     0.00000000    0.00000000    0.00000000
     The SCF correction term to forces
     atom    1 type  1   force =     0.00000000    0.00000000    0.00000000
     atom    2 type  1   force =     0.00000000    0.00000000   -0.00000000
     atom    3 type  1   force =    -0.00018122    0.00004163   -0.00002102
     atom    4 type  1   force =    -0.00025749   -0.00015650   -0.00001173
     atom    5 type  1   force =     0.00003390    0.00010298   -0.00010760
     atom    6 type  1   force =     0.00007414   -0.00008418   -0.00010118
     atom    7 type  1   force =     0.00000000   -0.00000000   -0.00000000
     atom    8 type  1   force =     0.00000000    0.00000000   -0.00000000
     atom    9 type  1   force =    -0.00025573   -0.00016001   -0.00000273
     atom   10 type  1   force =    -0.00018321    0.00003979   -0.00001245
     atom   11 type  1   force =     0.00001218   -0.00000151   -0.00011768
     atom   12 type  1   force =     0.00006894    0.00002010   -0.00002871
     atom   13 type  1   force =    -0.00000000   -0.00000000    0.00000000
     atom   14 type  1   force =    -0.00000000   -0.00000000   -0.00000000
     atom   15 type  1   force =     0.00020093    0.00019600   -0.00002438
     atom   16 type  1   force =     0.00029158   -0.00010183    0.00003118
     atom   17 type  1   force =    -0.00002940    0.00008491    0.00000879
     atom   18 type  1   force =    -0.00006942   -0.00012149    0.00005338
     atom   19 type  1   force =    -0.00000000   -0.00000000    0.00000000
     atom   20 type  1   force =    -0.00000000    0.00000000   -0.00000000
     atom   21 type  1   force =     0.00027552   -0.00008815   -0.00002484
     atom   22 type  1   force =     0.00021626    0.00021129    0.00002685
     atom   23 type  1   force =    -0.00004525   -0.00006240   -0.00002308
     atom   24 type  1   force =    -0.00006290    0.00003366    0.00008009
     atom   25 type  1   force =     0.00000000    0.00000000    0.00000000
     atom   26 type  1   force =     0.00000000   -0.00000000   -0.00000000
     atom   27 type  1   force =     0.00005739    0.00016841    0.00001137
     atom   28 type  1   force =     0.00000477   -0.00014074    0.00001057
     atom   29 type  1   force =    -0.00007976    0.00009222   -0.00003088
     atom   30 type  1   force =    -0.00011639   -0.00013554   -0.00013688
     atom   31 type  1   force =     0.00000000   -0.00000000    0.00000000
     atom   32 type  1   force =     0.00000000    0.00000000   -0.00000000
     atom   33 type  1   force =     0.00008345   -0.00009661    0.00003390
     atom   34 type  1   force =    -0.00000824    0.00011257   -0.00001117
     atom   35 type  1   force =    -0.00010317    0.00003635   -0.00014081
     atom   36 type  1   force =    -0.00008512   -0.00010134   -0.00003377
     atom   37 type  1   force =    -0.00000000   -0.00000000    0.00000000
     atom   38 type  1   force =    -0.00000000   -0.00000000   -0.00000000
     atom   39 type  1   force =    -0.00000002    0.00017932   -0.00004912
     atom   40 type  1   force =     0.00003830   -0.00016620   -0.00006299
     atom   41 type  1   force =     0.00008953    0.00016140    0.00007265
     atom   42 type  1   force =     0.00013954   -0.00011481    0.00007376
     atom   43 type  1   force =    -0.00000000   -0.00000000   -0.00000000
     atom   44 type  1   force =    -0.00000000    0.00000000   -0.00000000
     atom   45 type  1   force =    -0.00002105   -0.00000591   -0.00002562
     atom   46 type  1   force =     0.00005587    0.00001264   -0.00005075
     atom   47 type  1   force =     0.00010571    0.00002000    0.00002111
     atom   48 type  1   force =     0.00009750    0.00001244    0.00012630
     atom   49 type  3   force =    -0.00000259   -0.00000110   -0.00000255
     atom   50 type  2   force =     0.00000736    0.00000562   -0.00000796
     atom   51 type  3   force =     0.00000848   -0.00000470    0.00001493
     atom   52 type  3   force =    -0.00000047    0.00000182    0.00000547
     atom   53 type  4   force =    -0.00000146    0.00000031   -0.00000090
     atom   54 type  4   force =     0.00000298   -0.00000023   -0.00000011
     atom   55 type  3   force =     0.00001087    0.00000153    0.00000590
     atom   56 type  3   force =    -0.00000270    0.00000008    0.00000127
     atom   57 type  3   force =     0.00000660    0.00000348    0.00001551
     atom   58 type  4   force =     0.00000173   -0.00000189    0.00000027
     atom   59 type  4   force =     0.00000220    0.00000204   -0.00000053
     atom   60 type  4   force =     0.00000276    0.00000083   -0.00000268
     atom   61 type  4   force =    -0.00000132   -0.00000007   -0.00000053
     atom   62 type  4   force =     0.00000078    0.00000229    0.00000086

     DFT-D3 dispersion contribution to forces:
     atom    1 type  1   force =    -0.00063847   -0.00019012    0.00269160
     atom    2 type  1   force =    -0.00062406   -0.00016864    0.00276012
     atom    3 type  1   force =     0.00102664    0.00028039    0.00133684
     atom    4 type  1   force =     0.00106832    0.00032054    0.00118795
     atom    5 type  1   force =    -0.00013890    0.00042528   -0.00049055
     atom    6 type  1   force =     0.00010669   -0.00040438   -0.00068108
     atom    7 type  1   force =    -0.00065149   -0.00015614    0.00271020
     atom    8 type  1   force =    -0.00061898   -0.00019946    0.00273381
     atom    9 type  1   force =     0.00093752    0.00022863    0.00122039
     atom   10 type  1   force =     0.00103144    0.00025953    0.00135769
     atom   11 type  1   force =    -0.00004333    0.00012065   -0.00050240
     atom   12 type  1   force =     0.00005729   -0.00001469   -0.00112135
     atom   13 type  1   force =    -0.00117114   -0.00032232    0.00154565
     atom   14 type  1   force =    -0.00119417   -0.00029343    0.00157198
     atom   15 type  1   force =    -0.00070799   -0.00016728   -0.00060101
     atom   16 type  1   force =    -0.00071924   -0.00008992   -0.00059491
     atom   17 type  1   force =     0.00061689    0.00015677   -0.00299432
     atom   18 type  1   force =     0.00062356    0.00014077   -0.00294500
     atom   19 type  1   force =    -0.00118905   -0.00029628    0.00155927
     atom   20 type  1   force =    -0.00117800   -0.00032208    0.00156231
     atom   21 type  1   force =    -0.00064991   -0.00018008   -0.00049989
     atom   22 type  1   force =    -0.00079560   -0.00022004   -0.00060243
     atom   23 type  1   force =     0.00066237    0.00008087   -0.00295174
     atom   24 type  1   force =     0.00058079    0.00014964   -0.00300157
     atom   25 type  1   force =     0.00060470    0.00012465    0.00264643
     atom   26 type  1   force =     0.00059767    0.00015375    0.00270443
     atom   27 type  1   force =    -0.00046185   -0.00006468   -0.00090432
     atom   28 type  1   force =    -0.00046943   -0.00014771   -0.00098030
     atom   29 type  1   force =     0.00005578    0.00001726   -0.00305201
     atom   30 type  1   force =    -0.00036660   -0.00025818   -0.00261321
     atom   31 type  1   force =     0.00060158    0.00016582    0.00262242
     atom   32 type  1   force =     0.00061575    0.00013794    0.00269285
     atom   33 type  1   force =    -0.00045088   -0.00007534   -0.00094916
     atom   34 type  1   force =    -0.00051123   -0.00010802   -0.00096390
     atom   35 type  1   force =    -0.00034039    0.00010070   -0.00258435
     atom   36 type  1   force =    -0.00004750    0.00003311   -0.00305633
     atom   37 type  1   force =     0.00085015    0.00019300    0.00215363
     atom   38 type  1   force =     0.00086420    0.00019968    0.00218342
     atom   39 type  1   force =    -0.00097963   -0.00022152    0.00020737
     atom   40 type  1   force =    -0.00089831   -0.00029155    0.00020754
     atom   41 type  1   force =     0.00106197    0.00046713   -0.00103424
     atom   42 type  1   force =     0.00114124    0.00014195   -0.00110038
     atom   43 type  1   force =     0.00086084    0.00021802    0.00217030
     atom   44 type  1   force =     0.00085828    0.00018058    0.00216771
     atom   45 type  1   force =    -0.00093948   -0.00021750    0.00032801
     atom   46 type  1   force =    -0.00097938   -0.00024569    0.00007894
     atom   47 type  1   force =     0.00132437    0.00025749   -0.00057126
     atom   48 type  1   force =     0.00100251    0.00029272   -0.00141289
     atom   49 type  3   force =    -0.00006234    0.00018306   -0.00010245
     atom   50 type  2   force =    -0.00011419   -0.00003273   -0.00131309
     atom   51 type  3   force =    -0.00004662    0.00020164   -0.00017888
     atom   52 type  3   force =    -0.00008941    0.00001258   -0.00082431
     atom   53 type  4   force =    -0.00001270    0.00002706   -0.00012156
     atom   54 type  4   force =    -0.00005773   -0.00009854   -0.00155120
     atom   55 type  3   force =     0.00003618   -0.00006129    0.00023831
     atom   56 type  3   force =     0.00003530   -0.00027424   -0.00027709
     atom   57 type  3   force =     0.00002658   -0.00012249   -0.00023924
     atom   58 type  4   force =     0.00000501   -0.00002687   -0.00000347
     atom   59 type  4   force =    -0.00008206    0.00001202   -0.00145535
     atom   60 type  4   force =    -0.00002096    0.00001491   -0.00008261
     atom   61 type  4   force =    -0.00000373   -0.00003001   -0.00027407
     atom   62 type  4   force =     0.00000115    0.00000306   -0.00000725

     Total force =     0.034465     Total SCF correction =     0.001053

     DFT-D3 dispersion Force =     0.014556


     Computing stress (Cartesian axis) and pressure


     negative rho (up, down):  3.928E-03 0.000E+00
          total   stress  (Ry/bohr**3)                   (kbar)     P=      -13.53
  -0.00010009   0.00003728   0.00001564          -14.72        5.48        2.30
   0.00003728  -0.00017696   0.00000198            5.48      -26.03        0.29
   0.00001564   0.00000198   0.00000105            2.30        0.29        0.15

     kinetic stress (kbar)  11641.64     24.62      5.30
                               24.62  11554.50      1.05
                                5.30      1.05  11624.91

     local   stress (kbar)-837167.63   3461.67    745.16
                             3461.67-850501.59    278.48
                              745.16    278.48 844983.81

     nonloc. stress (kbar)  -1131.69     -3.55     -0.44
                               -3.55  -1114.20     -0.26
                               -0.44     -0.26  -1148.47

     hartree stress (kbar) 443507.81  -1526.92   -304.78
                            -1526.92 449381.01   -116.25
                             -304.78   -116.25-391045.76

     exc-cor stress (kbar)  -5689.80     -1.16     -0.10
                               -1.16  -5685.06     -0.05
                               -0.10     -0.05  -5691.99

     corecor stress (kbar)    -61.50      0.20     -0.08
                                0.20    -62.31     -0.02
                               -0.08     -0.02    -62.31

     ewald   stress (kbar) 388893.01  -1949.69   -443.03
                            -1949.69 396409.42   -162.74
                             -443.03   -162.74-458656.99

     hubbard stress (kbar)      0.00      0.00      0.00
                                0.00      0.00      0.00
                                0.00      0.00      0.00

     DFT-D   stress (kbar)     -6.57      0.32      0.28
                                0.32     -7.79      0.07
                                0.28      0.07     -3.06

     XDM     stress (kbar)      0.00      0.00      0.00
                                0.00      0.00      0.00
                                0.00      0.00      0.00

     dft-nl  stress (kbar)      0.00      0.00      0.00
                                0.00      0.00      0.00
                                0.00      0.00      0.00

     TS-vdW  stress (kbar)      0.00      0.00      0.00
                                0.00      0.00      0.00
                                0.00      0.00      0.00

     MDB     stress (kbar)      0.00      0.00      0.00
                                0.00      0.00      0.00
                                0.00      0.00      0.00

     3D-RISM stress (kbar)      0.00      0.00      0.00
                                0.00      0.00      0.00
                                0.00      0.00      0.00

     Energy error            =      1.6E-03 Ry
     Gradient error          =      1.4E-02 Ry/Bohr

     number of scf cycles    =  34
     number of bfgs steps    =  33

     energy             old  =  -22293.5959159437 Ry
     energy             new  =  -22293.5975639513 Ry

     CASE: energy            _new < energy            _old

     new trust radius        =       0.0672415535 bohr
     new conv_thr            =       0.0000001431 Ry


ATOMIC_POSITIONS (angstrom)
Zn              -1.0735560000        1.0841420000        1.1977640000    0   0   0
Zn              -2.3094850000        6.1646920000        1.1977640000    0   0   0
Zn              -4.9419209776        0.1557326227        3.8573716755
Zn              -6.1883884896        5.2401923378        3.8115500622
Zn              -9.0867837442       -0.8695862490        5.8034249012
Zn             -10.3493528611        4.2429088158        5.8061348794
Zn              -1.6915200000        3.6244170000        1.1977640000    0   0   0
Zn              -2.9274500000        8.7049670000        1.1977640000    0   0   0
Zn              -5.5796451008        2.6872213392        3.8216189067
Zn              -6.7954615507        7.7810843968        3.8549486813
Zn              -9.7201584878        1.6936159195        5.7594508010
Zn             -10.9647938402        6.7662012850        5.8167478411
Zn               4.4565960000        1.0841420000        1.1977640000    0   0   0
Zn               3.2206660000        6.1646920000        1.1977640000    0   0   0
Zn               0.3868615166        0.1094639294        3.4343008381
Zn              -0.8479489141        5.1991712904        3.4271121379
Zn              -3.0175555406       -0.7178392095        5.5956145055
Zn              -4.3130327122        4.3500766321        5.5933746506
Zn               3.8386310000        3.6244170000        1.1977640000    0   0   0
Zn               2.6027020000        8.7049670000        1.1977640000    0   0   0
Zn              -0.2292135566        2.6524194987        3.4472703732
Zn              -1.4738432542        7.7265449971        3.4266065705
Zn              -3.6604997584        1.8128079523        5.5979575165
Zn              -4.9046323736        6.8970227502        5.5934087865
Zn               1.6915200000        0.4114910000        0.8555450000    0   0   0
Zn               0.4555910000        5.4920410000        0.8555450000    0   0   0
Zn              -2.3670598207       -0.5736677794        2.9042249769
Zn              -3.5968731048        4.4999640520        2.9228041283
Zn              -6.6407129427       -1.6100861895        5.0725670815
Zn              -7.8723528386        3.4850199830        5.1122159094
Zn               1.0735560000        2.9517660000        0.8555450000    0   0   0
Zn              -0.1623740000        8.0323160000        0.8555450000    0   0   0
Zn              -2.9811052560        1.9680835754        2.9132564877
Zn              -4.2202070339        7.0436424022        2.9157000111
Zn              -7.2560781890        0.9403432092        5.1032234892
Zn              -8.4988858000        6.0324737695        5.0813374024
Zn               7.2216720000        0.4114910000        0.8555450000    0   0   0
Zn               5.9857420000        5.4920410000        0.8555450000    0   0   0
Zn               3.0899308850       -0.5865706871        2.9448585726
Zn               1.8628069680        4.4890500988        2.9465243264
Zn              -0.5270625278       -1.4638376594        5.5625284662
Zn              -1.7957314690        3.6245033949        5.5366029181
Zn               6.6037070000        2.9517660000        0.8555450000    0   0   0
Zn               5.3677780000        8.0323160000        0.8555450000    0   0   0
Zn               2.4760020500        1.9540719488        2.9629959197
Zn               1.2332249674        7.0324071458        2.9223633516
Zn              -1.1582461376        1.0879926794        5.6162607020
Zn              -2.4169364503        6.1509484884        5.4992047547
C               -9.9662624089        2.5187772665       11.2307318142
N               -9.9064146037        1.5771617741        8.9922770851
C               -9.7862221980        2.3722503806       12.6047888183
C               -9.7704764875        1.4270711999       10.3749460263
H              -10.2048747931        3.4923133451       10.7962145821
H               -9.7504818104        2.5278835084        8.6578647717
C               -9.4446755058        1.1342863717       13.1552823675
C               -9.4369483149        0.1802863954       10.9209103431
C               -9.2611114836        0.0446972799       12.2968601528
H               -9.8905782748        3.2536053427       13.2382058842
H               -9.3741445262        0.8873793098        8.4609409668
H               -9.3163974959        1.0251025200       14.2329921465
H               -9.2681674089       -0.6658055988       10.2473420122
H               -8.9503757232       -0.9233037054       12.6901722248



     Writing config-only to output data dir ./tmp/Zn101_3layer_aniline_relax.save/ :
     XML data file
     NEW-OLD atomic charge density approx. for the potential

     negative rho (up, down):  3.912E-03 0.000E+00

     total cpu time spent up to now is    86955.3 secs

     Self-consistent Calculation

     iteration #  1     ecut=    40.00 Ry     beta= 0.40
     Davidson diagonalization with overlap

---- Real-time Memory Report at c_bands before calling an iterative solver
           466 MiB given to the printing process from OS
             0 MiB allocation reported by mallinfo(arena+hblkhd)
         36528 MiB available memory on the node where the printing process lives
------------------
