--------------------------------------------------------------------------
WARNING: There was an error initializing an OpenFabrics device.

  Local host:   ga01
  Local device: mlx5_0
--------------------------------------------------------------------------

     Program PWSCF v.7.3.1 starts on  9Apr2025 at 12:19:15 

     This program is part of the open-source Quantum ESPRESSO suite
     for quantum simulation of materials; please cite
         "P. Giannozzi et al., J. Phys.:Condens. Matter 21 395502 (2009);
         "P. Giannozzi et al., J. Phys.:Condens. Matter 29 465901 (2017);
         "P. Giannozzi et al., J. Chem. Phys. 152 154105 (2020);
          URL http://www.quantum-espresso.org", 
     in publications or presentations arising from this work. More details at
     http://www.quantum-espresso.org/quote

     Parallel version (MPI), running on    28 processors

     MPI processes distributed on     1 nodes
     185244 MiB available memory on the printing compute node when the environment starts

     Waiting for input...
     Reading input from standard input
Warning: card &CELL ignored
Warning: card   CELL_DOFREE = 'ALL' ignored
Warning: card / ignored

     Current dimensions of program PWSCF are:
     Max number of different atomic species (ntypx) = 10
     Max number of k-points (npk) =  40000
     Max angular momentum in pseudopotentials (lmaxx) =  4
     file C.pbe-n-kjpaw_psl.1.0.0.UPF: wavefunction(s)  2S 2P renormalized

     R & G space division:  proc/nbgrp/npool/nimage =      28
     Subspace diagonalization in iterative solution of the eigenvalue problem:
     one sub-group per band group will be used
     custom distributed-memory algorithm (size of sub-group:  5*  5 procs)


     Parallelization info
     --------------------
     sticks:   dense  smooth     PW     G-vecs:    dense   smooth      PW
     Min         269     153     42                42893    18525    2676
     Max         271     154     43                42896    18536    2683
     Sum        7555    4303   1189              1201061   518755   75035

     Using Slab Decomposition



     bravais-lattice index     =            0
     lattice parameter (alat)  =      19.7617  a.u.
     unit-cell volume          =   15176.5939 (a.u.)^3
     number of atoms/cell      =           62
     number of atomic types    =            4
     number of electrons       =       996.00
     number of Kohn-Sham states=          598
     kinetic-energy cutoff     =      40.0000  Ry
     charge density cutoff     =     280.0000  Ry
     scf convergence threshold =      1.0E-06
     mixing beta               =       0.4000
     number of iterations used =            8  plain     mixing
     energy convergence thresh.=      5.0E-05
     force convergence thresh. =      1.0E-03
     Exchange-correlation= PBE
                           (   1   4   3   4   0   0   0)
     nstep                     =          300


     celldm(1)=  19.761696  celldm(2)=   0.000000  celldm(3)=   0.000000
     celldm(4)=   0.000000  celldm(5)=   0.000000  celldm(6)=   0.000000

     crystal axes: (cart. coord. in units of alat)
               a(1) = (   1.000000   0.000000   0.000000 )  
               a(2) = (  -0.500000   0.866025   0.000000 )  
               a(3) = (   0.000000   0.000000   2.270759 )  

     reciprocal axes: (cart. coord. in units 2 pi/alat)
               b(1) = (  1.000000  0.577350 -0.000000 )  
               b(2) = (  0.000000  1.154701  0.000000 )  
               b(3) = (  0.000000 -0.000000  0.440381 )  


     PseudoPot. # 1 for Zn read from file:
     /home/yongsang/Research/PSID_server_room/qe/[00]QE/qepseudo/SSSP_1.3.0_PBE_efficiency/Zn_pbe_v1.uspp.F.UPF
     MD5 check sum: df62231357ef9e81f77b2b3087fa5675
     Pseudo is Ultrasoft, Zval = 20.0
     Generated by new atomic code, or converted to UPF format
     Using radial grid of  943 points,  6 beta functions with: 
                l(1) =   0
                l(2) =   0
                l(3) =   1
                l(4) =   1
                l(5) =   2
                l(6) =   2
     Q(r) pseudized with  8 coefficients,  rinner =    1.100   1.100   1.100
                                                       1.100   1.100

     PseudoPot. # 2 for N  read from file:
     /home/yongsang/Research/PSID_server_room/qe/[00]QE/qepseudo/SSSP_1.3.0_PBE_efficiency/N.pbe-n-radius_5.UPF
     MD5 check sum: 16739722b17309cd8fe442a2ace49922
     Pseudo is Ultrasoft + core correction, Zval =  5.0
     Generated using "atomic" code by A. Dal Corso  v.5.1
     Using radial grid of 1085 points,  4 beta functions with: 
                l(1) =   0
                l(2) =   0
                l(3) =   1
                l(4) =   1
     Q(r) pseudized with 0 coefficients 


     PseudoPot. # 3 for C  read from file:
     /home/yongsang/Research/PSID_server_room/qe/[00]QE/qepseudo/SSSP_1.3.0_PBE_efficiency/C.pbe-n-kjpaw_psl.1.0.0.UPF
     MD5 check sum: 5d2aebdfa2cae82b50a7e79e9516da0f
     Pseudo is Projector augmented-wave + core cor, Zval =  4.0
     Generated using "atomic" code by A. Dal Corso  v.5.1
     Shape of augmentation charge: PSQ
     Using radial grid of 1073 points,  4 beta functions with: 
                l(1) =   0
                l(2) =   0
                l(3) =   1
                l(4) =   1
     Q(r) pseudized with 0 coefficients 


     PseudoPot. # 4 for H  read from file:
     /home/yongsang/Research/PSID_server_room/qe/[00]QE/qepseudo/SSSP_1.3.0_PBE_efficiency/H.pbe-rrkjus_psl.1.0.0.UPF
     MD5 check sum: f52b6d4d1c606e5624b1dc7b2218f220
     Pseudo is Ultrasoft, Zval =  1.0
     Generated using "atomic" code by A. Dal Corso  v.5.1
     Using radial grid of  929 points,  2 beta functions with: 
                l(1) =   0
                l(2) =   0
     Q(r) pseudized with 0 coefficients 


     atomic species   valence    mass     pseudopotential
     Zn               20.00    65.38000     Zn( 1.00)
     N                 5.00    14.00674     N ( 1.00)
     C                 4.00    12.01070     C ( 1.00)
     H                 1.00     1.00794     H ( 1.00)

     No symmetry found


                                    s                        frac. trans.

      isym =  1     identity                                     

 cryst.   s( 1) = (     1          0          0      )
                  (     0          1          0      )
                  (     0          0          1      )

 cart.    s( 1) = (  1.0000000  0.0000000  0.0000000 )
                  (  0.0000000  1.0000000  0.0000000 )
                  (  0.0000000  0.0000000  1.0000000 )


   Cartesian axes

     site n.     atom                  positions (alat units)
         1        Zn     tau(   1) = (   0.0000000   0.1443375   0.1164998  )
         2        Zn     tau(   2) = (   0.5000000   0.1443375   0.1164998  )
         3        Zn     tau(   3) = (   0.0000648   0.1442711   0.5845353  )
         4        Zn     tau(   4) = (   0.4998833   0.1439192   0.5847746  )
         5        Zn     tau(   5) = (  -0.1250000   0.3608439   0.1164998  )
         6        Zn     tau(   6) = (   0.3750000   0.3608439   0.1164998  )
         7        Zn     tau(   7) = (  -0.1245029   0.3607657   0.5848581  )
         8        Zn     tau(   8) = (   0.3744433   0.3608884   0.5850397  )
         9        Zn     tau(   9) = (  -0.2500000   0.5773502   0.1164998  )
        10        Zn     tau(  10) = (   0.2500000   0.5773502   0.1164998  )
        11        Zn     tau(  11) = (  -0.2497143   0.5776009   0.5848072  )
        12        Zn     tau(  12) = (   0.2494813   0.5773702   0.5786441  )
        13        Zn     tau(  13) = (  -0.3750000   0.7938567   0.1164998  )
        14        Zn     tau(  14) = (   0.1250000   0.7938567   0.1164998  )
        15        Zn     tau(  15) = (  -0.3751234   0.7941323   0.5845764  )
        16        Zn     tau(  16) = (   0.1251691   0.7936240   0.5849256  )
        17        Zn     tau(  17) = (   0.2500000   0.1443375   0.1164998  )
        18        Zn     tau(  18) = (   0.7500000   0.1443375   0.1164998  )
        19        Zn     tau(  19) = (   0.2501024   0.1444450   0.5844275  )
        20        Zn     tau(  20) = (   0.7499213   0.1438500   0.5848789  )
        21        Zn     tau(  21) = (   0.1250000   0.3608439   0.1164998  )
        22        Zn     tau(  22) = (   0.6250000   0.3608439   0.1164998  )
        23        Zn     tau(  23) = (   0.1255313   0.3611473   0.5866763  )
        24        Zn     tau(  24) = (   0.6248554   0.3604735   0.5850465  )
        25        Zn     tau(  25) = (   0.0000000   0.5773502   0.1164998  )
        26        Zn     tau(  26) = (   0.5000000   0.5773502   0.1164998  )
        27        Zn     tau(  27) = (   0.0008218   0.5777464   0.5871221  )
        28        Zn     tau(  28) = (   0.4990442   0.5773816   0.5878195  )
        29        Zn     tau(  29) = (  -0.1250000   0.7938567   0.1164998  )
        30        Zn     tau(  30) = (   0.3750000   0.7938567   0.1164998  )
        31        Zn     tau(  31) = (  -0.1245649   0.7940636   0.5845167  )
        32        Zn     tau(  32) = (   0.3742158   0.7935920   0.5872307  )
        33        Zn     tau(  33) = (   0.1251704   0.0724077   0.3527740  )
        34        Zn     tau(  34) = (   0.6249446   0.0714156   0.3532542  )
        35        Zn     tau(  35) = (   0.0004351   0.2885179   0.3522384  )
        36        Zn     tau(  36) = (   0.4993820   0.2883166   0.3530983  )
        37        Zn     tau(  37) = (  -0.1244892   0.5054178   0.3520218  )
        38        Zn     tau(  38) = (   0.3743793   0.5050548   0.3528204  )
        39        Zn     tau(  39) = (  -0.2496390   0.7221728   0.3527453  )
        40        Zn     tau(  40) = (   0.2495257   0.7218578   0.3528005  )
        41        Zn     tau(  41) = (   0.3747985   0.0719640   0.3525790  )
        42        Zn     tau(  42) = (   0.8750031   0.0720599   0.3525997  )
        43        Zn     tau(  43) = (   0.2497570   0.2884317   0.3529761  )
        44        Zn     tau(  44) = (   0.7503566   0.2882915   0.3527311  )
        45        Zn     tau(  45) = (   0.1249352   0.5052026   0.3534764  )
        46        Zn     tau(  46) = (   0.6251000   0.5053139   0.3522102  )
        47        Zn     tau(  47) = (   0.0001965   0.7218857   0.3529759  )
        48        Zn     tau(  48) = (   0.4997973   0.7221511   0.3527471  )
        49        C      tau(  49) = (   0.2590762   0.5859082   1.0489213  )
        50        C      tau(  50) = (   0.2124459   0.6930687   1.2505712  )
        51        C      tau(  51) = (   0.2111122   0.6918240   1.1171840  )
        52        C      tau(  52) = (   0.3090204   0.4840867   1.2525831  )
        53        C      tau(  53) = (   0.3083822   0.4818518   1.1191823  )
        54        C      tau(  54) = (   0.2613251   0.5894661   1.3194823  )
        55        N      tau(  55) = (   0.2583567   0.5842332   0.9162195  )
        56        H      tau(  56) = (   0.2918515   0.5096185   0.8647600  )
        57        H      tau(  57) = (   0.1748117   0.7763166   1.3013613  )
        58        H      tau(  58) = (   0.3473091   0.4020710   1.3048856  )
        59        H      tau(  59) = (   0.3456031   0.3988828   1.0679279  )
        60        H      tau(  60) = (   0.2620017   0.5907579   1.4237363  )
        61        H      tau(  61) = (   0.1729021   0.7733452   1.0642813  )
        62        H      tau(  62) = (   0.2236891   0.6573811   0.8632542  )

     --------------------------------------------
     DFT-D3 Dispersion Correction (3-body terms):
     --------------------------------------------
       Reference C6 values for interpolation: 

         atom   Coordination number   C6
         H          0.912             6.05
         H          0.000            15.18
         C          0.000            98.23
         C          0.987            86.49
         C          1.998            58.72
         C          2.999            51.56
         C          3.984            36.41
         N          0.000            50.54
         N          0.994            44.25
         N          2.014            39.35
         N          2.990            31.16
         Zn         0.000           681.04
         Zn         1.942           306.91

       Values used:

         atom   Coordination number  R0_AB[au]  C6      C8
         Zn         6.798            3.053    306.91  23930.67
         Zn         6.779            3.053    306.91  23930.67
         Zn         6.948            3.053    306.91  23930.67
         Zn         6.962            3.053    306.91  23930.67
         Zn         6.800            3.053    306.91  23930.67
         Zn         6.782            3.053    306.91  23930.67
         Zn         6.910            3.053    306.91  23930.67
         Zn         6.957            3.053    306.91  23930.67
         Zn         6.799            3.053    306.91  23930.67
         Zn         6.780            3.053    306.91  23930.67
         Zn         6.900            3.053    306.91  23930.67
         Zn         7.231            3.053    306.91  23930.67
         Zn         6.787            3.053    306.91  23930.67
         Zn         6.791            3.053    306.91  23930.67
         Zn         6.942            3.053    306.91  23930.67
         Zn         6.994            3.053    306.91  23930.67
         Zn         6.793            3.053    306.91  23930.67
         Zn         6.784            3.053    306.91  23930.67
         Zn         6.976            3.053    306.91  23930.67
         Zn         6.950            3.053    306.91  23930.67
         Zn         6.787            3.053    306.91  23930.67
         Zn         6.781            3.053    306.91  23930.67
         Zn         6.899            3.053    306.91  23930.67
         Zn         6.903            3.053    306.91  23930.67
         Zn         6.790            3.053    306.91  23930.67
         Zn         6.786            3.053    306.91  23930.67
         Zn         6.876            3.053    306.91  23930.67
         Zn         6.804            3.053    306.91  23930.67
         Zn         6.794            3.053    306.91  23930.67
         Zn         6.791            3.053    306.91  23930.67
         Zn         6.971            3.053    306.91  23930.67
         Zn         6.865            3.053    306.91  23930.67
         Zn         8.581            3.053    306.91  23930.67
         Zn         8.563            3.053    306.91  23930.67
         Zn         8.541            3.053    306.91  23930.67
         Zn         8.530            3.053    306.91  23930.67
         Zn         8.513            3.053    306.91  23930.67
         Zn         8.584            3.053    306.91  23930.67
         Zn         8.557            3.053    306.91  23930.67
         Zn         8.621            3.053    306.91  23930.67
         Zn         8.585            3.053    306.91  23930.67
         Zn         8.535            3.053    306.91  23930.67
         Zn         8.560            3.053    306.91  23930.67
         Zn         8.526            3.053    306.91  23930.67
         Zn         8.601            3.053    306.91  23930.67
         Zn         8.475            3.053    306.91  23930.67
         Zn         8.558            3.053    306.91  23930.67
         Zn         8.479            3.053    306.91  23930.67
         C          3.135            2.750     50.65   1464.80
         C          3.128            2.750     50.70   1466.27
         C          3.163            2.750     50.43   1458.39
         C          3.128            2.750     50.70   1466.29
         C          3.163            2.750     50.42   1458.35
         C          3.123            2.750     50.74   1467.37
         N          3.086            2.478     31.24    689.24
         H          1.009            2.062      6.17     74.63
         H          1.002            2.062      6.18     74.69
         H          1.002            2.062      6.18     74.69
         H          1.003            2.062      6.18     74.68
         H          1.002            2.062      6.18     74.69
         H          1.003            2.062      6.18     74.68
         H          1.009            2.062      6.17     74.63

         Molecular C6 ( Ry / a.u.^6 ) =    819971.50


   Crystallographic axes

     site n.     atom                  positions (cryst. coord.)
         1        Zn     tau(   1) = (  0.0833333  0.1666666  0.0513044  )
         2        Zn     tau(   2) = (  0.5833333  0.1666666  0.0513044  )
         3        Zn     tau(   3) = (  0.0833597  0.1665899  0.2574185  )
         4        Zn     tau(   4) = (  0.5829750  0.1661836  0.2575239  )
         5        Zn     tau(   5) = (  0.0833333  0.4166666  0.0513044  )
         6        Zn     tau(   6) = (  0.5833333  0.4166666  0.0513044  )
         7        Zn     tau(   7) = (  0.0837853  0.4165763  0.2575607  )
         8        Zn     tau(   8) = (  0.5828023  0.4167180  0.2576406  )
         9        Zn     tau(   9) = (  0.0833333  0.6666666  0.0513044  )
        10        Zn     tau(  10) = (  0.5833333  0.6666666  0.0513044  )
        11        Zn     tau(  11) = (  0.0837637  0.6669561  0.2575382  )
        12        Zn     tau(  12) = (  0.5828262  0.6666897  0.2548241  )
        13        Zn     tau(  13) = (  0.0833333  0.9166667  0.0513044  )
        14        Zn     tau(  14) = (  0.5833334  0.9166667  0.0513044  )
        15        Zn     tau(  15) = (  0.0833691  0.9169850  0.2574366  )
        16        Zn     tau(  16) = (  0.5833681  0.9163981  0.2575904  )
        17        Zn     tau(  17) = (  0.3333333  0.1666666  0.0513044  )
        18        Zn     tau(  18) = (  0.8333334  0.1666666  0.0513044  )
        19        Zn     tau(  19) = (  0.3334978  0.1667907  0.2573710  )
        20        Zn     tau(  20) = (  0.8329731  0.1661037  0.2575698  )
        21        Zn     tau(  21) = (  0.3333333  0.4166666  0.0513044  )
        22        Zn     tau(  22) = (  0.8333333  0.4166666  0.0513044  )
        23        Zn     tau(  23) = (  0.3340397  0.4170170  0.2583613  )
        24        Zn     tau(  24) = (  0.8329748  0.4162389  0.2576436  )
        25        Zn     tau(  25) = (  0.3333333  0.6666666  0.0513044  )
        26        Zn     tau(  26) = (  0.8333333  0.6666666  0.0513044  )
        27        Zn     tau(  27) = (  0.3343838  0.6671241  0.2585577  )
        28        Zn     tau(  28) = (  0.8323956  0.6667029  0.2588648  )
        29        Zn     tau(  29) = (  0.3333334  0.9166667  0.0513044  )
        30        Zn     tau(  30) = (  0.8333334  0.9166667  0.0513044  )
        31        Zn     tau(  31) = (  0.3338879  0.9169057  0.2574103  )
        32        Zn     tau(  32) = (  0.8323963  0.9163612  0.2586055  )
        33        Zn     tau(  33) = (  0.1669750  0.0836092  0.1553551  )
        34        Zn     tau(  34) = (  0.6661764  0.0824636  0.1555666  )
        35        Zn     tau(  35) = (  0.1670110  0.3331518  0.1551193  )
        36        Zn     tau(  36) = (  0.6658416  0.3329193  0.1554979  )
        37        Zn     tau(  37) = (  0.1673139  0.5836062  0.1550238  )
        38        Zn     tau(  38) = (  0.6659729  0.5831871  0.1553755  )
        39        Zn     tau(  39) = (  0.1673077  0.8338934  0.1553425  )
        40        Zn     tau(  40) = (  0.6662905  0.8335296  0.1553668  )
        41        Zn     tau(  41) = (  0.4163470  0.0830969  0.1552693  )
        42        Zn     tau(  42) = (  0.9166069  0.0832076  0.1552783  )
        43        Zn     tau(  43) = (  0.4162831  0.3330522  0.1554441  )
        44        Zn     tau(  44) = (  0.9168017  0.3328904  0.1553362  )
        45        Zn     tau(  45) = (  0.4166141  0.5833577  0.1556644  )
        46        Zn     tau(  46) = (  0.9168431  0.5834862  0.1551068  )
        47        Zn     tau(  47) = (  0.4169774  0.8335618  0.1554440  )
        48        Zn     tau(  48) = (  0.9167315  0.8338683  0.1553433  )
        49        C      tau(  49) = (  0.5973505  0.6765485  0.4619255  )
        50        C      tau(  50) = (  0.6125893  0.8002868  0.5507283  )
        51        C      tau(  51) = (  0.6105369  0.7988495  0.4919871  )
        52        C      tau(  52) = (  0.5885080  0.5589751  0.5516143  )
        53        C      tau(  53) = (  0.5865794  0.5563946  0.4928671  )
        54        C      tau(  54) = (  0.6016536  0.6806569  0.5810755  )
        55        N      tau(  55) = (  0.5956639  0.6746144  0.4034860  )
        56        H      tau(  56) = (  0.5860799  0.5884567  0.3808243  )
        57        H      tau(  57) = (  0.6230183  0.8964132  0.5730953  )
        58        H      tau(  58) = (  0.5794449  0.4642716  0.5746474  )
        59        H      tau(  59) = (  0.5758983  0.4605902  0.4702956  )
        60        H      tau(  60) = (  0.6030759  0.6821484  0.6269870  )
        61        H      tau(  61) = (  0.6193932  0.8929821  0.4686897  )
        62        H      tau(  62) = (  0.6032282  0.7590783  0.3801611  )

     number of k points=     4  Marzari-Vanderbilt smearing, width (Ry)=  0.0200
                       cart. coord. in units 2pi/alat
        k(    1) = (   0.0000000   0.0000000   0.0000000), wk =   0.5000000
        k(    2) = (   0.0000000  -0.5773503   0.0000000), wk =   0.5000000
        k(    3) = (  -0.5000000  -0.2886751   0.0000000), wk =   0.5000000
        k(    4) = (  -0.5000000  -0.8660254   0.0000000), wk =   0.5000000

                       cryst. coord.
        k(    1) = (   0.0000000   0.0000000   0.0000000), wk =   0.5000000
        k(    2) = (   0.0000000  -0.5000000   0.0000000), wk =   0.5000000
        k(    3) = (  -0.5000000   0.0000000   0.0000000), wk =   0.5000000
        k(    4) = (  -0.5000000  -0.5000000   0.0000000), wk =   0.5000000

     Dense  grid:  1201061 G-vectors     FFT dimensions: ( 108, 108, 240)

     Smooth grid:   518755 G-vectors     FFT dimensions: (  80,  80, 192)

     Dynamical RAM for                 wfc:      21.12 MB

     Dynamical RAM for     wfc (w. buffer):     105.62 MB

     Dynamical RAM for           str. fact:       2.62 MB

     Dynamical RAM for           local pot:       0.00 MB

     Dynamical RAM for          nlocal pot:      32.99 MB

     Dynamical RAM for                qrad:       5.37 MB

     Dynamical RAM for          rho,v,vnew:       4.37 MB

     Dynamical RAM for               rhoin:       1.46 MB

     Dynamical RAM for            rho*nmix:      10.47 MB

     Dynamical RAM for           G-vectors:       2.60 MB

     Dynamical RAM for          h,s,v(r/c):       2.61 MB

     Dynamical RAM for          <psi|beta>:       8.52 MB

     Dynamical RAM for                 psi:      42.25 MB

     Dynamical RAM for                hpsi:      42.25 MB

     Dynamical RAM for                spsi:      42.25 MB

     Dynamical RAM for      wfcinit/wfcrot:      56.50 MB

     Dynamical RAM for           addusdens:     153.16 MB

     Dynamical RAM for          addusforce:     215.20 MB

     Dynamical RAM for         addusstress:     131.56 MB

     Estimated static dynamical RAM per process >     162.30 MB

     Estimated max dynamical RAM per process >     387.97 MB

     Estimated total dynamical RAM >      10.61 GB

     Initial potential from superposition of free atoms

     starting charge     995.9929, renormalised to     996.0000

     negative rho (up, down):  1.892E-03 0.000E+00
     Starting wfcs are  659 randomized atomic wfcs
[ga01:3714773] 27 more processes have sent help message help-mpi-btl-openib.txt / error in device init
[ga01:3714773] Set MCA parameter "orte_base_help_aggregate" to 0 to see all help / error messages
     Checking if some PAW data can be deallocated... 
       PAW data deallocated on   25 nodes for type:  3

     total cpu time spent up to now is       23.0 secs

     Self-consistent Calculation

     iteration #  1     ecut=    40.00 Ry     beta= 0.40
     Davidson diagonalization with overlap

---- Real-time Memory Report at c_bands before calling an iterative solver
           402 MiB given to the printing process from OS
             0 MiB allocation reported by mallinfo(arena+hblkhd)
        179996 MiB available memory on the node where the printing process lives
------------------
     ethr =  1.00E-02,  avg # of iterations =  8.2

     negative rho (up, down):  2.337E-03 0.000E+00

     total cpu time spent up to now is      111.6 secs

     total energy              =  -22288.00305840 Ry
     estimated scf accuracy    <      12.32262404 Ry

     iteration #  2     ecut=    40.00 Ry     beta= 0.40
     Davidson diagonalization with overlap

---- Real-time Memory Report at c_bands before calling an iterative solver
           517 MiB given to the printing process from OS
             0 MiB allocation reported by mallinfo(arena+hblkhd)
        178826 MiB available memory on the node where the printing process lives
------------------
     ethr =  1.24E-03,  avg # of iterations = 10.5

     negative rho (up, down):  3.527E-03 0.000E+00

     total cpu time spent up to now is      203.6 secs

     total energy              =  -22274.24949862 Ry
     estimated scf accuracy    <     314.32739364 Ry

     iteration #  3     ecut=    40.00 Ry     beta= 0.40
     Davidson diagonalization with overlap

---- Real-time Memory Report at c_bands before calling an iterative solver
           535 MiB given to the printing process from OS
             0 MiB allocation reported by mallinfo(arena+hblkhd)
        178799 MiB available memory on the node where the printing process lives
------------------
     ethr =  1.24E-03,  avg # of iterations =  9.5

     negative rho (up, down):  3.420E-03 0.000E+00

     total cpu time spent up to now is      316.7 secs

     total energy              =  -22292.87625517 Ry
     estimated scf accuracy    <      12.11384625 Ry

     iteration #  4     ecut=    40.00 Ry     beta= 0.40
     Davidson diagonalization with overlap

---- Real-time Memory Report at c_bands before calling an iterative solver
           536 MiB given to the printing process from OS
             0 MiB allocation reported by mallinfo(arena+hblkhd)
        178775 MiB available memory on the node where the printing process lives
------------------
     ethr =  1.22E-03,  avg # of iterations =  3.0

     negative rho (up, down):  3.339E-03 0.000E+00

     total cpu time spent up to now is      386.3 secs

     total energy              =  -22293.71222739 Ry
     estimated scf accuracy    <       5.69131932 Ry

     iteration #  5     ecut=    40.00 Ry     beta= 0.40
     Davidson diagonalization with overlap

---- Real-time Memory Report at c_bands before calling an iterative solver
           537 MiB given to the printing process from OS
             0 MiB allocation reported by mallinfo(arena+hblkhd)
        178753 MiB available memory on the node where the printing process lives
------------------
     ethr =  5.71E-04,  avg # of iterations =  2.0

     negative rho (up, down):  3.370E-03 0.000E+00

     total cpu time spent up to now is      452.6 secs

     total energy              =  -22294.02437853 Ry
     estimated scf accuracy    <       0.41883101 Ry

     iteration #  6     ecut=    40.00 Ry     beta= 0.40
     Davidson diagonalization with overlap

---- Real-time Memory Report at c_bands before calling an iterative solver
           538 MiB given to the printing process from OS
             0 MiB allocation reported by mallinfo(arena+hblkhd)
        178729 MiB available memory on the node where the printing process lives
------------------
     ethr =  4.21E-05,  avg # of iterations = 12.8

     negative rho (up, down):  3.493E-03 0.000E+00

     total cpu time spent up to now is      536.0 secs

     total energy              =  -22294.03554729 Ry
     estimated scf accuracy    <       0.16408066 Ry

     iteration #  7     ecut=    40.00 Ry     beta= 0.40
     Davidson diagonalization with overlap

---- Real-time Memory Report at c_bands before calling an iterative solver
           543 MiB given to the printing process from OS
             0 MiB allocation reported by mallinfo(arena+hblkhd)
        178702 MiB available memory on the node where the printing process lives
------------------
     ethr =  1.65E-05,  avg # of iterations =  8.2

     negative rho (up, down):  3.572E-03 0.000E+00

     total cpu time spent up to now is      609.7 secs

     total energy              =  -22294.03469189 Ry
     estimated scf accuracy    <       0.05245920 Ry

     iteration #  8     ecut=    40.00 Ry     beta= 0.40
     Davidson diagonalization with overlap

---- Real-time Memory Report at c_bands before calling an iterative solver
           543 MiB given to the printing process from OS
             0 MiB allocation reported by mallinfo(arena+hblkhd)
        178680 MiB available memory on the node where the printing process lives
------------------
     ethr =  5.27E-06,  avg # of iterations = 11.2

     negative rho (up, down):  3.603E-03 0.000E+00

     total cpu time spent up to now is      689.5 secs

     total energy              =  -22294.03351473 Ry
     estimated scf accuracy    <       0.04924999 Ry

     iteration #  9     ecut=    40.00 Ry     beta= 0.40
     Davidson diagonalization with overlap

---- Real-time Memory Report at c_bands before calling an iterative solver
           544 MiB given to the printing process from OS
             0 MiB allocation reported by mallinfo(arena+hblkhd)
        178656 MiB available memory on the node where the printing process lives
------------------
     ethr =  4.94E-06,  avg # of iterations =  2.8

     negative rho (up, down):  3.625E-03 0.000E+00

     total cpu time spent up to now is      756.9 secs

     total energy              =  -22294.03147331 Ry
     estimated scf accuracy    <       0.02770046 Ry

     iteration # 10     ecut=    40.00 Ry     beta= 0.40
     Davidson diagonalization with overlap

---- Real-time Memory Report at c_bands before calling an iterative solver
           545 MiB given to the printing process from OS
             0 MiB allocation reported by mallinfo(arena+hblkhd)
        178633 MiB available memory on the node where the printing process lives
------------------
     c_bands:  1 eigenvalues not converged
     c_bands:  2 eigenvalues not converged
     c_bands:  3 eigenvalues not converged
     ethr =  2.78E-06,  avg # of iterations = 17.5

     negative rho (up, down):  3.645E-03 0.000E+00

     total cpu time spent up to now is      842.1 secs

     total energy              =  -22294.02745749 Ry
     estimated scf accuracy    <       0.02046044 Ry

     iteration # 11     ecut=    40.00 Ry     beta= 0.40
     Davidson diagonalization with overlap

---- Real-time Memory Report at c_bands before calling an iterative solver
           553 MiB given to the printing process from OS
             0 MiB allocation reported by mallinfo(arena+hblkhd)
        178625 MiB available memory on the node where the printing process lives
------------------
     ethr =  2.05E-06,  avg # of iterations = 12.5

     negative rho (up, down):  3.705E-03 0.000E+00

     total cpu time spent up to now is      922.0 secs

     total energy              =  -22294.01769239 Ry
     estimated scf accuracy    <       0.01351499 Ry

     iteration # 12     ecut=    40.00 Ry     beta= 0.40
     Davidson diagonalization with overlap

---- Real-time Memory Report at c_bands before calling an iterative solver
           553 MiB given to the printing process from OS
             0 MiB allocation reported by mallinfo(arena+hblkhd)
        178620 MiB available memory on the node where the printing process lives
------------------
     ethr =  1.36E-06,  avg # of iterations = 16.2

     negative rho (up, down):  3.698E-03 0.000E+00

     total cpu time spent up to now is     1022.2 secs

     total energy              =  -22294.01583922 Ry
     estimated scf accuracy    <       0.00454927 Ry

     iteration # 13     ecut=    40.00 Ry     beta= 0.40
     Davidson diagonalization with overlap

---- Real-time Memory Report at c_bands before calling an iterative solver
           553 MiB given to the printing process from OS
             0 MiB allocation reported by mallinfo(arena+hblkhd)
        178618 MiB available memory on the node where the printing process lives
------------------
     ethr =  4.57E-07,  avg # of iterations = 16.2

     negative rho (up, down):  3.671E-03 0.000E+00

     total cpu time spent up to now is     1109.4 secs

     total energy              =  -22293.99841196 Ry
     estimated scf accuracy    <       0.47240055 Ry

     iteration # 14     ecut=    40.00 Ry     beta= 0.40
     Davidson diagonalization with overlap

---- Real-time Memory Report at c_bands before calling an iterative solver
           553 MiB given to the printing process from OS
             0 MiB allocation reported by mallinfo(arena+hblkhd)
        178618 MiB available memory on the node where the printing process lives
------------------
     ethr =  4.57E-07,  avg # of iterations = 14.0

     negative rho (up, down):  3.663E-03 0.000E+00

     total cpu time spent up to now is     1194.4 secs

     total energy              =  -22294.01766623 Ry
     estimated scf accuracy    <       0.00541095 Ry

     iteration # 15     ecut=    40.00 Ry     beta= 0.40
     Davidson diagonalization with overlap

---- Real-time Memory Report at c_bands before calling an iterative solver
           553 MiB given to the printing process from OS
             0 MiB allocation reported by mallinfo(arena+hblkhd)
        178610 MiB available memory on the node where the printing process lives
------------------
     ethr =  4.57E-07,  avg # of iterations =  1.2

     negative rho (up, down):  3.659E-03 0.000E+00

     total cpu time spent up to now is     1251.4 secs

     total energy              =  -22294.01779928 Ry
     estimated scf accuracy    <       0.00123916 Ry

     iteration # 16     ecut=    40.00 Ry     beta= 0.40
     Davidson diagonalization with overlap

---- Real-time Memory Report at c_bands before calling an iterative solver
           553 MiB given to the printing process from OS
             0 MiB allocation reported by mallinfo(arena+hblkhd)
        178605 MiB available memory on the node where the printing process lives
------------------
     ethr =  1.24E-07,  avg # of iterations =  1.0

     negative rho (up, down):  3.656E-03 0.000E+00

     total cpu time spent up to now is     1305.3 secs

     total energy              =  -22294.01781048 Ry
     estimated scf accuracy    <       0.00152724 Ry

     iteration # 17     ecut=    40.00 Ry     beta= 0.40
     Davidson diagonalization with overlap

---- Real-time Memory Report at c_bands before calling an iterative solver
           553 MiB given to the printing process from OS
             0 MiB allocation reported by mallinfo(arena+hblkhd)
        178605 MiB available memory on the node where the printing process lives
------------------
     ethr =  1.24E-07,  avg # of iterations =  1.0

     negative rho (up, down):  3.655E-03 0.000E+00

     total cpu time spent up to now is     1359.2 secs

     total energy              =  -22294.01772761 Ry
     estimated scf accuracy    <       0.00111076 Ry

     iteration # 18     ecut=    40.00 Ry     beta= 0.40
     Davidson diagonalization with overlap

---- Real-time Memory Report at c_bands before calling an iterative solver
           553 MiB given to the printing process from OS
             0 MiB allocation reported by mallinfo(arena+hblkhd)
        178604 MiB available memory on the node where the printing process lives
------------------
     ethr =  1.12E-07,  avg # of iterations =  1.0

     negative rho (up, down):  3.654E-03 0.000E+00

     total cpu time spent up to now is     1413.1 secs

     total energy              =  -22294.01775705 Ry
     estimated scf accuracy    <       0.00004206 Ry

     iteration # 19     ecut=    40.00 Ry     beta= 0.40
     Davidson diagonalization with overlap

---- Real-time Memory Report at c_bands before calling an iterative solver
           553 MiB given to the printing process from OS
             0 MiB allocation reported by mallinfo(arena+hblkhd)
        178604 MiB available memory on the node where the printing process lives
------------------
     ethr =  4.22E-09,  avg # of iterations =  2.0

     negative rho (up, down):  3.653E-03 0.000E+00

     total cpu time spent up to now is     1479.0 secs

     total energy              =  -22294.01776369 Ry
     estimated scf accuracy    <       0.00005045 Ry

     iteration # 20     ecut=    40.00 Ry     beta= 0.40
     Davidson diagonalization with overlap

---- Real-time Memory Report at c_bands before calling an iterative solver
           553 MiB given to the printing process from OS
             0 MiB allocation reported by mallinfo(arena+hblkhd)
        178603 MiB available memory on the node where the printing process lives
------------------
     ethr =  4.22E-09,  avg # of iterations =  1.0

     negative rho (up, down):  3.653E-03 0.000E+00

     total cpu time spent up to now is     1532.9 secs

     total energy              =  -22294.01776383 Ry
     estimated scf accuracy    <       0.00002000 Ry

     iteration # 21     ecut=    40.00 Ry     beta= 0.40
     Davidson diagonalization with overlap

---- Real-time Memory Report at c_bands before calling an iterative solver
           553 MiB given to the printing process from OS
             0 MiB allocation reported by mallinfo(arena+hblkhd)
        178599 MiB available memory on the node where the printing process lives
------------------
     ethr =  2.01E-09,  avg # of iterations =  1.0

     negative rho (up, down):  3.653E-03 0.000E+00

     total cpu time spent up to now is     1586.8 secs

     total energy              =  -22294.01776301 Ry
     estimated scf accuracy    <       0.00001399 Ry

     iteration # 22     ecut=    40.00 Ry     beta= 0.40
     Davidson diagonalization with overlap

---- Real-time Memory Report at c_bands before calling an iterative solver
           553 MiB given to the printing process from OS
             0 MiB allocation reported by mallinfo(arena+hblkhd)
        178591 MiB available memory on the node where the printing process lives
------------------
     ethr =  1.40E-09,  avg # of iterations =  1.0

     negative rho (up, down):  3.653E-03 0.000E+00

     total cpu time spent up to now is     1640.7 secs

     total energy              =  -22294.01776319 Ry
     estimated scf accuracy    <       0.00000123 Ry

     iteration # 23     ecut=    40.00 Ry     beta= 0.40
     Davidson diagonalization with overlap

---- Real-time Memory Report at c_bands before calling an iterative solver
           553 MiB given to the printing process from OS
             0 MiB allocation reported by mallinfo(arena+hblkhd)
        178591 MiB available memory on the node where the printing process lives
------------------
     ethr =  1.23E-10,  avg # of iterations =  1.0

     negative rho (up, down):  3.653E-03 0.000E+00

     total cpu time spent up to now is     1694.6 secs

     End of self-consistent calculation

          k = 0.0000 0.0000 0.0000 ( 64855 PWs)   bands (ev):

  -124.8079-124.7808-124.7801-124.7794-124.7790-124.7774-124.7772-124.7770
  -124.7766-124.7764-124.7758-124.7756-124.7750-124.7745-124.7733-124.7731
  -124.7730-124.7718-124.7718-124.7713-124.7704-124.7703-124.7700-124.7695
  -124.7690-124.7688-124.7687-124.7683-124.7678-124.7675-124.7671-124.7669
  -124.7668-124.7663-124.7655-124.7647-124.7645-124.7634-124.7632-124.7622
  -124.7610-124.7585-124.7579-124.7571-124.7567-124.7558-124.7553-124.7496
   -78.9618 -78.9614 -78.9555 -78.9417 -78.9408 -78.9405 -78.9402 -78.9400
   -78.9399 -78.9396 -78.9395 -78.9394 -78.9390 -78.9380 -78.9379 -78.9374
   -78.9371 -78.9369 -78.9362 -78.9358 -78.9355 -78.9349 -78.9346 -78.9344
   -78.9340 -78.9337 -78.9330 -78.9327 -78.9326 -78.9325 -78.9322 -78.9320
   -78.9319 -78.9318 -78.9316 -78.9314 -78.9313 -78.9308 -78.9305 -78.9298
   -78.9294 -78.9278 -78.9248 -78.9247 -78.9231 -78.9228 -78.9226 -78.9221
   -78.9219 -78.9217 -78.9214 -78.9213 -78.9212 -78.9212 -78.9209 -78.9208
   -78.9206 -78.9205 -78.9204 -78.9201 -78.9199 -78.9194 -78.9193 -78.9193
   -78.9191 -78.9190 -78.9190 -78.9189 -78.9187 -78.9184 -78.9184 -78.9180
   -78.9178 -78.9177 -78.9177 -78.9174 -78.9173 -78.9170 -78.9167 -78.9162
   -78.9161 -78.9161 -78.9156 -78.9152 -78.9150 -78.9148 -78.9145 -78.9143
   -78.9139 -78.9136 -78.9134 -78.9130 -78.9129 -78.9127 -78.9125 -78.9124
   -78.9121 -78.9120 -78.9119 -78.9117 -78.9117 -78.9116 -78.9112 -78.9110
   -78.9109 -78.9106 -78.9101 -78.9096 -78.9093 -78.9087 -78.9085 -78.9084
   -78.9082 -78.9080 -78.9079 -78.9078 -78.9077 -78.9072 -78.9072 -78.9070
   -78.9065 -78.9064 -78.9062 -78.9061 -78.9059 -78.9053 -78.9050 -78.9046
   -78.9042 -78.9041 -78.9037 -78.9028 -78.9025 -78.9019 -78.9015 -78.9011
   -78.9002 -78.8998 -78.8989 -78.8988 -78.8971 -78.8958 -78.8933 -78.8919
   -16.6695 -14.4115 -12.0053 -11.6325  -8.7343  -8.5504  -8.3890  -7.2921
    -6.9061  -6.8624  -6.8453  -6.8396  -6.8326  -6.8296  -6.8230  -6.7537
    -6.6343  -6.6336  -6.6335  -6.5888  -6.5878  -6.5855  -6.5722  -6.5715
    -6.5690  -6.4279  -6.4216  -6.4167  -6.4150  -6.4132  -6.4108  -6.4043
    -6.4015  -6.3974  -6.3962  -6.3955  -6.3939  -6.3921  -6.3458  -6.3450
    -6.3438  -6.2505  -6.2491  -6.2461  -6.2434  -6.2423  -6.2394  -6.1959
    -6.1957  -6.1904  -6.1896  -6.1876  -6.1864  -6.1859  -6.1850  -6.1832
    -6.1638  -6.1611  -6.1589  -6.1579  -6.1570  -6.1547  -6.0789  -6.0707
    -6.0700  -6.0687  -6.0657  -6.0649  -6.0634  -6.0513  -6.0503  -6.0474
    -6.0462  -6.0453  -6.0441  -6.0428  -6.0406  -6.0403  -6.0399  -6.0391
    -6.0385  -6.0157  -6.0152  -6.0147  -6.0132  -6.0115  -6.0109  -5.9701
    -5.9686  -5.9683  -5.9448  -5.9426  -5.9412  -5.9391  -5.9386  -5.9360
    -5.8787  -5.8740  -5.8733  -5.8727  -5.8717  -5.8691  -5.8371  -5.8369
    -5.8221  -5.8219  -5.7989  -5.7988  -5.7867  -5.7857  -5.7849  -5.7812
    -5.7807  -5.7800  -5.7722  -5.7679  -5.7667  -5.7642  -5.7624  -5.7588
    -5.7267  -5.7263  -5.7242  -5.7240  -5.7229  -5.7228  -5.6679  -5.6666
    -5.6614  -5.6605  -5.6600  -5.6596  -5.6567  -5.6565  -5.6560  -5.6559
    -5.6539  -5.6538  -5.6341  -5.6328  -5.6290  -5.6275  -5.6273  -5.6266
    -5.6205  -5.6200  -5.6190  -5.6182  -5.6178  -5.6143  -5.6054  -5.6038
    -5.6024  -5.5878  -5.5855  -5.5843  -5.5829  -5.5826  -5.5822  -5.5812
    -5.5360  -5.5333  -5.5316  -5.5236  -5.5218  -5.5199  -5.5197  -5.5188
    -5.5160  -5.4571  -5.4553  -5.4532  -5.4529  -5.4516  -5.4497  -5.4489
    -5.4315  -5.4311  -5.4288  -5.4234  -5.4220  -5.4217  -5.4207  -5.4197
    -5.4194  -5.4190  -5.4188  -5.4183  -5.4170  -5.4166  -5.4162  -5.4155
    -5.4152  -5.4148  -5.4139  -5.4137  -5.4135  -5.4133  -5.4132  -5.4125
    -5.4117  -5.4112  -5.4026  -5.4011  -5.4007  -5.4001  -5.3994  -5.3965
    -5.3914  -5.3754  -5.3754  -5.3261  -5.3247  -5.3245  -5.3239  -5.3236
    -5.3222  -5.2831  -5.2830  -5.2785  -5.2781  -5.2774  -5.2774  -5.2771
    -5.2769  -5.2535  -5.2523  -5.2518  -5.2380  -5.2380  -5.2376  -5.2373
    -5.2369  -5.2366  -5.2213  -5.2212  -5.2023  -5.2020  -5.2018  -5.2010
    -5.2005  -5.2000  -5.1096  -5.1094  -5.1090  -5.1089  -5.1084  -5.1079
    -4.9915  -4.9912  -4.9908  -4.9854  -4.9847  -4.9830  -4.9764  -4.9761
    -4.9747  -4.2674  -4.2645  -4.2535  -4.2511  -4.2476  -4.2468  -4.1570
    -4.1314  -3.7614  -3.3167  -3.1217  -2.2556  -1.9053  -1.9008  -1.8966
    -1.8938  -1.8896  -1.8863  -1.8831  -1.8828  -1.8820  -1.8769  -1.8761
    -1.8743  -1.7797  -1.2834  -0.6146  -0.6104  -0.6087  -0.5665  -0.5223
    -0.5199  -0.5187  -0.5128  -0.5113  -0.5103   0.1104   0.1130   0.1153
     0.1207   0.3657   0.3683   0.3727   1.3449   1.6644   1.6688   1.6704
     1.6726   1.6801   1.6872   1.7070   1.7135   1.7292   1.7364   1.7384
     1.7648   2.4304   2.4324   2.4353   3.2250   3.4445   3.4483   3.4489
     4.2707   4.2744   4.2756   4.9163   4.9720   4.9796   4.9959   5.0143
     5.0315   5.1951   5.2630   5.4701   5.5392   5.5503   5.5597   5.5659
     5.5671   5.5772   5.6423   5.6462   5.6543   5.6568   5.6624   5.6650
     5.6978   5.8148   5.8212   5.8241   5.8300   5.8371   5.8420   6.3324
     6.5042   6.6594   6.6934   6.6963   6.7667   6.8089   7.0786   7.1003
     7.1076   7.1098   7.1285   7.1329   7.1388   7.1419   7.1451   7.1475
     7.1707   7.2182   7.2870   7.2924   7.2967   7.3019   7.3048   7.3100
     7.3131   7.3838   7.4238   7.5176   7.8698   8.0212   8.0697   8.0777
     8.1306   8.2194   8.2285   8.2441   8.2536   8.2652   8.2835   8.3044
     8.3654   8.3830   8.3985   8.4408   8.4637   8.4895   8.5077   8.5202
     8.5517   8.5882   8.8435   9.2045   9.3358   9.3562

     occupation numbers 
     1.0000   1.0000   1.0000   1.0000   1.0000   1.0000   1.0000   1.0000
     1.0000   1.0000   1.0000   1.0000   1.0000   1.0000   1.0000   1.0000
     1.0000   1.0000   1.0000   1.0000   1.0000   1.0000   1.0000   1.0000
     1.0000   1.0000   1.0000   1.0000   1.0000   1.0000   1.0000   1.0000
     1.0000   1.0000   1.0000   1.0000   1.0000   1.0000   1.0000   1.0000
     1.0000   1.0000   1.0000   1.0000   1.0000   1.0000   1.0000   1.0000
     1.0000   1.0000   1.0000   1.0000   1.0000   1.0000   1.0000   1.0000
     1.0000   1.0000   1.0000   1.0000   1.0000   1.0000   1.0000   1.0000
     1.0000   1.0000   1.0000   1.0000   1.0000   1.0000   1.0000   1.0000
     1.0000   1.0000   1.0000   1.0000   1.0000   1.0000   1.0000   1.0000
     1.0000   1.0000   1.0000   1.0000   1.0000   1.0000   1.0000   1.0000
     1.0000   1.0000   1.0000   1.0000   1.0000   1.0000   1.0000   1.0000
     1.0000   1.0000   1.0000   1.0000   1.0000   1.0000   1.0000   1.0000
     1.0000   1.0000   1.0000   1.0000   1.0000   1.0000   1.0000   1.0000
     1.0000   1.0000   1.0000   1.0000   1.0000   1.0000   1.0000   1.0000
     1.0000   1.0000   1.0000   1.0000   1.0000   1.0000   1.0000   1.0000
     1.0000   1.0000   1.0000   1.0000   1.0000   1.0000   1.0000   1.0000
     1.0000   1.0000   1.0000   1.0000   1.0000   1.0000   1.0000   1.0000
     1.0000   1.0000   1.0000   1.0000   1.0000   1.0000   1.0000   1.0000
     1.0000   1.0000   1.0000   1.0000   1.0000   1.0000   1.0000   1.0000
     1.0000   1.0000   1.0000   1.0000   1.0000   1.0000   1.0000   1.0000
     1.0000   1.0000   1.0000   1.0000   1.0000   1.0000   1.0000   1.0000
     1.0000   1.0000   1.0000   1.0000   1.0000   1.0000   1.0000   1.0000
     1.0000   1.0000   1.0000   1.0000   1.0000   1.0000   1.0000   1.0000
     1.0000   1.0000   1.0000   1.0000   1.0000   1.0000   1.0000   1.0000
     1.0000   1.0000   1.0000   1.0000   1.0000   1.0000   1.0000   1.0000
     1.0000   1.0000   1.0000   1.0000   1.0000   1.0000   1.0000   1.0000
     1.0000   1.0000   1.0000   1.0000   1.0000   1.0000   1.0000   1.0000
     1.0000   1.0000   1.0000   1.0000   1.0000   1.0000   1.0000   1.0000
     1.0000   1.0000   1.0000   1.0000   1.0000   1.0000   1.0000   1.0000
     1.0000   1.0000   1.0000   1.0000   1.0000   1.0000   1.0000   1.0000
     1.0000   1.0000   1.0000   1.0000   1.0000   1.0000   1.0000   1.0000
     1.0000   1.0000   1.0000   1.0000   1.0000   1.0000   1.0000   1.0000
     1.0000   1.0000   1.0000   1.0000   1.0000   1.0000   1.0000   1.0000
     1.0000   1.0000   1.0000   1.0000   1.0000   1.0000   1.0000   1.0000
     1.0000   1.0000   1.0000   1.0000   1.0000   1.0000   1.0000   1.0000
     1.0000   1.0000   1.0000   1.0000   1.0000   1.0000   1.0000   1.0000
     1.0000   1.0000   1.0000   1.0000   1.0000   1.0000   1.0000   1.0000
     1.0000   1.0000   1.0000   1.0000   1.0000   1.0000   1.0000   1.0000
     1.0000   1.0000   1.0000   1.0000   1.0000   1.0000   1.0000   1.0000
     1.0000   1.0000   1.0000   1.0000   1.0000   1.0000   1.0000   1.0000
     1.0000   1.0000   1.0000   1.0000   1.0000   1.0000   1.0000   1.0000
     1.0000   1.0000   1.0000   1.0000   1.0000   1.0000   1.0000   1.0000
     1.0000   1.0000   1.0000   1.0000   1.0000   1.0000   1.0000   1.0000
     1.0000   1.0000   1.0000   1.0000   1.0000   1.0000   1.0000   1.0000
     1.0000   1.0000   1.0000   1.0000   1.0000   1.0000   1.0000   1.0000
     1.0000   1.0000   1.0000   1.0000   1.0000   1.0000   1.0000   1.0000
     1.0000   1.0000   1.0000   1.0000   1.0000   1.0000   1.0000   1.0000
     1.0000   1.0000   1.0000   1.0000   1.0000   1.0000   1.0000   1.0000
     1.0000   1.0000   1.0000   1.0000   1.0000   1.0000   1.0000   1.0000
     1.0000   1.0000   1.0000   1.0000   1.0000   1.0000   1.0000   1.0000
     1.0000   1.0000   1.0000   1.0000   1.0000   1.0000   1.0000   1.0000
     1.0000   1.0000   1.0000   1.0000   1.0000   1.0000   1.0000   1.0000
     1.0000   1.0000   1.0000   1.0000   1.0000   1.0000   1.0000   1.0000
     1.0000   1.0000   1.0000   1.0000   1.0000   1.0000   1.0000   1.0000
     1.0000   1.0000   1.0000   1.0000   1.0000   1.0000   1.0000   1.0000
     1.0000   1.0000   1.0000   1.0000   1.0000   1.0000   1.0000   1.0000
     1.0000   1.0000   1.0000   1.0000   1.0000   1.0000   1.0000   1.0000
     1.0000   1.0000   1.0000   1.0000   1.0000   1.0000   1.0000   1.0000
     1.0000   1.0000   1.0000   1.0000   1.0000   1.0000   1.0000   1.0000
     1.0000   1.0000   1.0000   1.0000   1.0000   1.0000   1.0000   1.0000
     1.0000   1.0000   1.0000   1.0000   1.0585   0.3703   0.3596   0.3559
     0.3506   0.3330   0.3168   0.2741   0.2606   0.2302   0.2171   0.2136
     0.1699   0.0000   0.0000   0.0000   0.0000   0.0000   0.0000   0.0000
     0.0000   0.0000   0.0000   0.0000   0.0000   0.0000   0.0000   0.0000
     0.0000   0.0000   0.0000   0.0000   0.0000   0.0000   0.0000   0.0000
     0.0000   0.0000   0.0000   0.0000   0.0000   0.0000   0.0000   0.0000
     0.0000   0.0000   0.0000   0.0000   0.0000   0.0000   0.0000   0.0000
     0.0000   0.0000   0.0000   0.0000   0.0000   0.0000   0.0000   0.0000
     0.0000   0.0000   0.0000   0.0000   0.0000   0.0000   0.0000   0.0000
     0.0000   0.0000   0.0000   0.0000   0.0000   0.0000   0.0000   0.0000
     0.0000   0.0000   0.0000   0.0000   0.0000   0.0000   0.0000   0.0000
     0.0000   0.0000   0.0000   0.0000   0.0000   0.0000   0.0000   0.0000
     0.0000   0.0000   0.0000   0.0000   0.0000   0.0000   0.0000   0.0000
     0.0000   0.0000   0.0000   0.0000   0.0000   0.0000

          k = 0.0000-0.5774 0.0000 ( 64842 PWs)   bands (ev):

  -124.8079-124.7807-124.7802-124.7794-124.7791-124.7774-124.7772-124.7769
  -124.7766-124.7765-124.7758-124.7756-124.7750-124.7745-124.7734-124.7730
  -124.7730-124.7719-124.7718-124.7713-124.7703-124.7702-124.7700-124.7696
  -124.7690-124.7688-124.7685-124.7685-124.7679-124.7673-124.7671-124.7669
  -124.7669-124.7664-124.7654-124.7647-124.7645-124.7634-124.7632-124.7622
  -124.7610-124.7585-124.7579-124.7571-124.7567-124.7558-124.7553-124.7496
   -78.9617 -78.9614 -78.9555 -78.9415 -78.9407 -78.9402 -78.9397 -78.9385
   -78.9383 -78.9381 -78.9379 -78.9378 -78.9375 -78.9374 -78.9372 -78.9369
   -78.9366 -78.9364 -78.9362 -78.9359 -78.9359 -78.9355 -78.9355 -78.9354
   -78.9351 -78.9349 -78.9345 -78.9339 -78.9335 -78.9333 -78.9332 -78.9328
   -78.9318 -78.9314 -78.9314 -78.9308 -78.9302 -78.9296 -78.9293 -78.9288
   -78.9288 -78.9281 -78.9280 -78.9279 -78.9276 -78.9275 -78.9271 -78.9257
   -78.9245 -78.9243 -78.9239 -78.9235 -78.9230 -78.9229 -78.9224 -78.9215
   -78.9206 -78.9202 -78.9200 -78.9196 -78.9191 -78.9190 -78.9186 -78.9184
   -78.9179 -78.9177 -78.9174 -78.9172 -78.9171 -78.9170 -78.9169 -78.9163
   -78.9163 -78.9161 -78.9160 -78.9159 -78.9156 -78.9155 -78.9153 -78.9152
   -78.9151 -78.9149 -78.9148 -78.9147 -78.9146 -78.9144 -78.9143 -78.9142
   -78.9139 -78.9131 -78.9127 -78.9127 -78.9125 -78.9124 -78.9121 -78.9120
   -78.9118 -78.9117 -78.9116 -78.9113 -78.9112 -78.9111 -78.9110 -78.9107
   -78.9106 -78.9103 -78.9102 -78.9100 -78.9098 -78.9094 -78.9091 -78.9089
   -78.9088 -78.9085 -78.9082 -78.9078 -78.9076 -78.9072 -78.9066 -78.9064
   -78.9064 -78.9059 -78.9053 -78.9053 -78.9050 -78.9047 -78.9044 -78.9044
   -78.9042 -78.9041 -78.9037 -78.9037 -78.9036 -78.9033 -78.9025 -78.9021
   -78.9004 -78.9002 -78.8993 -78.8989 -78.8972 -78.8966 -78.8937 -78.8932
   -16.6695 -14.4115 -12.0053 -11.6325  -8.7344  -8.5495  -7.9280  -7.9187
    -7.0959  -7.0786  -6.9179  -6.9136  -6.7553  -6.6749  -6.6699  -6.5909
    -6.5877  -6.5168  -6.5144  -6.5043  -6.5026  -6.4795  -6.4785  -6.4741
    -6.4738  -6.4346  -6.4341  -6.4314  -6.4310  -6.4185  -6.4134  -6.4130
    -6.4112  -6.4088  -6.4014  -6.4008  -6.3990  -6.3966  -6.3793  -6.3717
    -6.3499  -6.3442  -6.3006  -6.2997  -6.2988  -6.2971  -6.2968  -6.2953
    -6.2909  -6.2908  -6.2710  -6.2692  -6.2686  -6.2666  -6.2659  -6.2653
    -6.2234  -6.2172  -6.1714  -6.1640  -6.1609  -6.1545  -6.1533  -6.1519
    -6.1510  -6.1472  -6.1358  -6.1353  -6.1245  -6.1233  -6.1230  -6.1208
    -6.0697  -6.0662  -6.0656  -6.0633  -6.0511  -6.0498  -6.0464  -6.0423
    -6.0384  -6.0341  -6.0229  -6.0217  -5.9702  -5.9646  -5.9635  -5.9606
    -5.9541  -5.9523  -5.9404  -5.9395  -5.9386  -5.9372  -5.9257  -5.9248
    -5.9128  -5.9120  -5.8982  -5.8970  -5.8960  -5.8944  -5.8886  -5.8871
    -5.8615  -5.8515  -5.8512  -5.8474  -5.8431  -5.8422  -5.8405  -5.8393
    -5.8376  -5.8363  -5.7865  -5.7779  -5.7672  -5.7650  -5.7544  -5.7524
    -5.7258  -5.7204  -5.7129  -5.7107  -5.6914  -5.6900  -5.6894  -5.6871
    -5.6865  -5.6849  -5.6652  -5.6626  -5.6623  -5.6611  -5.6550  -5.6544
    -5.6304  -5.6276  -5.6171  -5.6161  -5.6157  -5.6142  -5.6122  -5.6089
    -5.6051  -5.6046  -5.6042  -5.6036  -5.5777  -5.5760  -5.5741  -5.5716
    -5.5661  -5.5647  -5.5602  -5.5601  -5.5563  -5.5543  -5.5260  -5.5179
    -5.5066  -5.5024  -5.4981  -5.4936  -5.4917  -5.4910  -5.4897  -5.4862
    -5.4837  -5.4832  -5.4817  -5.4811  -5.4550  -5.4531  -5.4495  -5.4483
    -5.4325  -5.4231  -5.4201  -5.4193  -5.4167  -5.4142  -5.4132  -5.4098
    -5.4089  -5.3943  -5.3903  -5.3848  -5.3811  -5.3738  -5.3724  -5.3692
    -5.3686  -5.3627  -5.3614  -5.3606  -5.3598  -5.3588  -5.3570  -5.3454
    -5.3446  -5.3444  -5.3441  -5.3277  -5.3269  -5.3235  -5.3222  -5.3220
    -5.3218  -5.3164  -5.3159  -5.3157  -5.3153  -5.3138  -5.3130  -5.3012
    -5.3003  -5.2758  -5.2756  -5.2706  -5.2699  -5.2621  -5.2616  -5.2277
    -5.2266  -5.2253  -5.2242  -5.2178  -5.2176  -5.2171  -5.2155  -5.2110
    -5.2108  -5.2101  -5.2099  -5.1755  -5.1750  -5.1744  -5.1742  -5.1576
    -5.1557  -5.1556  -5.1554  -5.1201  -5.1193  -5.1105  -5.1094  -5.1044
    -5.1031  -5.0831  -5.0825  -5.0817  -5.0811  -5.0540  -5.0513  -4.5504
    -4.5500  -4.2255  -4.2238  -4.2146  -4.2137  -4.1642  -4.1379  -3.7622
    -3.5174  -3.5144  -3.1234  -2.9799  -2.9769  -2.9359  -2.9337  -2.9317
    -2.9298  -2.2842  -2.2593  -2.2258  -2.1138  -2.1126  -1.7867  -1.5419
    -1.5411  -1.5355  -1.5344  -1.2860  -0.6256  -0.6205  -0.6184  -0.6163
    -0.2045  -0.2039  -0.2016  -0.1995   0.0545   0.0591   0.1207   0.1504
     0.1520   1.1775   1.1868   1.2540   1.2662   1.3845   1.5290   1.5392
     1.5434   1.5466   1.5491   1.5573   2.3427   2.3528   3.0778   3.0801
     3.0856   3.0863   3.2331   3.2394   3.2445   3.2571   3.4410   3.4463
     3.6718   3.6750   3.9886   3.9896   3.9935   3.9948   4.1371   4.1414
     4.4708   4.4794   4.5552   4.5624   4.8851   4.8880   5.0591   5.0617
     5.1748   5.5910   5.6293   5.6336   5.6725   5.7539   5.9131   5.9238
     5.9385   5.9393   6.0409   6.0551   6.0615   6.0697   6.1139   6.1184
     6.1266   6.1272   6.2256   6.2555   6.2926   6.3043   6.5859   6.6301
     6.6823   6.6843   6.6935   6.7745   6.8738   6.9117   6.9585   7.0378
     7.0760   7.0806   7.2199   7.2289   7.2324   7.2345   7.6504   7.7218
     7.7499   7.8689   7.9508   8.1279   8.1847   8.2069   8.2537   8.2946
     8.3550   8.3828   8.4189   8.4794   8.4897   8.5656   8.6971   8.7468
     8.7676   8.7764   8.8520   8.8604   8.8790   8.9123   8.9380   8.9995
     9.0068   9.0868   9.1041   9.1436   9.2120   9.2207

     occupation numbers 
     1.0000   1.0000   1.0000   1.0000   1.0000   1.0000   1.0000   1.0000
     1.0000   1.0000   1.0000   1.0000   1.0000   1.0000   1.0000   1.0000
     1.0000   1.0000   1.0000   1.0000   1.0000   1.0000   1.0000   1.0000
     1.0000   1.0000   1.0000   1.0000   1.0000   1.0000   1.0000   1.0000
     1.0000   1.0000   1.0000   1.0000   1.0000   1.0000   1.0000   1.0000
     1.0000   1.0000   1.0000   1.0000   1.0000   1.0000   1.0000   1.0000
     1.0000   1.0000   1.0000   1.0000   1.0000   1.0000   1.0000   1.0000
     1.0000   1.0000   1.0000   1.0000   1.0000   1.0000   1.0000   1.0000
     1.0000   1.0000   1.0000   1.0000   1.0000   1.0000   1.0000   1.0000
     1.0000   1.0000   1.0000   1.0000   1.0000   1.0000   1.0000   1.0000
     1.0000   1.0000   1.0000   1.0000   1.0000   1.0000   1.0000   1.0000
     1.0000   1.0000   1.0000   1.0000   1.0000   1.0000   1.0000   1.0000
     1.0000   1.0000   1.0000   1.0000   1.0000   1.0000   1.0000   1.0000
     1.0000   1.0000   1.0000   1.0000   1.0000   1.0000   1.0000   1.0000
     1.0000   1.0000   1.0000   1.0000   1.0000   1.0000   1.0000   1.0000
     1.0000   1.0000   1.0000   1.0000   1.0000   1.0000   1.0000   1.0000
     1.0000   1.0000   1.0000   1.0000   1.0000   1.0000   1.0000   1.0000
     1.0000   1.0000   1.0000   1.0000   1.0000   1.0000   1.0000   1.0000
     1.0000   1.0000   1.0000   1.0000   1.0000   1.0000   1.0000   1.0000
     1.0000   1.0000   1.0000   1.0000   1.0000   1.0000   1.0000   1.0000
     1.0000   1.0000   1.0000   1.0000   1.0000   1.0000   1.0000   1.0000
     1.0000   1.0000   1.0000   1.0000   1.0000   1.0000   1.0000   1.0000
     1.0000   1.0000   1.0000   1.0000   1.0000   1.0000   1.0000   1.0000
     1.0000   1.0000   1.0000   1.0000   1.0000   1.0000   1.0000   1.0000
     1.0000   1.0000   1.0000   1.0000   1.0000   1.0000   1.0000   1.0000
     1.0000   1.0000   1.0000   1.0000   1.0000   1.0000   1.0000   1.0000
     1.0000   1.0000   1.0000   1.0000   1.0000   1.0000   1.0000   1.0000
     1.0000   1.0000   1.0000   1.0000   1.0000   1.0000   1.0000   1.0000
     1.0000   1.0000   1.0000   1.0000   1.0000   1.0000   1.0000   1.0000
     1.0000   1.0000   1.0000   1.0000   1.0000   1.0000   1.0000   1.0000
     1.0000   1.0000   1.0000   1.0000   1.0000   1.0000   1.0000   1.0000
     1.0000   1.0000   1.0000   1.0000   1.0000   1.0000   1.0000   1.0000
     1.0000   1.0000   1.0000   1.0000   1.0000   1.0000   1.0000   1.0000
     1.0000   1.0000   1.0000   1.0000   1.0000   1.0000   1.0000   1.0000
     1.0000   1.0000   1.0000   1.0000   1.0000   1.0000   1.0000   1.0000
     1.0000   1.0000   1.0000   1.0000   1.0000   1.0000   1.0000   1.0000
     1.0000   1.0000   1.0000   1.0000   1.0000   1.0000   1.0000   1.0000
     1.0000   1.0000   1.0000   1.0000   1.0000   1.0000   1.0000   1.0000
     1.0000   1.0000   1.0000   1.0000   1.0000   1.0000   1.0000   1.0000
     1.0000   1.0000   1.0000   1.0000   1.0000   1.0000   1.0000   1.0000
     1.0000   1.0000   1.0000   1.0000   1.0000   1.0000   1.0000   1.0000
     1.0000   1.0000   1.0000   1.0000   1.0000   1.0000   1.0000   1.0000
     1.0000   1.0000   1.0000   1.0000   1.0000   1.0000   1.0000   1.0000
     1.0000   1.0000   1.0000   1.0000   1.0000   1.0000   1.0000   1.0000
     1.0000   1.0000   1.0000   1.0000   1.0000   1.0000   1.0000   1.0000
     1.0000   1.0000   1.0000   1.0000   1.0000   1.0000   1.0000   1.0000
     1.0000   1.0000   1.0000   1.0000   1.0000   1.0000   1.0000   1.0000
     1.0000   1.0000   1.0000   1.0000   1.0000   1.0000   1.0000   1.0000
     1.0000   1.0000   1.0000   1.0000   1.0000   1.0000   1.0000   1.0000
     1.0000   1.0000   1.0000   1.0000   1.0000   1.0000   1.0000   1.0000
     1.0000   1.0000   1.0000   1.0000   1.0000   1.0000   1.0000   1.0000
     1.0000   1.0000   1.0000   1.0000   1.0000   1.0000   1.0000   1.0000
     1.0000   1.0000   1.0000   1.0000   1.0000   1.0000   1.0000   1.0000
     1.0000   1.0000   1.0000   1.0000   1.0000   1.0000   1.0000   1.0000
     1.0000   1.0000   1.0000   1.0000   1.0000   1.0000   1.0000   1.0000
     1.0000   1.0000   1.0000   1.0000   1.0000   1.0000   1.0000   1.0000
     1.0000   1.0000   1.0000   1.0000   1.0000   1.0000   1.0000   1.0000
     1.0000   1.0000   1.0000   1.0000   1.0000   1.0000   1.0000   1.0000
     1.0000   1.0000   1.0000   1.0000   1.0000   1.0000   1.0000   1.0000
     1.0000   1.0000   1.0000   1.0000   1.0000   1.0000   1.0000   1.0000
     1.0000   1.0000   1.0000   1.0000   1.0000   1.0000   1.0000   1.0000
     1.0000   1.0649   1.0679   1.0828   1.0833   1.0217   0.7334   0.7059
     0.6948   0.6861   0.6793   0.6568   0.0000   0.0000   0.0000   0.0000
     0.0000   0.0000   0.0000   0.0000   0.0000   0.0000   0.0000   0.0000
     0.0000   0.0000   0.0000   0.0000   0.0000   0.0000   0.0000   0.0000
     0.0000   0.0000   0.0000   0.0000   0.0000   0.0000   0.0000   0.0000
     0.0000   0.0000   0.0000   0.0000   0.0000   0.0000   0.0000   0.0000
     0.0000   0.0000   0.0000   0.0000   0.0000   0.0000   0.0000   0.0000
     0.0000   0.0000   0.0000   0.0000   0.0000   0.0000   0.0000   0.0000
     0.0000   0.0000   0.0000   0.0000   0.0000   0.0000   0.0000   0.0000
     0.0000   0.0000   0.0000   0.0000   0.0000   0.0000   0.0000   0.0000
     0.0000   0.0000   0.0000   0.0000   0.0000   0.0000   0.0000   0.0000
     0.0000   0.0000   0.0000   0.0000   0.0000   0.0000   0.0000   0.0000
     0.0000   0.0000   0.0000   0.0000   0.0000   0.0000   0.0000   0.0000
     0.0000   0.0000   0.0000   0.0000   0.0000   0.0000

          k =-0.5000-0.2887 0.0000 ( 64842 PWs)   bands (ev):

  -124.8079-124.7807-124.7802-124.7794-124.7790-124.7774-124.7772-124.7769
  -124.7766-124.7765-124.7758-124.7756-124.7750-124.7745-124.7734-124.7730
  -124.7730-124.7718-124.7718-124.7713-124.7704-124.7703-124.7700-124.7695
  -124.7690-124.7690-124.7685-124.7682-124.7679-124.7675-124.7671-124.7669
  -124.7669-124.7663-124.7655-124.7647-124.7645-124.7634-124.7632-124.7622
  -124.7610-124.7585-124.7579-124.7571-124.7567-124.7558-124.7553-124.7496
   -78.9618 -78.9614 -78.9555 -78.9415 -78.9407 -78.9401 -78.9397 -78.9390
   -78.9382 -78.9380 -78.9380 -78.9380 -78.9376 -78.9374 -78.9373 -78.9369
   -78.9366 -78.9364 -78.9363 -78.9358 -78.9356 -78.9352 -78.9346 -78.9346
   -78.9345 -78.9344 -78.9341 -78.9338 -78.9335 -78.9333 -78.9328 -78.9323
   -78.9320 -78.9319 -78.9313 -78.9308 -78.9298 -78.9296 -78.9294 -78.9290
   -78.9288 -78.9285 -78.9283 -78.9280 -78.9277 -78.9274 -78.9272 -78.9271
   -78.9265 -78.9255 -78.9247 -78.9239 -78.9232 -78.9232 -78.9231 -78.9223
   -78.9206 -78.9200 -78.9197 -78.9195 -78.9194 -78.9190 -78.9184 -78.9177
   -78.9175 -78.9172 -78.9169 -78.9168 -78.9168 -78.9166 -78.9165 -78.9164
   -78.9163 -78.9160 -78.9160 -78.9158 -78.9156 -78.9155 -78.9154 -78.9152
   -78.9149 -78.9148 -78.9146 -78.9146 -78.9144 -78.9142 -78.9139 -78.9134
   -78.9133 -78.9131 -78.9128 -78.9127 -78.9126 -78.9125 -78.9123 -78.9121
   -78.9118 -78.9116 -78.9115 -78.9113 -78.9112 -78.9111 -78.9111 -78.9107
   -78.9104 -78.9101 -78.9099 -78.9096 -78.9094 -78.9093 -78.9092 -78.9088
   -78.9086 -78.9084 -78.9077 -78.9075 -78.9071 -78.9068 -78.9066 -78.9066
   -78.9065 -78.9063 -78.9061 -78.9057 -78.9053 -78.9053 -78.9049 -78.9049
   -78.9045 -78.9043 -78.9041 -78.9039 -78.9037 -78.9030 -78.9020 -78.9020
   -78.9014 -78.9005 -78.8995 -78.8989 -78.8974 -78.8960 -78.8943 -78.8920
   -16.6695 -14.4115 -12.0053 -11.6325  -8.7343  -8.5495  -7.9353  -7.9112
    -7.0900  -7.0845  -6.9246  -6.9074  -6.7554  -6.6776  -6.6668  -6.5922
    -6.5863  -6.5207  -6.5123  -6.5045  -6.4989  -6.4832  -6.4811  -6.4726
    -6.4706  -6.4397  -6.4352  -6.4284  -6.4281  -6.4239  -6.4129  -6.4116
    -6.4072  -6.4055  -6.4051  -6.4015  -6.3995  -6.3992  -6.3759  -6.3700
    -6.3485  -6.3462  -6.2997  -6.2995  -6.2983  -6.2972  -6.2952  -6.2951
    -6.2934  -6.2925  -6.2735  -6.2719  -6.2710  -6.2645  -6.2639  -6.2614
    -6.2220  -6.2191  -6.1698  -6.1664  -6.1610  -6.1553  -6.1523  -6.1515
    -6.1492  -6.1489  -6.1385  -6.1330  -6.1288  -6.1239  -6.1205  -6.1179
    -6.0699  -6.0669  -6.0646  -6.0644  -6.0509  -6.0486  -6.0471  -6.0424
    -6.0369  -6.0360  -6.0224  -6.0210  -5.9700  -5.9639  -5.9630  -5.9621
    -5.9536  -5.9532  -5.9422  -5.9414  -5.9358  -5.9346  -5.9260  -5.9248
    -5.9123  -5.9118  -5.9002  -5.8973  -5.8953  -5.8937  -5.8882  -5.8865
    -5.8601  -5.8526  -5.8494  -5.8491  -5.8431  -5.8419  -5.8403  -5.8390
    -5.8376  -5.8371  -5.7844  -5.7788  -5.7674  -5.7653  -5.7563  -5.7506
    -5.7289  -5.7197  -5.7157  -5.7073  -5.6917  -5.6905  -5.6892  -5.6868
    -5.6861  -5.6817  -5.6693  -5.6614  -5.6610  -5.6601  -5.6558  -5.6549
    -5.6294  -5.6284  -5.6188  -5.6158  -5.6149  -5.6145  -5.6123  -5.6076
    -5.6069  -5.6050  -5.6033  -5.6029  -5.5803  -5.5738  -5.5732  -5.5723
    -5.5648  -5.5638  -5.5617  -5.5612  -5.5563  -5.5557  -5.5239  -5.5196
    -5.5057  -5.5033  -5.4977  -5.4936  -5.4930  -5.4909  -5.4885  -5.4875
    -5.4850  -5.4845  -5.4796  -5.4791  -5.4557  -5.4539  -5.4498  -5.4481
    -5.4333  -5.4239  -5.4207  -5.4201  -5.4181  -5.4163  -5.4114  -5.4089
    -5.4062  -5.3933  -5.3909  -5.3863  -5.3814  -5.3745  -5.3726  -5.3688
    -5.3674  -5.3633  -5.3613  -5.3607  -5.3589  -5.3586  -5.3568  -5.3453
    -5.3450  -5.3446  -5.3438  -5.3279  -5.3272  -5.3246  -5.3233  -5.3208
    -5.3202  -5.3164  -5.3158  -5.3155  -5.3152  -5.3139  -5.3132  -5.3023
    -5.2995  -5.2758  -5.2756  -5.2711  -5.2689  -5.2623  -5.2616  -5.2273
    -5.2267  -5.2245  -5.2239  -5.2187  -5.2180  -5.2166  -5.2153  -5.2113
    -5.2108  -5.2105  -5.2096  -5.1754  -5.1750  -5.1744  -5.1744  -5.1597
    -5.1553  -5.1545  -5.1544  -5.1205  -5.1191  -5.1104  -5.1095  -5.1044
    -5.1029  -5.0845  -5.0820  -5.0811  -5.0804  -5.0541  -5.0513  -4.5524
    -4.5490  -4.2239  -4.2234  -4.2152  -4.2137  -4.1645  -4.1369  -3.7614
    -3.5172  -3.5151  -3.1249  -2.9837  -2.9723  -2.9351  -2.9339  -2.9314
    -2.9312  -2.2773  -2.2616  -2.2296  -2.1168  -2.1097  -1.7860  -1.5485
    -1.5448  -1.5320  -1.5271  -1.2875  -0.6259  -0.6222  -0.6169  -0.6156
    -0.2141  -0.2059  -0.1947  -0.1946   0.0442   0.0669   0.1210   0.1502
     0.1518   1.1891   1.1963   1.2604   1.2612   1.3732   1.5304   1.5380
     1.5406   1.5431   1.5458   1.5556   2.3476   2.3497   3.0734   3.0818
     3.0841   3.0902   3.2304   3.2436   3.2456   3.2580   3.4433   3.4437
     3.6505   3.6924   3.9847   3.9906   3.9954   3.9968   4.1343   4.1456
     4.4665   4.4843   4.5358   4.5869   4.8832   4.8886   5.0560   5.0647
     5.1771   5.5445   5.5676   5.6304   5.6398   5.7927   5.8773   5.9112
     5.9292   6.0309   6.0342   6.0637   6.0758   6.1060   6.1132   6.1184
     6.1298   6.1339   6.2110   6.2644   6.3071   6.3088   6.5529   6.5962
     6.6778   6.6832   6.7077   6.7657   6.8054   6.9252   6.9718   6.9951
     7.1443   7.1957   7.2154   7.2296   7.2309   7.2395   7.5753   7.6739
     7.8782   7.9026   8.0973   8.1276   8.1829   8.2109   8.2134   8.2758
     8.2892   8.3798   8.4308   8.5026   8.5124   8.6724   8.6826   8.7365
     8.7672   8.7897   8.8061   8.8362   8.8510   8.8697   8.8779   8.8880
     8.9776   9.0478   9.1191   9.1447   9.1777   9.1812

     occupation numbers 
     1.0000   1.0000   1.0000   1.0000   1.0000   1.0000   1.0000   1.0000
     1.0000   1.0000   1.0000   1.0000   1.0000   1.0000   1.0000   1.0000
     1.0000   1.0000   1.0000   1.0000   1.0000   1.0000   1.0000   1.0000
     1.0000   1.0000   1.0000   1.0000   1.0000   1.0000   1.0000   1.0000
     1.0000   1.0000   1.0000   1.0000   1.0000   1.0000   1.0000   1.0000
     1.0000   1.0000   1.0000   1.0000   1.0000   1.0000   1.0000   1.0000
     1.0000   1.0000   1.0000   1.0000   1.0000   1.0000   1.0000   1.0000
     1.0000   1.0000   1.0000   1.0000   1.0000   1.0000   1.0000   1.0000
     1.0000   1.0000   1.0000   1.0000   1.0000   1.0000   1.0000   1.0000
     1.0000   1.0000   1.0000   1.0000   1.0000   1.0000   1.0000   1.0000
     1.0000   1.0000   1.0000   1.0000   1.0000   1.0000   1.0000   1.0000
     1.0000   1.0000   1.0000   1.0000   1.0000   1.0000   1.0000   1.0000
     1.0000   1.0000   1.0000   1.0000   1.0000   1.0000   1.0000   1.0000
     1.0000   1.0000   1.0000   1.0000   1.0000   1.0000   1.0000   1.0000
     1.0000   1.0000   1.0000   1.0000   1.0000   1.0000   1.0000   1.0000
     1.0000   1.0000   1.0000   1.0000   1.0000   1.0000   1.0000   1.0000
     1.0000   1.0000   1.0000   1.0000   1.0000   1.0000   1.0000   1.0000
     1.0000   1.0000   1.0000   1.0000   1.0000   1.0000   1.0000   1.0000
     1.0000   1.0000   1.0000   1.0000   1.0000   1.0000   1.0000   1.0000
     1.0000   1.0000   1.0000   1.0000   1.0000   1.0000   1.0000   1.0000
     1.0000   1.0000   1.0000   1.0000   1.0000   1.0000   1.0000   1.0000
     1.0000   1.0000   1.0000   1.0000   1.0000   1.0000   1.0000   1.0000
     1.0000   1.0000   1.0000   1.0000   1.0000   1.0000   1.0000   1.0000
     1.0000   1.0000   1.0000   1.0000   1.0000   1.0000   1.0000   1.0000
     1.0000   1.0000   1.0000   1.0000   1.0000   1.0000   1.0000   1.0000
     1.0000   1.0000   1.0000   1.0000   1.0000   1.0000   1.0000   1.0000
     1.0000   1.0000   1.0000   1.0000   1.0000   1.0000   1.0000   1.0000
     1.0000   1.0000   1.0000   1.0000   1.0000   1.0000   1.0000   1.0000
     1.0000   1.0000   1.0000   1.0000   1.0000   1.0000   1.0000   1.0000
     1.0000   1.0000   1.0000   1.0000   1.0000   1.0000   1.0000   1.0000
     1.0000   1.0000   1.0000   1.0000   1.0000   1.0000   1.0000   1.0000
     1.0000   1.0000   1.0000   1.0000   1.0000   1.0000   1.0000   1.0000
     1.0000   1.0000   1.0000   1.0000   1.0000   1.0000   1.0000   1.0000
     1.0000   1.0000   1.0000   1.0000   1.0000   1.0000   1.0000   1.0000
     1.0000   1.0000   1.0000   1.0000   1.0000   1.0000   1.0000   1.0000
     1.0000   1.0000   1.0000   1.0000   1.0000   1.0000   1.0000   1.0000
     1.0000   1.0000   1.0000   1.0000   1.0000   1.0000   1.0000   1.0000
     1.0000   1.0000   1.0000   1.0000   1.0000   1.0000   1.0000   1.0000
     1.0000   1.0000   1.0000   1.0000   1.0000   1.0000   1.0000   1.0000
     1.0000   1.0000   1.0000   1.0000   1.0000   1.0000   1.0000   1.0000
     1.0000   1.0000   1.0000   1.0000   1.0000   1.0000   1.0000   1.0000
     1.0000   1.0000   1.0000   1.0000   1.0000   1.0000   1.0000   1.0000
     1.0000   1.0000   1.0000   1.0000   1.0000   1.0000   1.0000   1.0000
     1.0000   1.0000   1.0000   1.0000   1.0000   1.0000   1.0000   1.0000
     1.0000   1.0000   1.0000   1.0000   1.0000   1.0000   1.0000   1.0000
     1.0000   1.0000   1.0000   1.0000   1.0000   1.0000   1.0000   1.0000
     1.0000   1.0000   1.0000   1.0000   1.0000   1.0000   1.0000   1.0000
     1.0000   1.0000   1.0000   1.0000   1.0000   1.0000   1.0000   1.0000
     1.0000   1.0000   1.0000   1.0000   1.0000   1.0000   1.0000   1.0000
     1.0000   1.0000   1.0000   1.0000   1.0000   1.0000   1.0000   1.0000
     1.0000   1.0000   1.0000   1.0000   1.0000   1.0000   1.0000   1.0000
     1.0000   1.0000   1.0000   1.0000   1.0000   1.0000   1.0000   1.0000
     1.0000   1.0000   1.0000   1.0000   1.0000   1.0000   1.0000   1.0000
     1.0000   1.0000   1.0000   1.0000   1.0000   1.0000   1.0000   1.0000
     1.0000   1.0000   1.0000   1.0000   1.0000   1.0000   1.0000   1.0000
     1.0000   1.0000   1.0000   1.0000   1.0000   1.0000   1.0000   1.0000
     1.0000   1.0000   1.0000   1.0000   1.0000   1.0000   1.0000   1.0000
     1.0000   1.0000   1.0000   1.0000   1.0000   1.0000   1.0000   1.0000
     1.0000   1.0000   1.0000   1.0000   1.0000   1.0000   1.0000   1.0000
     1.0000   1.0000   1.0000   1.0000   1.0000   1.0000   1.0000   1.0000
     1.0000   1.0000   1.0000   1.0000   1.0000   1.0000   1.0000   1.0000
     1.0000   1.0686   1.0708   1.0832   1.0832   1.0341   0.7296   0.7092
     0.7022   0.6956   0.6882   0.6614   0.0000   0.0000   0.0000   0.0000
     0.0000   0.0000   0.0000   0.0000   0.0000   0.0000   0.0000   0.0000
     0.0000   0.0000   0.0000   0.0000   0.0000   0.0000   0.0000   0.0000
     0.0000   0.0000   0.0000   0.0000   0.0000   0.0000   0.0000   0.0000
     0.0000   0.0000   0.0000   0.0000   0.0000   0.0000   0.0000   0.0000
     0.0000   0.0000   0.0000   0.0000   0.0000   0.0000   0.0000   0.0000
     0.0000   0.0000   0.0000   0.0000   0.0000   0.0000   0.0000   0.0000
     0.0000   0.0000   0.0000   0.0000   0.0000   0.0000   0.0000   0.0000
     0.0000   0.0000   0.0000   0.0000   0.0000   0.0000   0.0000   0.0000
     0.0000   0.0000   0.0000   0.0000   0.0000   0.0000   0.0000   0.0000
     0.0000   0.0000   0.0000   0.0000   0.0000   0.0000   0.0000   0.0000
     0.0000   0.0000   0.0000   0.0000   0.0000   0.0000   0.0000   0.0000
     0.0000   0.0000   0.0000   0.0000   0.0000   0.0000

          k =-0.5000-0.8660 0.0000 ( 64842 PWs)   bands (ev):

  -124.8079-124.7807-124.7802-124.7794-124.7790-124.7774-124.7772-124.7769
  -124.7767-124.7764-124.7758-124.7756-124.7750-124.7745-124.7734-124.7730
  -124.7730-124.7719-124.7718-124.7713-124.7703-124.7702-124.7701-124.7696
  -124.7690-124.7689-124.7686-124.7682-124.7680-124.7674-124.7671-124.7669
  -124.7669-124.7664-124.7655-124.7647-124.7645-124.7634-124.7632-124.7622
  -124.7610-124.7585-124.7579-124.7571-124.7567-124.7558-124.7553-124.7496
   -78.9617 -78.9614 -78.9555 -78.9415 -78.9408 -78.9401 -78.9396 -78.9386
   -78.9382 -78.9379 -78.9378 -78.9376 -78.9374 -78.9372 -78.9371 -78.9370
   -78.9368 -78.9368 -78.9363 -78.9362 -78.9361 -78.9355 -78.9354 -78.9352
   -78.9350 -78.9346 -78.9344 -78.9342 -78.9336 -78.9332 -78.9328 -78.9326
   -78.9318 -78.9316 -78.9315 -78.9311 -78.9299 -78.9297 -78.9289 -78.9287
   -78.9286 -78.9281 -78.9280 -78.9278 -78.9278 -78.9275 -78.9271 -78.9262
   -78.9251 -78.9246 -78.9241 -78.9234 -78.9234 -78.9231 -78.9224 -78.9215
   -78.9206 -78.9203 -78.9201 -78.9197 -78.9195 -78.9189 -78.9185 -78.9182
   -78.9176 -78.9174 -78.9171 -78.9171 -78.9170 -78.9169 -78.9166 -78.9164
   -78.9162 -78.9161 -78.9159 -78.9159 -78.9157 -78.9155 -78.9154 -78.9153
   -78.9152 -78.9151 -78.9149 -78.9148 -78.9147 -78.9146 -78.9143 -78.9141
   -78.9139 -78.9127 -78.9127 -78.9126 -78.9125 -78.9123 -78.9121 -78.9121
   -78.9118 -78.9117 -78.9115 -78.9114 -78.9112 -78.9110 -78.9109 -78.9107
   -78.9104 -78.9103 -78.9100 -78.9097 -78.9094 -78.9092 -78.9091 -78.9089
   -78.9086 -78.9085 -78.9083 -78.9082 -78.9079 -78.9072 -78.9067 -78.9065
   -78.9061 -78.9061 -78.9060 -78.9054 -78.9053 -78.9049 -78.9046 -78.9044
   -78.9042 -78.9041 -78.9037 -78.9036 -78.9035 -78.9029 -78.9026 -78.9018
   -78.9007 -78.9000 -78.8990 -78.8989 -78.8983 -78.8960 -78.8939 -78.8928
   -16.6695 -14.4114 -12.0053 -11.6325  -8.7344  -8.5495  -7.9302  -7.9165
    -7.0944  -7.0802  -6.9214  -6.9101  -6.7553  -6.6756  -6.6691  -6.5909
    -6.5878  -6.5185  -6.5131  -6.5042  -6.5019  -6.4802  -6.4796  -6.4732
    -6.4730  -6.4370  -6.4352  -6.4298  -6.4293  -6.4195  -6.4149  -6.4120
    -6.4101  -6.4073  -6.4026  -6.4013  -6.3980  -6.3978  -6.3778  -6.3720
    -6.3499  -6.3446  -6.3005  -6.2994  -6.2986  -6.2974  -6.2965  -6.2955
    -6.2914  -6.2910  -6.2722  -6.2703  -6.2690  -6.2661  -6.2648  -6.2640
    -6.2232  -6.2176  -6.1711  -6.1644  -6.1615  -6.1549  -6.1523  -6.1514
    -6.1503  -6.1485  -6.1369  -6.1340  -6.1266  -6.1233  -6.1211  -6.1205
    -6.0695  -6.0662  -6.0657  -6.0639  -6.0514  -6.0493  -6.0460  -6.0430
    -6.0378  -6.0344  -6.0230  -6.0213  -5.9703  -5.9642  -5.9633  -5.9612
    -5.9540  -5.9525  -5.9411  -5.9395  -5.9375  -5.9370  -5.9255  -5.9251
    -5.9124  -5.9123  -5.8992  -5.8962  -5.8955  -5.8945  -5.8878  -5.8878
    -5.8611  -5.8513  -5.8507  -5.8482  -5.8428  -5.8424  -5.8402  -5.8388
    -5.8381  -5.8369  -5.7864  -5.7778  -5.7674  -5.7649  -5.7550  -5.7517
    -5.7266  -5.7201  -5.7147  -5.7088  -5.6918  -5.6905  -5.6893  -5.6871
    -5.6858  -5.6841  -5.6656  -5.6626  -5.6619  -5.6612  -5.6551  -5.6546
    -5.6301  -5.6278  -5.6172  -5.6164  -5.6153  -5.6145  -5.6121  -5.6090
    -5.6051  -5.6047  -5.6040  -5.6035  -5.5793  -5.5744  -5.5738  -5.5720
    -5.5656  -5.5648  -5.5604  -5.5602  -5.5561  -5.5548  -5.5255  -5.5183
    -5.5064  -5.5027  -5.4978  -5.4935  -5.4918  -5.4914  -5.4893  -5.4865
    -5.4842  -5.4834  -5.4813  -5.4807  -5.4546  -5.4536  -5.4496  -5.4482
    -5.4326  -5.4235  -5.4200  -5.4196  -5.4166  -5.4156  -5.4121  -5.4091
    -5.4089  -5.3939  -5.3906  -5.3850  -5.3812  -5.3741  -5.3723  -5.3691
    -5.3684  -5.3623  -5.3617  -5.3604  -5.3599  -5.3590  -5.3568  -5.3455
    -5.3446  -5.3444  -5.3440  -5.3278  -5.3269  -5.3231  -5.3228  -5.3223
    -5.3213  -5.3165  -5.3159  -5.3156  -5.3152  -5.3135  -5.3132  -5.3017
    -5.3000  -5.2758  -5.2757  -5.2713  -5.2691  -5.2623  -5.2616  -5.2276
    -5.2266  -5.2254  -5.2240  -5.2187  -5.2171  -5.2163  -5.2159  -5.2111
    -5.2109  -5.2101  -5.2099  -5.1752  -5.1749  -5.1747  -5.1743  -5.1585
    -5.1560  -5.1550  -5.1548  -5.1200  -5.1193  -5.1100  -5.1095  -5.1048
    -5.1031  -5.0836  -5.0823  -5.0813  -5.0812  -5.0532  -5.0521  -4.5507
    -4.5498  -4.2245  -4.2222  -4.2163  -4.2142  -4.1642  -4.1377  -3.7622
    -3.5178  -3.5141  -3.1237  -2.9815  -2.9750  -2.9349  -2.9334  -2.9324
    -2.9305  -2.2827  -2.2601  -2.2262  -2.1166  -2.1100  -1.7866  -1.5436
    -1.5432  -1.5331  -1.5328  -1.2863  -0.6266  -0.6193  -0.6177  -0.6171
    -0.2091  -0.2048  -0.1986  -0.1971   0.0521   0.0613   0.1204   0.1498
     0.1525   1.1791   1.1894   1.2556   1.2646   1.3828   1.5293   1.5389
     1.5403   1.5454   1.5526   1.5555   2.3441   2.3517   3.0800   3.0813
     3.0840   3.0843   3.2368   3.2381   3.2453   3.2537   3.4420   3.4453
     3.6707   3.6759   3.9876   3.9904   3.9940   3.9946   4.1364   4.1427
     4.4710   4.4796   4.5509   4.5683   4.8858   4.8872   5.0578   5.0629
     5.1739   5.5752   5.6301   5.6331   5.7118   5.7317   5.9096   5.9179
     5.9272   5.9485   6.0389   6.0502   6.0576   6.0741   6.1139   6.1190
     6.1260   6.1276   6.2328   6.2443   6.2955   6.3114   6.6042   6.6392
     6.6821   6.6860   6.7257   6.7711   6.8908   6.9190   6.9624   7.0050
     7.0941   7.1012   7.2147   7.2299   7.2319   7.2355   7.5122   7.7014
     7.8032   7.8963   7.9281   8.1610   8.1911   8.2012   8.2310   8.2583
     8.3358   8.3857   8.4171   8.4600   8.5166   8.5654   8.6671   8.7436
     8.7484   8.7567   8.8554   8.8646   8.8823   8.9030   8.9525   9.0053
     9.0291   9.0803   9.1005   9.1178   9.1988   9.2258

     occupation numbers 
     1.0000   1.0000   1.0000   1.0000   1.0000   1.0000   1.0000   1.0000
     1.0000   1.0000   1.0000   1.0000   1.0000   1.0000   1.0000   1.0000
     1.0000   1.0000   1.0000   1.0000   1.0000   1.0000   1.0000   1.0000
     1.0000   1.0000   1.0000   1.0000   1.0000   1.0000   1.0000   1.0000
     1.0000   1.0000   1.0000   1.0000   1.0000   1.0000   1.0000   1.0000
     1.0000   1.0000   1.0000   1.0000   1.0000   1.0000   1.0000   1.0000
     1.0000   1.0000   1.0000   1.0000   1.0000   1.0000   1.0000   1.0000
     1.0000   1.0000   1.0000   1.0000   1.0000   1.0000   1.0000   1.0000
     1.0000   1.0000   1.0000   1.0000   1.0000   1.0000   1.0000   1.0000
     1.0000   1.0000   1.0000   1.0000   1.0000   1.0000   1.0000   1.0000
     1.0000   1.0000   1.0000   1.0000   1.0000   1.0000   1.0000   1.0000
     1.0000   1.0000   1.0000   1.0000   1.0000   1.0000   1.0000   1.0000
     1.0000   1.0000   1.0000   1.0000   1.0000   1.0000   1.0000   1.0000
     1.0000   1.0000   1.0000   1.0000   1.0000   1.0000   1.0000   1.0000
[...]
     atom    4 type  1   force =     0.00013409    0.00000103   -0.00007048
     atom    5 type  1   force =    -0.00000000   -0.00000000    0.00000000
     atom    6 type  1   force =     0.00000000    0.00000000    0.00000000
     atom    7 type  1   force =    -0.00026914   -0.00014239   -0.00004746
     atom    8 type  1   force =     0.00024359   -0.00031026   -0.00011896
     atom    9 type  1   force =    -0.00000000   -0.00000000    0.00000000
     atom   10 type  1   force =     0.00000000    0.00000000    0.00000000
     atom   11 type  1   force =     0.00001901   -0.00007651   -0.00004996
     atom   12 type  1   force =    -0.00003309    0.00005474   -0.00022779
     atom   13 type  1   force =    -0.00000000   -0.00000000    0.00000000
     atom   14 type  1   force =     0.00000000    0.00000000    0.00000000
     atom   15 type  1   force =     0.00016112    0.00008602   -0.00005065
     atom   16 type  1   force =    -0.00015129    0.00036978   -0.00015333
     atom   17 type  1   force =     0.00000000   -0.00000000    0.00000000
     atom   18 type  1   force =    -0.00000000   -0.00000000    0.00000000
     atom   19 type  1   force =     0.00014364   -0.00015235   -0.00002354
     atom   20 type  1   force =    -0.00014763    0.00016953   -0.00008526
     atom   21 type  1   force =     0.00000000    0.00000000    0.00000000
     atom   22 type  1   force =    -0.00000000   -0.00000000    0.00000000
     atom   23 type  1   force =    -0.00010265   -0.00020501   -0.00004700
     atom   24 type  1   force =     0.00014364   -0.00023806   -0.00006210
     atom   25 type  1   force =     0.00000000    0.00000000    0.00000000
     atom   26 type  1   force =    -0.00000000    0.00000000    0.00000000
     atom   27 type  1   force =    -0.00023442    0.00008281   -0.00008108
     atom   28 type  1   force =     0.00025228   -0.00008760   -0.00016577
     atom   29 type  1   force =     0.00000000    0.00000000    0.00000000
     atom   30 type  1   force =    -0.00000000    0.00000000    0.00000000
     atom   31 type  1   force =     0.00000095    0.00015927   -0.00003303
     atom   32 type  1   force =    -0.00001172    0.00029388   -0.00018697
     atom   33 type  1   force =     0.00003388   -0.00004699    0.00009709
     atom   34 type  1   force =     0.00001480    0.00015923    0.00006604
     atom   35 type  1   force =    -0.00027622   -0.00015422    0.00006224
     atom   36 type  1   force =     0.00020638   -0.00014862    0.00007552
     atom   37 type  1   force =    -0.00023077   -0.00008148    0.00006773
     atom   38 type  1   force =     0.00019360   -0.00009225   -0.00024844
     atom   39 type  1   force =     0.00006225    0.00004801    0.00010117
     atom   40 type  1   force =    -0.00006212    0.00031079   -0.00025827
     atom   41 type  1   force =     0.00015247    0.00000358    0.00015203
     atom   42 type  1   force =    -0.00018746    0.00013302   -0.00000873
     atom   43 type  1   force =     0.00018739   -0.00019977   -0.00001690
     atom   44 type  1   force =    -0.00011430   -0.00010514    0.00017581
     atom   45 type  1   force =    -0.00006942    0.00006359   -0.00019463
     atom   46 type  1   force =     0.00011654   -0.00019597    0.00000242
     atom   47 type  1   force =    -0.00003898    0.00026343   -0.00002629
     atom   48 type  1   force =     0.00005546    0.00008850   -0.00016581
     atom   49 type  3   force =    -0.00000251   -0.00000054    0.00002975
     atom   50 type  3   force =     0.00001208   -0.00004108    0.00004266
     atom   51 type  3   force =    -0.00001904    0.00000777   -0.00000710
     atom   52 type  3   force =    -0.00001750    0.00004007    0.00004215
     atom   53 type  3   force =    -0.00000389   -0.00001660   -0.00000794
     atom   54 type  3   force =    -0.00000420   -0.00000007    0.00001873
     atom   55 type  2   force =     0.00002449    0.00002105   -0.00013688
     atom   56 type  4   force =     0.00000106    0.00000633   -0.00000277
     atom   57 type  4   force =    -0.00000112    0.00000167    0.00000520
     atom   58 type  4   force =     0.00000158   -0.00000109    0.00000529
     atom   59 type  4   force =    -0.00000106   -0.00000243   -0.00000346
     atom   60 type  4   force =    -0.00000102   -0.00000014   -0.00001058
     atom   61 type  4   force =    -0.00000302    0.00000095   -0.00000363
     atom   62 type  4   force =     0.00000487   -0.00000243   -0.00000266

     DFT-D3 dispersion contribution to forces:
     atom    1 type  1   force =    -0.00000277   -0.00000751    0.00304777
     atom    2 type  1   force =     0.00000545   -0.00000352    0.00305549
     atom    3 type  1   force =    -0.00000792   -0.00000854   -0.00298294
     atom    4 type  1   force =     0.00001236    0.00003374   -0.00288012
     atom    5 type  1   force =    -0.00001464   -0.00000559    0.00304682
     atom    6 type  1   force =     0.00000644    0.00000870    0.00306414
     atom    7 type  1   force =     0.00002206    0.00004250   -0.00297579
     atom    8 type  1   force =    -0.00019885    0.00040664   -0.00224327
     atom    9 type  1   force =    -0.00000197    0.00000515    0.00302511
     atom   10 type  1   force =     0.00000519    0.00001019    0.00303985
     atom   11 type  1   force =    -0.00003250   -0.00001609   -0.00300010
     atom   12 type  1   force =     0.00005848    0.00001435   -0.00163764
     atom   13 type  1   force =    -0.00000180   -0.00000292    0.00303843
     atom   14 type  1   force =     0.00000778   -0.00000036    0.00304438
     atom   15 type  1   force =    -0.00006813   -0.00006749   -0.00295309
     atom   16 type  1   force =     0.00024693   -0.00037969   -0.00220444
     atom   17 type  1   force =     0.00000931   -0.00000177    0.00308433
     atom   18 type  1   force =    -0.00001108    0.00000633    0.00304295
     atom   19 type  1   force =    -0.00000037    0.00008115   -0.00287969
     atom   20 type  1   force =    -0.00000306   -0.00008085   -0.00286132
     atom   21 type  1   force =     0.00000345    0.00000750    0.00307308
     atom   22 type  1   force =     0.00000546   -0.00001334    0.00304121
     atom   23 type  1   force =     0.00027797    0.00037381   -0.00224061
     atom   24 type  1   force =    -0.00008425    0.00007396   -0.00289662
     atom   25 type  1   force =     0.00000427    0.00000669    0.00305411
     atom   26 type  1   force =    -0.00000580   -0.00000475    0.00304165
     atom   27 type  1   force =     0.00043963    0.00003369   -0.00221865
     atom   28 type  1   force =    -0.00046788   -0.00003156   -0.00212383
     atom   29 type  1   force =     0.00000911    0.00000312    0.00306046
     atom   30 type  1   force =    -0.00001321   -0.00000281    0.00304031
     atom   31 type  1   force =     0.00004102   -0.00005310   -0.00288271
     atom   32 type  1   force =    -0.00024588   -0.00041990   -0.00211363
     atom   33 type  1   force =    -0.00004507   -0.00002058    0.00002828
     atom   34 type  1   force =     0.00004116    0.00004104   -0.00001045
     atom   35 type  1   force =    -0.00006835    0.00002388   -0.00002238
     atom   36 type  1   force =     0.00004659    0.00009762    0.00000605
     atom   37 type  1   force =    -0.00008164   -0.00004708   -0.00002224
     atom   38 type  1   force =     0.00003988   -0.00000011    0.00002015
     atom   39 type  1   force =    -0.00005426   -0.00010068    0.00005917
     atom   40 type  1   force =     0.00003356   -0.00004211    0.00003172
     atom   41 type  1   force =     0.00001444    0.00002331   -0.00003910
     atom   42 type  1   force =    -0.00001393    0.00001945   -0.00006085
     atom   43 type  1   force =     0.00005016    0.00000520   -0.00011633
     atom   44 type  1   force =    -0.00002591    0.00005886   -0.00002734
     atom   45 type  1   force =     0.00003305    0.00000173   -0.00005097
     atom   46 type  1   force =     0.00000234   -0.00002879   -0.00004901
     atom   47 type  1   force =    -0.00002996    0.00000578   -0.00011333
     atom   48 type  1   force =     0.00005386   -0.00004085   -0.00014106
     atom   49 type  3   force =     0.00000360   -0.00000158   -0.00080702
     atom   50 type  3   force =    -0.00007115    0.00014869   -0.00021276
     atom   51 type  3   force =    -0.00009554    0.00020762   -0.00022331
     atom   52 type  3   force =     0.00007101   -0.00015651   -0.00020857
     atom   53 type  3   force =     0.00009497   -0.00020133   -0.00021205
     atom   54 type  3   force =     0.00000073    0.00000628    0.00024978
     atom   55 type  2   force =    -0.00000111   -0.00000365   -0.00181721
     atom   56 type  4   force =    -0.00001672    0.00004583   -0.00175375
     atom   57 type  4   force =     0.00000252   -0.00000833    0.00000361
     atom   58 type  4   force =    -0.00000339    0.00000994    0.00000373
     atom   59 type  4   force =     0.00000675   -0.00001114   -0.00018245
     atom   60 type  4   force =    -0.00000177   -0.00000225   -0.00009161
     atom   61 type  4   force =    -0.00000678    0.00001219   -0.00019020
     atom   62 type  4   force =     0.00002620   -0.00005017   -0.00175612

     Total force =     0.028708     Total SCF correction =     0.001477

     DFT-D3 dispersion Force =     0.016412


     Computing stress (Cartesian axis) and pressure


     negative rho (up, down):  3.976E-03 0.000E+00
          total   stress  (Ry/bohr**3)                   (kbar)     P=       -5.86
  -0.00004678   0.00000190   0.00000028           -6.88        0.28        0.04
   0.00000190  -0.00005008  -0.00000022            0.28       -7.37       -0.03
   0.00000028  -0.00000022  -0.00002268            0.04       -0.03       -3.34

     kinetic stress (kbar)  12902.25     26.07     -0.90
                               26.07  12857.80     -0.32
                               -0.90     -0.32  12913.71

     local   stress (kbar)**********    663.48     -7.75
                              663.48**********    -15.18
                               -7.75    -15.181207329.10

     nonloc. stress (kbar)  -1219.51     -1.84      0.05
                               -1.84  -1216.38      0.00
                                0.05      0.00  -1255.70

     hartree stress (kbar) 624294.14   -248.07      1.46
                             -248.07 624706.45      6.21
                                1.46      6.21-567696.34

     exc-cor stress (kbar)  -6317.90     -1.27      0.04
                               -1.27  -6315.74      0.02
                                0.04      0.02  -6323.85

     corecor stress (kbar)    -68.39      0.38     -0.01
                                0.38    -69.04     -0.00
                               -0.01     -0.00    -69.20

     ewald   stress (kbar) 565335.44   -438.46      7.15
                             -438.46 566071.06      9.23
                                7.15      9.23-644896.21

     hubbard stress (kbar)      0.00      0.00      0.00
                                0.00      0.00      0.00
                                0.00      0.00      0.00

     DFT-D   stress (kbar)    -10.45     -0.00      0.00
                               -0.00    -10.44     -0.00
                                0.00     -0.00     -4.85

     XDM     stress (kbar)      0.00      0.00      0.00
                                0.00      0.00      0.00
                                0.00      0.00      0.00

     dft-nl  stress (kbar)      0.00      0.00      0.00
                                0.00      0.00      0.00
                                0.00      0.00      0.00

     TS-vdW  stress (kbar)      0.00      0.00      0.00
                                0.00      0.00      0.00
                                0.00      0.00      0.00

     MDB     stress (kbar)      0.00      0.00      0.00
                                0.00      0.00      0.00
                                0.00      0.00      0.00

     3D-RISM stress (kbar)      0.00      0.00      0.00
                                0.00      0.00      0.00
                                0.00      0.00      0.00

     Energy error            =      8.0E-04 Ry
     Gradient error          =      9.8E-03 Ry/Bohr

     number of scf cycles    =  11
     number of bfgs steps    =  10

     energy             old  =  -22294.0207918608 Ry
     energy             new  =  -22294.0215872286 Ry

     CASE: energy            _new < energy            _old

     new trust radius        =       0.0687155228 bohr
     new conv_thr            =       0.0000000985 Ry


ATOMIC_POSITIONS (angstrom)
Zn               0.0000000000        1.5094010000        1.2182900000    0   0   0
Zn               5.2287200000        1.5094010000        1.2182900000    0   0   0
Zn               0.0002640120        1.5084278076        6.0007501552
Zn               5.2277218855        1.5117951902        6.0040775389
Zn              -1.3071800000        3.7735030000        1.2182900000    0   0   0
Zn               3.9215400000        3.7735030000        1.2182900000    0   0   0
Zn              -1.3114123687        3.7733208971        6.0003224100
Zn               3.9186446980        3.7776044197        6.0104448157
Zn              -2.6143600000        6.0376050000        1.2182900000    0   0   0
Zn               2.6143600000        6.0376050000        1.2182900000    0   0   0
Zn              -2.6175908662        6.0364931017        5.9991906236
Zn               2.6170017340        6.0351341820        5.9746597123
Zn              -3.9215400000        8.3017080000        1.2182900000    0   0   0
Zn               1.3071800000        8.3017080000        1.2182900000    0   0   0
Zn              -3.9215370745        8.2989668580        6.0020165281
Zn               1.3083966985        8.2968130406        6.0115589766
Zn               2.6143600000        1.5094010000        1.2182900000    0   0   0
Zn               7.8430800000        1.5094010000        1.2182900000    0   0   0
Zn               2.6121209433        1.5084025634        6.0023644575
Zn               7.8433355856        1.5124583561        6.0055037573
Zn               1.3071800000        3.7735030000        1.2182900000    0   0   0
Zn               6.5359000000        3.7735030000        1.2182900000    0   0   0
Zn               1.3096317059        3.7758150938        6.0381467669
Zn               6.5367257032        3.7753971778        6.0035854090
Zn               0.0000000000        6.0376050000        1.2182900000    0   0   0
Zn               5.2287200000        6.0376050000        1.2182900000    0   0   0
Zn               0.0008161286        6.0352508666        6.0452042663
Zn               5.2292156024        6.0361620147        6.0554457708
Zn              -1.3071800000        8.3017080000        1.2182900000    0   0   0
Zn               3.9215400000        8.3017080000        1.2182900000    0   0   0
Zn              -1.3124348528        8.2993564075        6.0020202837
Zn               3.9233052477        8.2988747289        6.0476084826
Zn               1.3051473982        0.7490347194        3.5997776216
Zn               6.5391322580        0.7587279376        3.5947946210
Zn              -0.0077424668        3.0174025902        3.6052182770
Zn               5.2331040525        3.0275951473        3.5960694349
Zn              -1.3201769136        5.2798674192        3.6073058781
Zn               3.9297770049        5.2813947451        3.5927154564
Zn              -2.6210875278        7.5386701460        3.6032016881
Zn               2.6184861883        7.5457007381        3.5922661821
Zn               3.9191937022        0.7546334160        3.5888282109
Zn               9.1488381550        0.7543994906        3.6012196050
Zn               2.6169715549        3.0250341355        3.5900403063
Zn               7.8411488300        3.0271375965        3.5941890025
Zn               1.3088011944        5.2818660128        3.5919528536
Zn               6.5352399597        5.2813663990        3.6048479384
Zn              -0.0009543866        7.5410048526        3.5922316480
Zn               5.2287269806        7.5370283483        3.6029133972
C                2.7194238486        6.1311862340       10.9319457166
C                2.2180864837        7.2558285854       13.0410640388
C                2.2038259925        7.2363772630       11.6439130956
C                3.2384527048        5.0572586275       13.0630560275
C                3.2227124070        5.0376641537       11.6664755424
C                2.7297042191        6.1654474449       13.7626980453
N                2.7194742749        6.1191719510        9.5556013794
H                3.0524446989        5.3174789062        9.0395885901
H                1.8171460732        8.1393809763       13.5672153695
H                3.6411972647        4.1865204451       13.6077651511
H                3.6177105721        4.1769315778       11.1184544112
H                2.7382173576        6.1804643370       14.8575297108
H                1.8124274466        8.0861194612       11.0788438690
H                2.3306136192        6.8823690085        9.0246403135



     Writing config-only to output data dir ./tmp/Zn002_3layer_aniline_relax.save/ :
     XML data file
     NEW-OLD atomic charge density approx. for the potential

     negative rho (up, down):  4.011E-03 0.000E+00

     total cpu time spent up to now is    10655.7 secs

     Self-consistent Calculation

     iteration #  1     ecut=    40.00 Ry     beta= 0.40
     Davidson diagonalization with overlap

---- Real-time Memory Report at c_bands before calling an iterative solver
           638 MiB given to the printing process from OS
             0 MiB allocation reported by mallinfo(arena+hblkhd)
        178407 MiB available memory on the node where the printing process lives
------------------
     ethr =  1.00E-06,  avg # of iterations = 10.5

     negative rho (up, down):  4.051E-03 0.000E+00

     total cpu time spent up to now is    10849.6 secs

     total energy              =  -22294.02204105 Ry
     estimated scf accuracy    <       0.00180055 Ry

     iteration #  2     ecut=    40.00 Ry     beta= 0.40
     Davidson diagonalization with overlap

---- Real-time Memory Report at c_bands before calling an iterative solver
           638 MiB given to the printing process from OS
             0 MiB allocation reported by mallinfo(arena+hblkhd)
        178349 MiB available memory on the node where the printing process lives
------------------
     ethr =  1.81E-07,  avg # of iterations =  8.2

     negative rho (up, down):  4.122E-03 0.000E+00

     total cpu time spent up to now is    10924.8 secs

     total energy              =  -22294.02111295 Ry
     estimated scf accuracy    <       0.02425072 Ry

     iteration #  3     ecut=    40.00 Ry     beta= 0.40
     Davidson diagonalization with overlap

---- Real-time Memory Report at c_bands before calling an iterative solver
           638 MiB given to the printing process from OS
             0 MiB allocation reported by mallinfo(arena+hblkhd)
        178330 MiB available memory on the node where the printing process lives
------------------
     ethr =  1.81E-07,  avg # of iterations =  3.0

     negative rho (up, down):  4.147E-03 0.000E+00

     total cpu time spent up to now is    10993.8 secs

     total energy              =  -22294.02226915 Ry
     estimated scf accuracy    <       0.00153910 Ry

     iteration #  4     ecut=    40.00 Ry     beta= 0.40
     Davidson diagonalization with overlap

---- Real-time Memory Report at c_bands before calling an iterative solver
           638 MiB given to the printing process from OS
             0 MiB allocation reported by mallinfo(arena+hblkhd)
        178311 MiB available memory on the node where the printing process lives
------------------
