--------------------------------------------------------------------------
By default, for Open MPI 4.0 and later, infiniband ports on a device
are not used by default.  The intent is to use UCX for these devices.
You can override this policy by setting the btl_openib_allow_ib MCA parameter
to true.

  Local host:              psid01
  Local adapter:           mlx5_0
  Local port:              1

--------------------------------------------------------------------------
--------------------------------------------------------------------------
WARNING: There was an error initializing an OpenFabrics device.

  Local host:   psid01
  Local device: mlx5_0
--------------------------------------------------------------------------

     Program PWSCF v.7.3.1 starts on 26Mar2025 at 19:29:34 

     This program is part of the open-source Quantum ESPRESSO suite
     for quantum simulation of materials; please cite
         "P. Giannozzi et al., J. Phys.:Condens. Matter 21 395502 (2009);
         "P. Giannozzi et al., J. Phys.:Condens. Matter 29 465901 (2017);
         "P. Giannozzi et al., J. Chem. Phys. 152 154105 (2020);
          URL http://www.quantum-espresso.org", 
     in publications or presentations arising from this work. More details at
     http://www.quantum-espresso.org/quote

     Parallel version (MPI), running on    33 processors

     MPI processes distributed on     1 nodes
     30279 MiB available memory on the printing compute node when the environment starts

     Waiting for input...
     Reading input from standard input

     Current dimensions of program PWSCF are:
     Max number of different atomic species (ntypx) = 10
     Max number of k-points (npk) =  40000
     Max angular momentum in pseudopotentials (lmaxx) =  4
     Found identity + ( -0.5000  0.0000  0.0000) symmetry
     This is a supercell, fractional translations are disabled

     R & G space division:  proc/nbgrp/npool/nimage =      33
     Subspace diagonalization in iterative solution of the eigenvalue problem:
     one sub-group per band group will be used
     custom distributed-memory algorithm (size of sub-group:  5*  5 procs)


     Parallelization info
     --------------------
     sticks:   dense  smooth     PW     G-vecs:    dense   smooth      PW
     Min         228     130     36                36393    15714    2270
     Max         230     131     37                36401    15723    2280
     Sum        7555    4303   1189              1201061   518755   75035

     Using Slab Decomposition



     bravais-lattice index     =            0
     lattice parameter (alat)  =      19.7617  a.u.
     unit-cell volume          =   15176.5939 (a.u.)^3
     number of atoms/cell      =           48
     number of atomic types    =            1
     number of electrons       =       960.00
     number of Kohn-Sham states=          576
     kinetic-energy cutoff     =      40.0000  Ry
     charge density cutoff     =     280.0000  Ry
     scf convergence threshold =      1.0E-03
     mixing beta               =       0.4000
     number of iterations used =            8  plain     mixing
     Exchange-correlation= SLA  PW   PBE  PBE
                           (   1   4   3   4   0   0   0)

     celldm(1)=  19.761696  celldm(2)=   0.000000  celldm(3)=   0.000000
     celldm(4)=   0.000000  celldm(5)=   0.000000  celldm(6)=   0.000000

     crystal axes: (cart. coord. in units of alat)
               a(1) = (   1.000000   0.000000   0.000000 )  
               a(2) = (  -0.500000   0.866025   0.000000 )  
               a(3) = (   0.000000   0.000000   2.270759 )  

     reciprocal axes: (cart. coord. in units 2 pi/alat)
               b(1) = (  1.000000  0.577350 -0.000000 )  
               b(2) = (  0.000000  1.154701  0.000000 )  
               b(3) = (  0.000000 -0.000000  0.440381 )  


     PseudoPot. # 1 for Zn read from file:
     /home/ys/qepseudo/SSSP_1.3.0_PBE_efficiency/Zn_pbe_v1.uspp.F.UPF
     MD5 check sum: df62231357ef9e81f77b2b3087fa5675
     Pseudo is Ultrasoft, Zval = 20.0
     Generated by new atomic code, or converted to UPF format
     Using radial grid of  943 points,  6 beta functions with: 
                l(1) =   0
                l(2) =   0
                l(3) =   1
                l(4) =   1
                l(5) =   2
                l(6) =   2
     Q(r) pseudized with  8 coefficients,  rinner =    1.100   1.100   1.100
                                                       1.100   1.100

     atomic species   valence    mass     pseudopotential
     Zn               20.00    65.38000     Zn( 1.00)

     No symmetry found


                                    s                        frac. trans.

      isym =  1     identity                                     

 cryst.   s( 1) = (     1          0          0      )
                  (     0          1          0      )
                  (     0          0          1      )

 cart.    s( 1) = (  1.0000000  0.0000000  0.0000000 )
                  (  0.0000000  1.0000000  0.0000000 )
                  (  0.0000000  0.0000000  1.0000000 )


   Cartesian axes

     site n.     atom                  positions (alat units)
         1        Zn     tau(   1) = (   0.0000000   0.1443375   0.1164998  )
         2        Zn     tau(   2) = (   0.5000000   0.1443375   0.1164998  )
         3        Zn     tau(   3) = (   0.0000000   0.1443375   0.5824993  )
         4        Zn     tau(   4) = (   0.5000000   0.1443375   0.5824993  )
         5        Zn     tau(   5) = (  -0.1250000   0.3608439   0.1164998  )
         6        Zn     tau(   6) = (   0.3750000   0.3608439   0.1164998  )
         7        Zn     tau(   7) = (  -0.1250000   0.3608439   0.5824993  )
         8        Zn     tau(   8) = (   0.3750000   0.3608439   0.5824993  )
         9        Zn     tau(   9) = (  -0.2500000   0.5773502   0.1164998  )
        10        Zn     tau(  10) = (   0.2500000   0.5773502   0.1164998  )
        11        Zn     tau(  11) = (  -0.2500000   0.5773502   0.5824993  )
        12        Zn     tau(  12) = (   0.2500000   0.5773502   0.5824993  )
        13        Zn     tau(  13) = (  -0.3750000   0.7938567   0.1164998  )
        14        Zn     tau(  14) = (   0.1250000   0.7938567   0.1164998  )
        15        Zn     tau(  15) = (  -0.3750000   0.7938567   0.5824993  )
        16        Zn     tau(  16) = (   0.1250000   0.7938567   0.5824993  )
        17        Zn     tau(  17) = (   0.2500000   0.1443375   0.1164998  )
        18        Zn     tau(  18) = (   0.7500000   0.1443375   0.1164998  )
        19        Zn     tau(  19) = (   0.2500000   0.1443375   0.5824993  )
        20        Zn     tau(  20) = (   0.7500000   0.1443375   0.5824993  )
        21        Zn     tau(  21) = (   0.1250000   0.3608439   0.1164998  )
        22        Zn     tau(  22) = (   0.6250000   0.3608439   0.1164998  )
        23        Zn     tau(  23) = (   0.1250000   0.3608439   0.5824993  )
        24        Zn     tau(  24) = (   0.6250000   0.3608439   0.5824993  )
        25        Zn     tau(  25) = (   0.0000000   0.5773502   0.1164998  )
        26        Zn     tau(  26) = (   0.5000000   0.5773502   0.1164998  )
        27        Zn     tau(  27) = (   0.0000000   0.5773502   0.5824993  )
        28        Zn     tau(  28) = (   0.5000000   0.5773502   0.5824993  )
        29        Zn     tau(  29) = (  -0.1250000   0.7938567   0.1164998  )
        30        Zn     tau(  30) = (   0.3750000   0.7938567   0.1164998  )
        31        Zn     tau(  31) = (  -0.1250000   0.7938567   0.5824993  )
        32        Zn     tau(  32) = (   0.3750000   0.7938567   0.5824993  )
        33        Zn     tau(  33) = (   0.1250000   0.0721688   0.3494996  )
        34        Zn     tau(  34) = (   0.6250000   0.0721688   0.3494996  )
        35        Zn     tau(  35) = (   0.0000000   0.2886752   0.3494996  )
        36        Zn     tau(  36) = (   0.5000000   0.2886752   0.3494996  )
        37        Zn     tau(  37) = (  -0.1250000   0.5051815   0.3494996  )
        38        Zn     tau(  38) = (   0.3750000   0.5051815   0.3494996  )
        39        Zn     tau(  39) = (  -0.2500000   0.7216879   0.3494996  )
        40        Zn     tau(  40) = (   0.2500000   0.7216879   0.3494996  )
        41        Zn     tau(  41) = (   0.3750000   0.0721688   0.3494996  )
        42        Zn     tau(  42) = (   0.8750000   0.0721688   0.3494996  )
        43        Zn     tau(  43) = (   0.2500000   0.2886752   0.3494996  )
        44        Zn     tau(  44) = (   0.7500000   0.2886752   0.3494996  )
        45        Zn     tau(  45) = (   0.1250000   0.5051815   0.3494996  )
        46        Zn     tau(  46) = (   0.6250000   0.5051815   0.3494996  )
        47        Zn     tau(  47) = (   0.0000000   0.7216879   0.3494996  )
        48        Zn     tau(  48) = (   0.5000000   0.7216879   0.3494996  )

   Crystallographic axes

     site n.     atom                  positions (cryst. coord.)
         1        Zn     tau(   1) = (  0.0833333  0.1666666  0.0513044  )
         2        Zn     tau(   2) = (  0.5833333  0.1666666  0.0513044  )
         3        Zn     tau(   3) = (  0.0833333  0.1666666  0.2565219  )
         4        Zn     tau(   4) = (  0.5833333  0.1666666  0.2565219  )
         5        Zn     tau(   5) = (  0.0833333  0.4166666  0.0513044  )
         6        Zn     tau(   6) = (  0.5833333  0.4166666  0.0513044  )
         7        Zn     tau(   7) = (  0.0833333  0.4166666  0.2565219  )
         8        Zn     tau(   8) = (  0.5833333  0.4166666  0.2565219  )
         9        Zn     tau(   9) = (  0.0833333  0.6666666  0.0513044  )
        10        Zn     tau(  10) = (  0.5833333  0.6666666  0.0513044  )
        11        Zn     tau(  11) = (  0.0833333  0.6666666  0.2565219  )
        12        Zn     tau(  12) = (  0.5833333  0.6666666  0.2565219  )
        13        Zn     tau(  13) = (  0.0833333  0.9166667  0.0513044  )
        14        Zn     tau(  14) = (  0.5833334  0.9166667  0.0513044  )
        15        Zn     tau(  15) = (  0.0833333  0.9166667  0.2565219  )
        16        Zn     tau(  16) = (  0.5833334  0.9166667  0.2565219  )
        17        Zn     tau(  17) = (  0.3333333  0.1666666  0.0513044  )
        18        Zn     tau(  18) = (  0.8333334  0.1666666  0.0513044  )
        19        Zn     tau(  19) = (  0.3333333  0.1666666  0.2565219  )
        20        Zn     tau(  20) = (  0.8333334  0.1666666  0.2565219  )
        21        Zn     tau(  21) = (  0.3333333  0.4166666  0.0513044  )
        22        Zn     tau(  22) = (  0.8333333  0.4166666  0.0513044  )
        23        Zn     tau(  23) = (  0.3333333  0.4166666  0.2565219  )
        24        Zn     tau(  24) = (  0.8333333  0.4166666  0.2565219  )
        25        Zn     tau(  25) = (  0.3333333  0.6666666  0.0513044  )
        26        Zn     tau(  26) = (  0.8333333  0.6666666  0.0513044  )
        27        Zn     tau(  27) = (  0.3333333  0.6666666  0.2565219  )
        28        Zn     tau(  28) = (  0.8333333  0.6666666  0.2565219  )
        29        Zn     tau(  29) = (  0.3333334  0.9166667  0.0513044  )
        30        Zn     tau(  30) = (  0.8333334  0.9166667  0.0513044  )
        31        Zn     tau(  31) = (  0.3333334  0.9166667  0.2565219  )
        32        Zn     tau(  32) = (  0.8333334  0.9166667  0.2565219  )
        33        Zn     tau(  33) = (  0.1666667  0.0833334  0.1539131  )
        34        Zn     tau(  34) = (  0.6666667  0.0833334  0.1539131  )
        35        Zn     tau(  35) = (  0.1666667  0.3333334  0.1539131  )
        36        Zn     tau(  36) = (  0.6666667  0.3333334  0.1539131  )
        37        Zn     tau(  37) = (  0.1666667  0.5833334  0.1539131  )
        38        Zn     tau(  38) = (  0.6666667  0.5833334  0.1539131  )
        39        Zn     tau(  39) = (  0.1666667  0.8333334  0.1539131  )
        40        Zn     tau(  40) = (  0.6666667  0.8333334  0.1539131  )
        41        Zn     tau(  41) = (  0.4166667  0.0833334  0.1539131  )
        42        Zn     tau(  42) = (  0.9166667  0.0833334  0.1539131  )
        43        Zn     tau(  43) = (  0.4166667  0.3333334  0.1539131  )
        44        Zn     tau(  44) = (  0.9166667  0.3333334  0.1539131  )
        45        Zn     tau(  45) = (  0.4166667  0.5833334  0.1539131  )
        46        Zn     tau(  46) = (  0.9166667  0.5833334  0.1539131  )
        47        Zn     tau(  47) = (  0.4166667  0.8333334  0.1539131  )
        48        Zn     tau(  48) = (  0.9166667  0.8333334  0.1539131  )

     number of k points=    10  Marzari-Vanderbilt smearing, width (Ry)=  0.0200
                       cart. coord. in units 2pi/alat
        k(    1) = (   0.0000000   0.0000000   0.0000000), wk =   0.1250000
        k(    2) = (   0.0000000   0.2886751   0.0000000), wk =   0.2500000
        k(    3) = (   0.0000000  -0.5773503   0.0000000), wk =   0.1250000
        k(    4) = (   0.2500000   0.1443376   0.0000000), wk =   0.2500000
        k(    5) = (   0.2500000   0.4330127   0.0000000), wk =   0.2500000
        k(    6) = (   0.2500000  -0.4330127   0.0000000), wk =   0.2500000
        k(    7) = (   0.2500000  -0.1443376   0.0000000), wk =   0.2500000
        k(    8) = (  -0.5000000  -0.2886751   0.0000000), wk =   0.1250000
        k(    9) = (  -0.5000000   0.0000000   0.0000000), wk =   0.2500000
        k(   10) = (  -0.5000000  -0.8660254   0.0000000), wk =   0.1250000

                       cryst. coord.
        k(    1) = (   0.0000000   0.0000000   0.0000000), wk =   0.1250000
        k(    2) = (   0.0000000   0.2500000   0.0000000), wk =   0.2500000
        k(    3) = (   0.0000000  -0.5000000   0.0000000), wk =   0.1250000
        k(    4) = (   0.2500000   0.0000000   0.0000000), wk =   0.2500000
        k(    5) = (   0.2500000   0.2500000   0.0000000), wk =   0.2500000
        k(    6) = (   0.2500000  -0.5000000   0.0000000), wk =   0.2500000
        k(    7) = (   0.2500000  -0.2500000   0.0000000), wk =   0.2500000
        k(    8) = (  -0.5000000   0.0000000   0.0000000), wk =   0.1250000
        k(    9) = (  -0.5000000   0.2500000   0.0000000), wk =   0.2500000
        k(   10) = (  -0.5000000  -0.5000000   0.0000000), wk =   0.1250000

     Dense  grid:  1201061 G-vectors     FFT dimensions: ( 108, 108, 240)

     Smooth grid:   518755 G-vectors     FFT dimensions: (  80,  80, 192)

     Dynamical RAM for                 wfc:      17.26 MB

     Dynamical RAM for     wfc (w. buffer):     189.88 MB

     Dynamical RAM for           str. fact:       0.56 MB

     Dynamical RAM for           local pot:       0.00 MB

     Dynamical RAM for          nlocal pot:      25.89 MB

     Dynamical RAM for                qrad:       1.34 MB

     Dynamical RAM for          rho,v,vnew:       3.80 MB

     Dynamical RAM for               rhoin:       1.27 MB

     Dynamical RAM for            rho*nmix:       8.89 MB

     Dynamical RAM for           G-vectors:       2.20 MB

     Dynamical RAM for          h,s,v(r/c):       2.42 MB

     Dynamical RAM for          <psi|beta>:       7.59 MB

     Dynamical RAM for                 psi:      34.52 MB

     Dynamical RAM for                hpsi:      34.52 MB

     Dynamical RAM for                spsi:      34.52 MB

     Dynamical RAM for      wfcinit/wfcrot:      46.32 MB

     Dynamical RAM for           addusdens:     129.95 MB

     Estimated static dynamical RAM per process >     229.61 MB

     Estimated max dynamical RAM per process >     368.45 MB

     Estimated total dynamical RAM >      11.87 GB

     Initial potential from superposition of free atoms

     starting charge     959.9932, renormalised to     960.0000

     negative rho (up, down):  4.194E-03 0.000E+00
     Starting wfcs are  624 randomized atomic wfcs
[psid01:19409] 32 more processes have sent help message help-mpi-btl-openib.txt / ib port not selected
[psid01:19409] Set MCA parameter "orte_base_help_aggregate" to 0 to see all help / error messages
[psid01:19409] 32 more processes have sent help message help-mpi-btl-openib.txt / error in device init

     total cpu time spent up to now is      115.5 secs

     Self-consistent Calculation

     iteration #  1     ecut=    40.00 Ry     beta= 0.40
     Davidson diagonalization with overlap

---- Real-time Memory Report at c_bands before calling an iterative solver
           298 MiB given to the printing process from OS
             0 MiB allocation reported by mallinfo(arena+hblkhd)
         22246 MiB available memory on the node where the printing process lives
------------------
     ethr =  1.00E-02,  avg # of iterations =  9.4

     Threshold (ethr) on eigenvalues was too large:
     Diagonalizing with lowered threshold

     Davidson diagonalization with overlap

---- Real-time Memory Report at c_bands before calling an iterative solver
           391 MiB given to the printing process from OS
             0 MiB allocation reported by mallinfo(arena+hblkhd)
         21117 MiB available memory on the node where the printing process lives
------------------
     ethr =  1.61E-04,  avg # of iterations = 11.2

     negative rho (up, down):  4.980E-03 0.000E+00

     total cpu time spent up to now is     1482.9 secs

     total energy              =  -22153.85661463 Ry
     estimated scf accuracy    <       1.57417206 Ry

     iteration #  2     ecut=    40.00 Ry     beta= 0.40
     Davidson diagonalization with overlap

---- Real-time Memory Report at c_bands before calling an iterative solver
           401 MiB given to the printing process from OS
             0 MiB allocation reported by mallinfo(arena+hblkhd)
         21009 MiB available memory on the node where the printing process lives
------------------
     ethr =  1.64E-04,  avg # of iterations =  2.6

     negative rho (up, down):  5.513E-03 0.000E+00

     total cpu time spent up to now is     2229.8 secs

     total energy              =  -22154.23559656 Ry
     estimated scf accuracy    <       0.27638786 Ry

     iteration #  3     ecut=    40.00 Ry     beta= 0.40
     Davidson diagonalization with overlap

---- Real-time Memory Report at c_bands before calling an iterative solver
           403 MiB given to the printing process from OS
             0 MiB allocation reported by mallinfo(arena+hblkhd)
         20999 MiB available memory on the node where the printing process lives
------------------
     c_bands:  1 eigenvalues not converged
     ethr =  2.88E-05,  avg # of iterations =  8.3

     negative rho (up, down):  5.934E-03 0.000E+00

     total cpu time spent up to now is     2918.9 secs

     total energy              =  -22154.25252774 Ry
     estimated scf accuracy    <       0.04708202 Ry

     iteration #  4     ecut=    40.00 Ry     beta= 0.40
     Davidson diagonalization with overlap

---- Real-time Memory Report at c_bands before calling an iterative solver
           404 MiB given to the printing process from OS
             0 MiB allocation reported by mallinfo(arena+hblkhd)
         20979 MiB available memory on the node where the printing process lives
------------------
     ethr =  4.90E-06,  avg # of iterations =  9.0

     negative rho (up, down):  5.968E-03 0.000E+00

     total cpu time spent up to now is     3630.4 secs

     total energy              =  -22154.25387490 Ry
     estimated scf accuracy    <       0.01465593 Ry

     iteration #  5     ecut=    40.00 Ry     beta= 0.40
     Davidson diagonalization with overlap

---- Real-time Memory Report at c_bands before calling an iterative solver
           405 MiB given to the printing process from OS
             0 MiB allocation reported by mallinfo(arena+hblkhd)
         20964 MiB available memory on the node where the printing process lives
------------------
     ethr =  1.53E-06,  avg # of iterations =  5.5

     negative rho (up, down):  6.011E-03 0.000E+00

     total cpu time spent up to now is     4313.8 secs

     total energy              =  -22154.25490911 Ry
     estimated scf accuracy    <       0.00217902 Ry

     iteration #  6     ecut=    40.00 Ry     beta= 0.40
     Davidson diagonalization with overlap

---- Real-time Memory Report at c_bands before calling an iterative solver
           405 MiB given to the printing process from OS
             0 MiB allocation reported by mallinfo(arena+hblkhd)
         20949 MiB available memory on the node where the printing process lives
------------------
     ethr =  2.27E-07,  avg # of iterations =  2.0

     negative rho (up, down):  6.109E-03 0.000E+00

     total cpu time spent up to now is     5063.5 secs

     End of self-consistent calculation

          k = 0.0000 0.0000 0.0000 ( 64855 PWs)   bands (ev):

  -125.0708-125.0692-125.0691-125.0691-125.0691-125.0691-125.0691-125.0674
  -125.0674-125.0674-125.0674-125.0673-125.0673-125.0673-125.0673-125.0673
  -124.8620-124.8603-124.8603-124.8603-124.8603-124.8602-124.8602-124.8586
  -124.8586-124.8586-124.8586-124.8585-124.8585-124.8585-124.8585-124.8584
  -124.8577-124.8561-124.8560-124.8560-124.8560-124.8560-124.8560-124.8543
  -124.8543-124.8543-124.8543-124.8543-124.8542-124.8542-124.8542-124.8542
   -79.2368 -79.2368 -79.2368 -79.2302 -79.2302 -79.2302 -79.2301 -79.2301
   -79.2301 -79.2194 -79.2188 -79.2188 -79.2188 -79.2188 -79.2188 -79.2188
   -79.2175 -79.2175 -79.2174 -79.2174 -79.2174 -79.2174 -79.2168 -79.2168
   -79.2168 -79.2168 -79.2168 -79.2167 -79.2155 -79.2155 -79.2155 -79.2154
   -79.2154 -79.2154 -79.2154 -79.2154 -79.2154 -79.2102 -79.2102 -79.2102
   -79.2055 -79.2055 -79.2055 -79.2054 -79.2054 -79.2054 -79.2007 -79.2007
   -79.0247 -79.0247 -79.0247 -79.0205 -79.0205 -79.0204 -79.0193 -79.0181
   -79.0181 -79.0181 -79.0181 -79.0180 -79.0180 -79.0175 -79.0174 -79.0174
   -79.0174 -79.0174 -79.0173 -79.0156 -79.0156 -79.0156 -79.0155 -79.0155
   -79.0155 -79.0155 -79.0154 -79.0154 -79.0150 -79.0139 -79.0138 -79.0138
   -79.0138 -79.0138 -79.0138 -79.0132 -79.0132 -79.0132 -79.0131 -79.0131
   -79.0131 -79.0113 -79.0113 -79.0113 -79.0113 -79.0113 -79.0112 -79.0112
   -79.0112 -79.0112 -79.0068 -79.0068 -79.0068 -79.0067 -79.0067 -79.0067
   -79.0048 -79.0047 -79.0047 -79.0047 -79.0047 -79.0047 -79.0025 -79.0025
   -79.0025 -79.0025 -79.0025 -79.0025 -79.0005 -79.0005 -79.0005 -79.0005
   -79.0005 -79.0004 -78.9981 -78.9981 -78.9981 -78.9939 -78.9939 -78.9939
   -78.9934 -78.9934 -78.9934 -78.9934 -78.9934 -78.9934 -78.9892 -78.9892
   -78.9892 -78.9892 -78.9892 -78.9891 -78.9887 -78.9887 -78.9845 -78.9845
    -8.6196  -7.3956  -7.0904  -7.0665  -7.0665  -7.0664  -7.0664  -7.0664
    -7.0664  -6.9156  -6.9155  -6.9155  -6.7237  -6.7237  -6.7237  -6.6741
    -6.6741  -6.6741  -6.5880  -6.5880  -6.5880  -6.5880  -6.5880  -6.5880
    -6.5369  -6.5369  -6.5368  -6.5368  -6.5368  -6.5368  -6.5349  -6.5349
    -6.5349  -6.4797  -6.4797  -6.4797  -6.4797  -6.4797  -6.4797  -6.4332
    -6.4332  -6.4332  -6.4332  -6.4332  -6.4332  -6.3332  -6.3332  -6.3332
    -6.3332  -6.3332  -6.3332  -6.3314  -6.3314  -6.3314  -6.2729  -6.2729
    -6.2729  -6.2729  -6.2729  -6.2729  -6.2695  -6.2097  -6.2097  -6.2097
    -6.2097  -6.2097  -6.2097  -6.1696  -6.1696  -6.1696  -6.1696  -6.1696
    -6.1696  -6.1431  -6.1431  -6.1431  -6.1431  -6.1431  -6.1430  -6.1241
    -6.1241  -6.1208  -6.1208  -6.1208  -6.1208  -6.1208  -6.1208  -6.0966
    -6.0966  -6.0966  -6.0966  -6.0966  -6.0966  -6.0949  -6.0949  -6.0949
    -5.9935  -5.9935  -5.9935  -5.9934  -5.9934  -5.9934  -5.9129  -5.9129
    -5.8934  -5.8934  -5.8620  -5.8620  -5.8620  -5.8620  -5.8620  -5.8620
    -5.8617  -5.8617  -5.8617  -5.8617  -5.8616  -5.8616  -5.8333  -5.8333
    -5.8333  -5.7801  -5.7801  -5.7801  -5.7801  -5.7800  -5.7800  -5.7735
    -5.7735  -5.7735  -5.7735  -5.7735  -5.7735  -5.7725  -5.7725  -5.7725
    -5.7725  -5.7725  -5.7725  -5.7516  -5.7516  -5.7515  -5.7515  -5.7515
    -5.7515  -5.7463  -5.7463  -5.7463  -5.7463  -5.7463  -5.7463  -5.7299
    -5.7299  -5.7299  -5.7299  -5.7299  -5.7299  -5.7132  -5.7065  -5.7065
    -5.7065  -5.7065  -5.7065  -5.7065  -5.6963  -5.6962  -5.6962  -5.6122
    -5.6122  -5.5736  -5.5736  -5.5736  -5.5736  -5.5736  -5.5736  -5.5672
    -5.5672  -5.5671  -5.5671  -5.5671  -5.5671  -5.5430  -5.5430  -5.5430
    -5.5430  -5.5429  -5.5429  -5.5262  -5.5262  -5.5262  -5.4988  -5.4988
    -5.4988  -5.4988  -5.4988  -5.4987  -5.4895  -5.4895  -5.4895  -5.4895
    -5.4895  -5.4894  -5.4428  -5.4428  -5.4428  -5.4428  -5.4428  -5.4428
    -5.4328  -5.4328  -5.4328  -5.4314  -5.4314  -5.4314  -5.3947  -5.3947
    -5.3947  -5.3889  -5.3889  -5.3888  -5.3888  -5.3888  -5.3888  -5.3804
    -5.3804  -5.3593  -5.3593  -5.3170  -5.3170  -5.3170  -5.3170  -5.3170
    -5.3169  -5.2888  -5.2888  -5.2888  -5.2888  -5.2888  -5.2888  -5.2833
    -5.2833  -5.2833  -5.0694  -5.0694  -5.0694  -5.0652  -5.0652  -5.0651
    -4.3952  -4.3952  -4.3952  -4.3952  -4.3952  -4.3952  -3.4490  -2.1011
    -2.1011  -2.1011  -2.1011  -2.1011  -2.1011  -2.0182  -2.0182  -2.0182
    -2.0182  -2.0182  -2.0181  -0.8395  -0.8395  -0.8395  -0.7109  -0.6364
    -0.6364  -0.6364  -0.6364  -0.6364  -0.6364  -0.0818  -0.0818  -0.0817
     0.2495   0.2495   0.2495   1.5389   1.5389   1.5389   1.5389   1.5389
     1.5389   1.5820   1.5820   1.5820   1.5820   1.5820   1.5820   2.3119
     2.3119   2.3119   3.1088   3.3037   3.3037   3.3037   4.1427   4.1427
     4.1427   4.8843   4.8843   4.8843   4.8843   4.8843   4.8843   5.0750
     5.2669   5.4283   5.4283   5.4283   5.4283   5.4283   5.4283   5.4367
     5.4368   5.4368   5.4368   5.4368   5.4368   5.6079   5.6079   5.6079
     5.6079   5.6080   5.6080   6.2004   6.3992   6.5626   6.5626   6.5626
     6.8736   6.8736   6.8736   6.8736   6.8736   6.8736   7.0140   7.0140
     7.0140   7.0140   7.0140   7.0141   7.1029   7.1029   7.1029   7.1029
     7.1029   7.1029   7.1922   7.1922   7.1922   7.1922   7.1923   7.1923
     8.0393   8.0394   8.0394   8.0394   8.0394   8.0394   8.1453   8.1453
     8.1453   8.1453   8.1453   8.1453   8.1867   8.1868   8.1868   8.1868
     8.1868   8.1868   8.2079   8.3667   8.3778   8.3778   8.3778   9.2856

     occupation numbers 
     1.0000   1.0000   1.0000   1.0000   1.0000   1.0000   1.0000   1.0000
     1.0000   1.0000   1.0000   1.0000   1.0000   1.0000   1.0000   1.0000
     1.0000   1.0000   1.0000   1.0000   1.0000   1.0000   1.0000   1.0000
     1.0000   1.0000   1.0000   1.0000   1.0000   1.0000   1.0000   1.0000
     1.0000   1.0000   1.0000   1.0000   1.0000   1.0000   1.0000   1.0000
     1.0000   1.0000   1.0000   1.0000   1.0000   1.0000   1.0000   1.0000
     1.0000   1.0000   1.0000   1.0000   1.0000   1.0000   1.0000   1.0000
     1.0000   1.0000   1.0000   1.0000   1.0000   1.0000   1.0000   1.0000
     1.0000   1.0000   1.0000   1.0000   1.0000   1.0000   1.0000   1.0000
     1.0000   1.0000   1.0000   1.0000   1.0000   1.0000   1.0000   1.0000
     1.0000   1.0000   1.0000   1.0000   1.0000   1.0000   1.0000   1.0000
     1.0000   1.0000   1.0000   1.0000   1.0000   1.0000   1.0000   1.0000
     1.0000   1.0000   1.0000   1.0000   1.0000   1.0000   1.0000   1.0000
     1.0000   1.0000   1.0000   1.0000   1.0000   1.0000   1.0000   1.0000
     1.0000   1.0000   1.0000   1.0000   1.0000   1.0000   1.0000   1.0000
     1.0000   1.0000   1.0000   1.0000   1.0000   1.0000   1.0000   1.0000
     1.0000   1.0000   1.0000   1.0000   1.0000   1.0000   1.0000   1.0000
     1.0000   1.0000   1.0000   1.0000   1.0000   1.0000   1.0000   1.0000
     1.0000   1.0000   1.0000   1.0000   1.0000   1.0000   1.0000   1.0000
     1.0000   1.0000   1.0000   1.0000   1.0000   1.0000   1.0000   1.0000
     1.0000   1.0000   1.0000   1.0000   1.0000   1.0000   1.0000   1.0000
     1.0000   1.0000   1.0000   1.0000   1.0000   1.0000   1.0000   1.0000
     1.0000   1.0000   1.0000   1.0000   1.0000   1.0000   1.0000   1.0000
     1.0000   1.0000   1.0000   1.0000   1.0000   1.0000   1.0000   1.0000
     1.0000   1.0000   1.0000   1.0000   1.0000   1.0000   1.0000   1.0000
     1.0000   1.0000   1.0000   1.0000   1.0000   1.0000   1.0000   1.0000
     1.0000   1.0000   1.0000   1.0000   1.0000   1.0000   1.0000   1.0000
     1.0000   1.0000   1.0000   1.0000   1.0000   1.0000   1.0000   1.0000
     1.0000   1.0000   1.0000   1.0000   1.0000   1.0000   1.0000   1.0000
     1.0000   1.0000   1.0000   1.0000   1.0000   1.0000   1.0000   1.0000
     1.0000   1.0000   1.0000   1.0000   1.0000   1.0000   1.0000   1.0000
     1.0000   1.0000   1.0000   1.0000   1.0000   1.0000   1.0000   1.0000
     1.0000   1.0000   1.0000   1.0000   1.0000   1.0000   1.0000   1.0000
     1.0000   1.0000   1.0000   1.0000   1.0000   1.0000   1.0000   1.0000
     1.0000   1.0000   1.0000   1.0000   1.0000   1.0000   1.0000   1.0000
     1.0000   1.0000   1.0000   1.0000   1.0000   1.0000   1.0000   1.0000
     1.0000   1.0000   1.0000   1.0000   1.0000   1.0000   1.0000   1.0000
     1.0000   1.0000   1.0000   1.0000   1.0000   1.0000   1.0000   1.0000
     1.0000   1.0000   1.0000   1.0000   1.0000   1.0000   1.0000   1.0000
     1.0000   1.0000   1.0000   1.0000   1.0000   1.0000   1.0000   1.0000
     1.0000   1.0000   1.0000   1.0000   1.0000   1.0000   1.0000   1.0000
     1.0000   1.0000   1.0000   1.0000   1.0000   1.0000   1.0000   1.0000
     1.0000   1.0000   1.0000   1.0000   1.0000   1.0000   1.0000   1.0000
     1.0000   1.0000   1.0000   1.0000   1.0000   1.0000   1.0000   1.0000
     1.0000   1.0000   1.0000   1.0000   1.0000   1.0000   1.0000   1.0000
     1.0000   1.0000   1.0000   1.0000   1.0000   1.0000   1.0000   1.0000
     1.0000   1.0000   1.0000   1.0000   1.0000   1.0000   1.0000   1.0000
     1.0000   1.0000   1.0000   1.0000   1.0000   1.0000   1.0000   1.0000
     1.0000   1.0000   1.0000   1.0000   1.0000   1.0000   1.0000   1.0000
     1.0000   1.0000   1.0000   1.0000   1.0000   1.0000   1.0000   1.0000
     1.0000   1.0000   1.0000   1.0000   1.0000   1.0000   1.0000   1.0000
     1.0000   1.0000   1.0000   1.0000   1.0000   1.0000   1.0000   1.0000
     1.0000   1.0000   1.0000   1.0000   1.0000   1.0000   1.0000   1.0000
     1.0000   1.0000   1.0000   1.0000   1.0000   1.0000   1.0000   1.0000
     1.0000   1.0000   1.0000   1.0000   1.0000   1.0000   1.0000   1.0000
     1.0000   1.0000   1.0000   1.0000   1.0000   1.0000   1.0000   1.0000
     1.0000   1.0000   1.0000   1.0000   1.0000   1.0000   1.0000   1.0000
     1.0000   1.0000   1.0000   1.0000   1.0000   1.0000   1.0000   1.0000
     1.0000   1.0000   1.0000   1.0000   1.0000   1.0000   1.0000   1.0000
     1.0000   1.0000   1.0000   0.1847   0.1847   0.1847   0.1846   0.1846
     0.1846   0.1238   0.1238   0.1238   0.1238   0.1238   0.1238   0.0000
     0.0000   0.0000   0.0000   0.0000   0.0000   0.0000   0.0000   0.0000
     0.0000   0.0000   0.0000   0.0000   0.0000   0.0000   0.0000   0.0000
     0.0000   0.0000   0.0000   0.0000   0.0000   0.0000   0.0000   0.0000
     0.0000   0.0000   0.0000   0.0000   0.0000   0.0000   0.0000   0.0000
     0.0000   0.0000   0.0000   0.0000   0.0000   0.0000   0.0000   0.0000
     0.0000   0.0000   0.0000   0.0000   0.0000   0.0000   0.0000   0.0000
     0.0000   0.0000   0.0000   0.0000   0.0000   0.0000   0.0000   0.0000
     0.0000   0.0000   0.0000   0.0000   0.0000   0.0000   0.0000   0.0000
     0.0000   0.0000   0.0000   0.0000   0.0000   0.0000   0.0000   0.0000
     0.0000   0.0000   0.0000   0.0000   0.0000   0.0000   0.0000   0.0000
     0.0000   0.0000   0.0000   0.0000   0.0000   0.0000   0.0000   0.0000

          k = 0.0000 0.2887 0.0000 ( 64808 PWs)   bands (ev):

  -125.0707-125.0698-125.0694-125.0693-125.0687-125.0687-125.0684-125.0678
  -125.0677-125.0675-125.0674-125.0674-125.0673-125.0673-125.0671-125.0671
  -124.8619-124.8609-124.8606-124.8605-124.8599-124.8599-124.8596-124.8590
  -124.8589-124.8587-124.8586-124.8585-124.8585-124.8585-124.8583-124.8582
  -124.8576-124.8567-124.8563-124.8563-124.8556-124.8556-124.8553-124.8547
  -124.8547-124.8544-124.8543-124.8543-124.8543-124.8542-124.8540-124.8540
   -79.2361 -79.2361 -79.2354 -79.2315 -79.2315 -79.2306 -79.2306 -79.2287
   -79.2287 -79.2257 -79.2225 -79.2225 -79.2198 -79.2198 -79.2193 -79.2182
   -79.2177 -79.2177 -79.2170 -79.2170 -79.2167 -79.2159 -79.2159 -79.2158
   -79.2157 -79.2156 -79.2155 -79.2155 -79.2155 -79.2154 -79.2154 -79.2154
   -79.2151 -79.2151 -79.2131 -79.2131 -79.2119 -79.2109 -79.2109 -79.2098
   -79.2073 -79.2070 -79.2070 -79.2050 -79.2050 -79.2036 -79.2021 -79.2011
   -79.0240 -79.0239 -79.0233 -79.0197 -79.0197 -79.0194 -79.0194 -79.0192
   -79.0191 -79.0185 -79.0185 -79.0181 -79.0177 -79.0177 -79.0170 -79.0170
   -79.0167 -79.0166 -79.0166 -79.0160 -79.0159 -79.0157 -79.0156 -79.0155
   -79.0155 -79.0155 -79.0152 -79.0152 -79.0152 -79.0151 -79.0149 -79.0142
   -79.0142 -79.0139 -79.0136 -79.0134 -79.0134 -79.0127 -79.0127 -79.0124
   -79.0123 -79.0123 -79.0117 -79.0117 -79.0114 -79.0113 -79.0113 -79.0112
   -79.0112 -79.0110 -79.0110 -79.0104 -79.0104 -79.0094 -79.0078 -79.0078
   -79.0062 -79.0062 -79.0037 -79.0037 -79.0035 -79.0035 -79.0034 -79.0034
   -79.0011 -79.0010 -78.9998 -78.9995 -78.9994 -78.9992 -78.9992 -78.9989
   -78.9989 -78.9978 -78.9968 -78.9968 -78.9956 -78.9952 -78.9949 -78.9949
   -78.9946 -78.9946 -78.9935 -78.9930 -78.9930 -78.9916 -78.9910 -78.9907
   -78.9907 -78.9901 -78.9891 -78.9887 -78.9887 -78.9874 -78.9858 -78.9848
    -8.5007  -7.6174  -7.2958  -7.2456  -7.2456  -7.0279  -6.8993  -6.8732
    -6.8732  -6.8493  -6.8450  -6.8450  -6.7049  -6.6903  -6.6903  -6.6867
    -6.6743  -6.6589  -6.6345  -6.6345  -6.5875  -6.5781  -6.5767  -6.5767
    -6.5687  -6.5687  -6.5467  -6.5467  -6.5250  -6.5250  -6.5191  -6.5191
    -6.5153  -6.5102  -6.5102  -6.5073  -6.5073  -6.5032  -6.5032  -6.4871
    -6.4871  -6.4615  -6.4615  -6.4241  -6.4241  -6.3927  -6.3927  -6.3784
    -6.3784  -6.3747  -6.3201  -6.3153  -6.3153  -6.3139  -6.3139  -6.3138
    -6.3138  -6.2652  -6.2652  -6.2586  -6.2502  -6.2307  -6.2307  -6.2222
    -6.2215  -6.2215  -6.2212  -6.2212  -6.2050  -6.2050  -6.2020  -6.2020
    -6.1930  -6.1930  -6.1839  -6.1839  -6.1792  -6.1762  -6.1762  -6.1541
    -6.1397  -6.1214  -6.1214  -6.1107  -6.1107  -6.0997  -6.0997  -6.0949
    -6.0881  -6.0881  -6.0755  -6.0624  -6.0624  -6.0494  -6.0494  -6.0485
    -6.0485  -5.9581  -5.9581  -5.9553  -5.9553  -5.9404  -5.9378  -5.9343
    -5.9329  -5.9312  -5.9312  -5.9242  -5.9242  -5.9087  -5.9087  -5.9086
    -5.8908  -5.8908  -5.8857  -5.8843  -5.8832  -5.8731  -5.8731  -5.8643
    -5.8471  -5.8471  -5.8369  -5.8369  -5.8263  -5.8100  -5.7945  -5.7945
    -5.7924  -5.7924  -5.7843  -5.7843  -5.7772  -5.7756  -5.7756  -5.7708
    -5.7708  -5.7568  -5.7568  -5.7453  -5.7453  -5.7398  -5.7289  -5.7289
    -5.7133  -5.7119  -5.7119  -5.7015  -5.7015  -5.6943  -5.6943  -5.6938
    -5.6938  -5.6903  -5.6903  -5.6764  -5.6659  -5.6659  -5.6529  -5.6426
    -5.6389  -5.6389  -5.6299  -5.6299  -5.6185  -5.6154  -5.6154  -5.6132
    -5.6132  -5.6101  -5.6083  -5.6035  -5.6035  -5.5807  -5.5611  -5.5581
    -5.5581  -5.5545  -5.5545  -5.5458  -5.5458  -5.5423  -5.5423  -5.5423
    -5.5423  -5.5399  -5.5232  -5.5232  -5.5226  -5.5193  -5.5193  -5.5094
    -5.5094  -5.4877  -5.4877  -5.4614  -5.4582  -5.4571  -5.4571  -5.4518
    -5.4518  -5.4496  -5.4496  -5.4368  -5.4368  -5.4285  -5.4229  -5.4229
    -5.4204  -5.4169  -5.4116  -5.4112  -5.3998  -5.3998  -5.3971  -5.3971
    -5.3854  -5.3837  -5.3837  -5.3780  -5.3658  -5.3658  -5.3615  -5.3573
    -5.3440  -5.3440  -5.3375  -5.3280  -5.3215  -5.3215  -5.3159  -5.3084
    -5.3084  -5.2989  -5.2989  -5.2915  -5.2915  -5.2808  -5.2808  -5.1409
    -5.1409  -5.1260  -5.1260  -5.1192  -5.1192  -5.1032  -5.0990  -4.9458
    -4.9316  -4.6363  -4.6363  -3.8782  -3.8782  -3.4768  -3.3914  -3.3914
    -3.3639  -2.6719  -2.3000  -2.3000  -2.2192  -2.0186  -2.0186  -1.9678
    -1.9678  -1.5127  -1.5127  -1.2893  -1.2893  -1.1147  -0.7909  -0.5704
    -0.5704  -0.5571  -0.5571  -0.5507   0.0281   0.0281   0.2714   0.2714
     0.5631   0.5631   0.6348   0.8798   0.9022   0.9022   1.1848   1.1848
     1.5592   1.5592   2.2276   2.2276   2.6490   2.6996   2.6996   2.7223
     2.7857   2.7857   2.9521   2.9521   3.2207   3.5499   3.6928   3.6928
     3.9109   3.9109   4.1130   4.1862   4.1863   4.5571   4.5571   4.8035
     4.8035   4.8467   4.8467   5.1542   5.1542   5.1633   5.1633   5.1879
     5.3819   5.4268   5.4268   5.5692   5.6445   5.7951   5.7951   5.8076
     6.0898   6.0964   6.0964   6.3008   6.3137   6.3137   6.3164   6.5117
     6.5395   6.5395   6.5974   6.5974   6.7125   6.7596   6.7596   7.0120
     7.0120   7.0883   7.0883   7.1728   7.1728   7.2412   7.3109   7.3109
     7.4099   7.4242   7.4242   7.4494   7.4494   7.6602   7.6602   7.6691
     7.6691   7.7007   7.7007   7.7441   7.8571   7.8571   7.9484   7.9484
     8.0257   8.0257   8.1350   8.3127   8.3236   8.4785   8.6376   8.6385
     8.6970   8.7092   8.8098   8.8098   8.8270   8.8271   8.8379   8.8381

     occupation numbers 
     1.0000   1.0000   1.0000   1.0000   1.0000   1.0000   1.0000   1.0000
     1.0000   1.0000   1.0000   1.0000   1.0000   1.0000   1.0000   1.0000
     1.0000   1.0000   1.0000   1.0000   1.0000   1.0000   1.0000   1.0000
     1.0000   1.0000   1.0000   1.0000   1.0000   1.0000   1.0000   1.0000
     1.0000   1.0000   1.0000   1.0000   1.0000   1.0000   1.0000   1.0000
     1.0000   1.0000   1.0000   1.0000   1.0000   1.0000   1.0000   1.0000
     1.0000   1.0000   1.0000   1.0000   1.0000   1.0000   1.0000   1.0000
     1.0000   1.0000   1.0000   1.0000   1.0000   1.0000   1.0000   1.0000
     1.0000   1.0000   1.0000   1.0000   1.0000   1.0000   1.0000   1.0000
     1.0000   1.0000   1.0000   1.0000   1.0000   1.0000   1.0000   1.0000
     1.0000   1.0000   1.0000   1.0000   1.0000   1.0000   1.0000   1.0000
     1.0000   1.0000   1.0000   1.0000   1.0000   1.0000   1.0000   1.0000
     1.0000   1.0000   1.0000   1.0000   1.0000   1.0000   1.0000   1.0000
     1.0000   1.0000   1.0000   1.0000   1.0000   1.0000   1.0000   1.0000
     1.0000   1.0000   1.0000   1.0000   1.0000   1.0000   1.0000   1.0000
     1.0000   1.0000   1.0000   1.0000   1.0000   1.0000   1.0000   1.0000
     1.0000   1.0000   1.0000   1.0000   1.0000   1.0000   1.0000   1.0000
     1.0000   1.0000   1.0000   1.0000   1.0000   1.0000   1.0000   1.0000
     1.0000   1.0000   1.0000   1.0000   1.0000   1.0000   1.0000   1.0000
     1.0000   1.0000   1.0000   1.0000   1.0000   1.0000   1.0000   1.0000
     1.0000   1.0000   1.0000   1.0000   1.0000   1.0000   1.0000   1.0000
     1.0000   1.0000   1.0000   1.0000   1.0000   1.0000   1.0000   1.0000
     1.0000   1.0000   1.0000   1.0000   1.0000   1.0000   1.0000   1.0000
     1.0000   1.0000   1.0000   1.0000   1.0000   1.0000   1.0000   1.0000
     1.0000   1.0000   1.0000   1.0000   1.0000   1.0000   1.0000   1.0000
     1.0000   1.0000   1.0000   1.0000   1.0000   1.0000   1.0000   1.0000
     1.0000   1.0000   1.0000   1.0000   1.0000   1.0000   1.0000   1.0000
     1.0000   1.0000   1.0000   1.0000   1.0000   1.0000   1.0000   1.0000
     1.0000   1.0000   1.0000   1.0000   1.0000   1.0000   1.0000   1.0000
     1.0000   1.0000   1.0000   1.0000   1.0000   1.0000   1.0000   1.0000
     1.0000   1.0000   1.0000   1.0000   1.0000   1.0000   1.0000   1.0000
     1.0000   1.0000   1.0000   1.0000   1.0000   1.0000   1.0000   1.0000
     1.0000   1.0000   1.0000   1.0000   1.0000   1.0000   1.0000   1.0000
     1.0000   1.0000   1.0000   1.0000   1.0000   1.0000   1.0000   1.0000
     1.0000   1.0000   1.0000   1.0000   1.0000   1.0000   1.0000   1.0000
     1.0000   1.0000   1.0000   1.0000   1.0000   1.0000   1.0000   1.0000
     1.0000   1.0000   1.0000   1.0000   1.0000   1.0000   1.0000   1.0000
     1.0000   1.0000   1.0000   1.0000   1.0000   1.0000   1.0000   1.0000
     1.0000   1.0000   1.0000   1.0000   1.0000   1.0000   1.0000   1.0000
     1.0000   1.0000   1.0000   1.0000   1.0000   1.0000   1.0000   1.0000
     1.0000   1.0000   1.0000   1.0000   1.0000   1.0000   1.0000   1.0000
     1.0000   1.0000   1.0000   1.0000   1.0000   1.0000   1.0000   1.0000
     1.0000   1.0000   1.0000   1.0000   1.0000   1.0000   1.0000   1.0000
     1.0000   1.0000   1.0000   1.0000   1.0000   1.0000   1.0000   1.0000
     1.0000   1.0000   1.0000   1.0000   1.0000   1.0000   1.0000   1.0000
     1.0000   1.0000   1.0000   1.0000   1.0000   1.0000   1.0000   1.0000
     1.0000   1.0000   1.0000   1.0000   1.0000   1.0000   1.0000   1.0000
     1.0000   1.0000   1.0000   1.0000   1.0000   1.0000   1.0000   1.0000
     1.0000   1.0000   1.0000   1.0000   1.0000   1.0000   1.0000   1.0000
     1.0000   1.0000   1.0000   1.0000   1.0000   1.0000   1.0000   1.0000
     1.0000   1.0000   1.0000   1.0000   1.0000   1.0000   1.0000   1.0000
     1.0000   1.0000   1.0000   1.0000   1.0000   1.0000   1.0000   1.0000
     1.0000   1.0000   1.0000   1.0000   1.0000   1.0000   1.0000   1.0000
     1.0000   1.0000   1.0000   1.0000   1.0000   1.0000   1.0000   1.0000
     1.0000   1.0000   1.0000   1.0000   1.0000   1.0000   1.0000   1.0000
     1.0000   1.0000   1.0000   1.0000   1.0000   1.0000   1.0000   1.0000
     1.0000   1.0000   1.0000   1.0000   1.0000   1.0000   1.0000   1.0000
     1.0000   1.0000   1.0000   1.0000   1.0000   1.0000   1.0000   1.0000
     1.0000   1.0000   1.0000   1.0000   1.0000   1.0000   1.0000   1.0000
     1.0006   1.0006   1.0019   1.0376   1.0448   1.0448   1.0001   1.0001
     0.1538   0.1538   0.0000   0.0000   0.0000   0.0000   0.0000   0.0000
     0.0000   0.0000   0.0000   0.0000   0.0000   0.0000   0.0000   0.0000
     0.0000   0.0000   0.0000   0.0000   0.0000   0.0000   0.0000   0.0000
     0.0000   0.0000   0.0000   0.0000   0.0000   0.0000   0.0000   0.0000
     0.0000   0.0000   0.0000   0.0000   0.0000   0.0000   0.0000   0.0000
     0.0000   0.0000   0.0000   0.0000   0.0000   0.0000   0.0000   0.0000
     0.0000   0.0000   0.0000   0.0000   0.0000   0.0000   0.0000   0.0000
     0.0000   0.0000   0.0000   0.0000   0.0000   0.0000   0.0000   0.0000
     0.0000   0.0000   0.0000   0.0000   0.0000   0.0000   0.0000   0.0000
     0.0000   0.0000   0.0000   0.0000   0.0000   0.0000   0.0000   0.0000
     0.0000   0.0000   0.0000   0.0000   0.0000   0.0000   0.0000   0.0000
     0.0000   0.0000   0.0000   0.0000   0.0000   0.0000   0.0000   0.0000

          k = 0.0000-0.5774 0.0000 ( 64842 PWs)   bands (ev):

  -125.0703-125.0703-125.0695-125.0694-125.0683-125.0682-125.0682-125.0682
  -125.0679-125.0679-125.0674-125.0674-125.0673-125.0673-125.0670-125.0670
  -124.8615-124.8615-124.8606-124.8606-124.8594-124.8594-124.8594-124.8594
  -124.8591-124.8590-124.8586-124.8585-124.8585-124.8585-124.8582-124.8581
  -124.8572-124.8572-124.8564-124.8564-124.8552-124.8551-124.8551-124.8551
  -124.8548-124.8548-124.8543-124.8543-124.8543-124.8542-124.8539-124.8539
   -79.2340 -79.2340 -79.2340 -79.2340 -79.2316 -79.2315 -79.2305 -79.2305
   -79.2260 -79.2260 -79.2260 -79.2260 -79.2211 -79.2211 -79.2188 -79.2188
   -79.2178 -79.2178 -79.2165 -79.2164 -79.2164 -79.2164 -79.2160 -79.2160
   -79.2155 -79.2155 -79.2154 -79.2154 -79.2150 -79.2150 -79.2145 -79.2145
   -79.2130 -79.2130 -79.2129 -79.2129 -79.2096 -79.2096 -79.2096 -79.2096
   -79.2088 -79.2088 -79.2060 -79.2060 -79.2050 -79.2050 -79.2021 -79.2021
   -79.0220 -79.0219 -79.0219 -79.0219 -79.0195 -79.0194 -79.0188 -79.0187
   -79.0184 -79.0184 -79.0178 -79.0178 -79.0177 -79.0177 -79.0177 -79.0177
   -79.0165 -79.0165 -79.0164 -79.0164 -79.0161 -79.0160 -79.0156 -79.0155
   -79.0155 -79.0155 -79.0152 -79.0152 -79.0151 -79.0151 -79.0145 -79.0145
   -79.0142 -79.0142 -79.0139 -79.0139 -79.0139 -79.0139 -79.0135 -79.0135
   -79.0122 -79.0122 -79.0122 -79.0122 -79.0118 -79.0118 -79.0113 -79.0113
   -79.0112 -79.0112 -79.0109 -79.0109 -79.0097 -79.0097 -79.0097 -79.0097
   -79.0090 -79.0090 -79.0048 -79.0048 -79.0025 -79.0024 -79.0009 -79.0009
   -79.0009 -79.0009 -78.9982 -78.9982 -78.9976 -78.9976 -78.9976 -78.9976
   -78.9968 -78.9967 -78.9967 -78.9967 -78.9967 -78.9966 -78.9940 -78.9940
   -78.9933 -78.9933 -78.9933 -78.9933 -78.9930 -78.9930 -78.9925 -78.9925
   -78.9901 -78.9901 -78.9897 -78.9897 -78.9888 -78.9887 -78.9859 -78.9858
    -8.1528  -8.1528  -7.3141  -7.3141  -7.0214  -7.0214  -6.8628  -6.8628
    -6.8605  -6.8605  -6.7507  -6.7507  -6.7507  -6.7507  -6.6519  -6.6518
    -6.6472  -6.6472  -6.6472  -6.6472  -6.6211  -6.6211  -6.6066  -6.6066
    -6.6066  -6.6066  -6.5533  -6.5532  -6.5254  -6.5254  -6.5254  -6.5254
    -6.5028  -6.5028  -6.4874  -6.4874  -6.4874  -6.4874  -6.4611  -6.4611
    -6.4611  -6.4611  -6.4593  -6.4592  -6.4504  -6.4504  -6.4271  -6.4271
    -6.4189  -6.4189  -6.4189  -6.4189  -6.3084  -6.3084  -6.3029  -6.3029
    -6.2899  -6.2899  -6.2898  -6.2898  -6.2898  -6.2898  -6.2686  -6.2686
    -6.2686  -6.2686  -6.2359  -6.2358  -6.2189  -6.2189  -6.2189  -6.2189
    -6.2062  -6.2062  -6.2002  -6.2002  -6.1714  -6.1714  -6.1399  -6.1399
    -6.1082  -6.1082  -6.1010  -6.1010  -6.0807  -6.0807  -6.0807  -6.0807
    -6.0618  -6.0618  -6.0618  -6.0618  -6.0385  -6.0385  -6.0284  -6.0284
    -6.0246  -6.0246  -6.0196  -6.0196  -6.0110  -6.0110  -5.9882  -5.9882
    -5.9882  -5.9882  -5.9459  -5.9459  -5.9417  -5.9417  -5.9124  -5.9124
    -5.9028  -5.9028  -5.8722  -5.8722  -5.8722  -5.8722  -5.8119  -5.8119
    -5.8085  -5.8085  -5.8066  -5.8066  -5.8066  -5.8066  -5.8064  -5.8064
    -5.7853  -5.7853  -5.7806  -5.7806  -5.7750  -5.7750  -5.7750  -5.7750
    -5.7667  -5.7667  -5.7648  -5.7648  -5.7648  -5.7647  -5.7572  -5.7572
    -5.7524  -5.7524  -5.7524  -5.7524  -5.6723  -5.6723  -5.6705  -5.6705
    -5.6659  -5.6659  -5.6441  -5.6441  -5.6441  -5.6440  -5.6317  -5.6317
    -5.6207  -5.6207  -5.6026  -5.6026  -5.6026  -5.6026  -5.5917  -5.5917
    -5.5676  -5.5676  -5.5423  -5.5423  -5.5280  -5.5280  -5.5280  -5.5279
    -5.5233  -5.5233  -5.5233  -5.5233  -5.5202  -5.5202  -5.5183  -5.5183
    -5.4969  -5.4969  -5.4969  -5.4969  -5.4859  -5.4859  -5.4857  -5.4857
    -5.4850  -5.4850  -5.4754  -5.4754  -5.4619  -5.4619  -5.4619  -5.4619
    -5.4486  -5.4485  -5.4485  -5.4485  -5.4370  -5.4370  -5.4207  -5.4207
    -5.4146  -5.4146  -5.4146  -5.4146  -5.4108  -5.4107  -5.4100  -5.4099
    -5.4026  -5.4026  -5.4017  -5.4017  -5.3996  -5.3995  -5.3680  -5.3679
    -5.3615  -5.3615  -5.3615  -5.3615  -5.3210  -5.3210  -5.3210  -5.3210
    -5.2506  -5.2506  -5.2506  -5.2506  -5.2344  -5.2344  -5.2312  -5.2312
    -5.2312  -5.2312  -5.1985  -5.1984  -5.1935  -5.1935  -4.7001  -4.7001
    -4.4160  -4.4160  -4.4160  -4.4160  -3.7255  -3.7255  -3.1091  -3.1090
    -3.0582  -3.0582  -3.0582  -3.0582  -2.3896  -2.3896  -2.2361  -2.2361
    -1.7552  -1.7552  -1.7551  -1.7551  -0.7529  -0.7529  -0.7529  -0.7529
    -0.3215  -0.3214  -0.3214  -0.3214  -0.0889  -0.0888   0.0158   0.0158
     1.0239   1.0239   1.0506   1.0506   1.3409   1.3409   1.3732   1.3732
     1.3732   1.3732   2.2280   2.2280   2.9019   2.9019   2.9020   2.9020
     3.1030   3.1030   3.1030   3.1030   3.3254   3.3254   3.5560   3.5560
     3.8701   3.8701   3.8701   3.8701   3.9997   3.9997   4.2604   4.2604
     4.4480   4.4480   4.7489   4.7489   4.8610   4.8610   5.4838   5.4838
     5.5264   5.5264   5.7267   5.7267   5.8044   5.8044   5.9306   5.9306
     5.9306   5.9306   5.9851   5.9851   5.9852   5.9852   6.1548   6.1548
     6.1548   6.1548   6.4279   6.4279   6.5633   6.5633   6.6451   6.6451
     6.6641   6.6641   6.8490   6.8490   6.8673   6.8673   7.0162   7.0162
     7.0162   7.0162   7.5868   7.5868   7.7465   7.7465   8.0649   8.0649
     8.0920   8.0920   8.0920   8.0920   8.2812   8.2813   8.4783   8.4783
     8.4784   8.4784   8.6295   8.6295   8.6296   8.6296   8.6694   8.6696
     8.7387   8.7387   8.8125   8.8126   9.0006   9.0006   9.0006   9.0006

     occupation numbers 
     1.0000   1.0000   1.0000   1.0000   1.0000   1.0000   1.0000   1.0000
     1.0000   1.0000   1.0000   1.0000   1.0000   1.0000   1.0000   1.0000
     1.0000   1.0000   1.0000   1.0000   1.0000   1.0000   1.0000   1.0000
     1.0000   1.0000   1.0000   1.0000   1.0000   1.0000   1.0000   1.0000
     1.0000   1.0000   1.0000   1.0000   1.0000   1.0000   1.0000   1.0000
     1.0000   1.0000   1.0000   1.0000   1.0000   1.0000   1.0000   1.0000
     1.0000   1.0000   1.0000   1.0000   1.0000   1.0000   1.0000   1.0000
     1.0000   1.0000   1.0000   1.0000   1.0000   1.0000   1.0000   1.0000
     1.0000   1.0000   1.0000   1.0000   1.0000   1.0000   1.0000   1.0000
     1.0000   1.0000   1.0000   1.0000   1.0000   1.0000   1.0000   1.0000
     1.0000   1.0000   1.0000   1.0000   1.0000   1.0000   1.0000   1.0000
     1.0000   1.0000   1.0000   1.0000   1.0000   1.0000   1.0000   1.0000
     1.0000   1.0000   1.0000   1.0000   1.0000   1.0000   1.0000   1.0000
     1.0000   1.0000   1.0000   1.0000   1.0000   1.0000   1.0000   1.0000
     1.0000   1.0000   1.0000   1.0000   1.0000   1.0000   1.0000   1.0000
     1.0000   1.0000   1.0000   1.0000   1.0000   1.0000   1.0000   1.0000
     1.0000   1.0000   1.0000   1.0000   1.0000   1.0000   1.0000   1.0000
     1.0000   1.0000   1.0000   1.0000   1.0000   1.0000   1.0000   1.0000
     1.0000   1.0000   1.0000   1.0000   1.0000   1.0000   1.0000   1.0000
     1.0000   1.0000   1.0000   1.0000   1.0000   1.0000   1.0000   1.0000
     1.0000   1.0000   1.0000   1.0000   1.0000   1.0000   1.0000   1.0000
     1.0000   1.0000   1.0000   1.0000   1.0000   1.0000   1.0000   1.0000
     1.0000   1.0000   1.0000   1.0000   1.0000   1.0000   1.0000   1.0000
     1.0000   1.0000   1.0000   1.0000   1.0000   1.0000   1.0000   1.0000
     1.0000   1.0000   1.0000   1.0000   1.0000   1.0000   1.0000   1.0000
     1.0000   1.0000   1.0000   1.0000   1.0000   1.0000   1.0000   1.0000
     1.0000   1.0000   1.0000   1.0000   1.0000   1.0000   1.0000   1.0000
     1.0000   1.0000   1.0000   1.0000   1.0000   1.0000   1.0000   1.0000
     1.0000   1.0000   1.0000   1.0000   1.0000   1.0000   1.0000   1.0000
     1.0000   1.0000   1.0000   1.0000   1.0000   1.0000   1.0000   1.0000
     1.0000   1.0000   1.0000   1.0000   1.0000   1.0000   1.0000   1.0000
     1.0000   1.0000   1.0000   1.0000   1.0000   1.0000   1.0000   1.0000
     1.0000   1.0000   1.0000   1.0000   1.0000   1.0000   1.0000   1.0000
     1.0000   1.0000   1.0000   1.0000   1.0000   1.0000   1.0000   1.0000
     1.0000   1.0000   1.0000   1.0000   1.0000   1.0000   1.0000   1.0000
     1.0000   1.0000   1.0000   1.0000   1.0000   1.0000   1.0000   1.0000
     1.0000   1.0000   1.0000   1.0000   1.0000   1.0000   1.0000   1.0000
     1.0000   1.0000   1.0000   1.0000   1.0000   1.0000   1.0000   1.0000
     1.0000   1.0000   1.0000   1.0000   1.0000   1.0000   1.0000   1.0000
     1.0000   1.0000   1.0000   1.0000   1.0000   1.0000   1.0000   1.0000
     1.0000   1.0000   1.0000   1.0000   1.0000   1.0000   1.0000   1.0000
     1.0000   1.0000   1.0000   1.0000   1.0000   1.0000   1.0000   1.0000
     1.0000   1.0000   1.0000   1.0000   1.0000   1.0000   1.0000   1.0000
     1.0000   1.0000   1.0000   1.0000   1.0000   1.0000   1.0000   1.0000
     1.0000   1.0000   1.0000   1.0000   1.0000   1.0000   1.0000   1.0000
     1.0000   1.0000   1.0000   1.0000   1.0000   1.0000   1.0000   1.0000
     1.0000   1.0000   1.0000   1.0000   1.0000   1.0000   1.0000   1.0000
     1.0000   1.0000   1.0000   1.0000   1.0000   1.0000   1.0000   1.0000
     1.0000   1.0000   1.0000   1.0000   1.0000   1.0000   1.0000   1.0000
     1.0000   1.0000   1.0000   1.0000   1.0000   1.0000   1.0000   1.0000
     1.0000   1.0000   1.0000   1.0000   1.0000   1.0000   1.0000   1.0000
     1.0000   1.0000   1.0000   1.0000   1.0000   1.0000   1.0000   1.0000
     1.0000   1.0000   1.0000   1.0000   1.0000   1.0000   1.0000   1.0000
     1.0000   1.0000   1.0000   1.0000   1.0000   1.0000   1.0000   1.0000
     1.0000   1.0000   1.0000   1.0000   1.0000   1.0000   1.0000   1.0000
     1.0000   1.0000   1.0000   1.0000   1.0000   1.0000   1.0000   1.0000
     1.0000   1.0000   1.0000   1.0000   1.0000   1.0000   1.0000   1.0000
     1.0000   1.0000   1.0000   1.0000   1.0000   1.0000   1.0000   1.0000
     1.0000   1.0000   1.0000   1.0000   1.0000   1.0000   1.0000   1.0000
     1.0812   1.0812   1.0833   1.0833   0.6564   0.6564   0.5671   0.5670
     0.5670   0.5670   0.0000   0.0000   0.0000   0.0000   0.0000   0.0000
     0.0000   0.0000   0.0000   0.0000   0.0000   0.0000   0.0000   0.0000
     0.0000   0.0000   0.0000   0.0000   0.0000   0.0000   0.0000   0.0000
     0.0000   0.0000   0.0000   0.0000   0.0000   0.0000   0.0000   0.0000
     0.0000   0.0000   0.0000   0.0000   0.0000   0.0000   0.0000   0.0000
     0.0000   0.0000   0.0000   0.0000   0.0000   0.0000   0.0000   0.0000
     0.0000   0.0000   0.0000   0.0000   0.0000   0.0000   0.0000   0.0000
     0.0000   0.0000   0.0000   0.0000   0.0000   0.0000   0.0000   0.0000
     0.0000   0.0000   0.0000   0.0000   0.0000   0.0000   0.0000   0.0000
     0.0000   0.0000   0.0000   0.0000   0.0000   0.0000   0.0000   0.0000
     0.0000   0.0000   0.0000   0.0000   0.0000   0.0000   0.0000   0.0000
     0.0000   0.0000   0.0000   0.0000   0.0000   0.0000   0.0000   0.0000

          k = 0.2500 0.1443 0.0000 ( 64808 PWs)   bands (ev):

  -125.0707-125.0698-125.0694-125.0694-125.0687-125.0687-125.0684-125.0678
  -125.0677-125.0675-125.0674-125.0674-125.0673-125.0673-125.0671-125.0671
  -124.8619-124.8609-124.8605-124.8605-124.8599-124.8599-124.8596-124.8589
  -124.8589-124.8587-124.8586-124.8586-124.8585-124.8585-124.8583-124.8582
  -124.8576-124.8567-124.8563-124.8563-124.8556-124.8556-124.8553-124.8547
  -124.8547-124.8544-124.8543-124.8543-124.8543-124.8542-124.8540-124.8540
   -79.2361 -79.2361 -79.2354 -79.2315 -79.2315 -79.2306 -79.2306 -79.2287
   -79.2287 -79.2257 -79.2225 -79.2225 -79.2198 -79.2198 -79.2193 -79.2182
   -79.2177 -79.2177 -79.2170 -79.2170 -79.2167 -79.2159 -79.2159 -79.2158
   -79.2157 -79.2156 -79.2155 -79.2155 -79.2155 -79.2154 -79.2154 -79.2154
   -79.2151 -79.2151 -79.2131 -79.2131 -79.2119 -79.2109 -79.2109 -79.2098
   -79.2073 -79.2070 -79.2070 -79.2050 -79.2050 -79.2036 -79.2021 -79.2011
   -79.0240 -79.0239 -79.0233 -79.0197 -79.0197 -79.0194 -79.0194 -79.0192
   -79.0191 -79.0185 -79.0185 -79.0181 -79.0177 -79.0177 -79.0170 -79.0170
   -79.0167 -79.0166 -79.0166 -79.0159 -79.0159 -79.0156 -79.0156 -79.0155
   -79.0155 -79.0154 -79.0152 -79.0152 -79.0151 -79.0151 -79.0149 -79.0142
   -79.0142 -79.0139 -79.0136 -79.0135 -79.0134 -79.0127 -79.0127 -79.0124
   -79.0123 -79.0123 -79.0117 -79.0117 -79.0114 -79.0113 -79.0113 -79.0112
   -79.0112 -79.0110 -79.0110 -79.0104 -79.0104 -79.0094 -79.0078 -79.0078
   -79.0062 -79.0062 -79.0037 -79.0037 -79.0035 -79.0035 -79.0034 -79.0034
   -79.0011 -79.0010 -78.9998 -78.9995 -78.9994 -78.9992 -78.9992 -78.9989
   -78.9989 -78.9978 -78.9968 -78.9968 -78.9956 -78.9952 -78.9949 -78.9949
   -78.9946 -78.9946 -78.9935 -78.9930 -78.9930 -78.9916 -78.9910 -78.9907
   -78.9907 -78.9901 -78.9891 -78.9887 -78.9887 -78.9874 -78.9858 -78.9848
    -8.5007  -7.6174  -7.2958  -7.2456  -7.2456  -7.0279  -6.8993  -6.8732
    -6.8732  -6.8493  -6.8450  -6.8450  -6.7049  -6.6903  -6.6903  -6.6867
    -6.6743  -6.6589  -6.6345  -6.6345  -6.5875  -6.5781  -6.5767  -6.5767
    -6.5687  -6.5687  -6.5467  -6.5467  -6.5250  -6.5250  -6.5191  -6.5191
    -6.5153  -6.5102  -6.5102  -6.5073  -6.5073  -6.5032  -6.5032  -6.4871
    -6.4871  -6.4615  -6.4615  -6.4241  -6.4241  -6.3927  -6.3927  -6.3784
    -6.3784  -6.3747  -6.3201  -6.3153  -6.3153  -6.3139  -6.3139  -6.3138
    -6.3138  -6.2652  -6.2652  -6.2586  -6.2502  -6.2307  -6.2307  -6.2222
    -6.2215  -6.2215  -6.2212  -6.2212  -6.2050  -6.2050  -6.2020  -6.2020
    -6.1930  -6.1930  -6.1839  -6.1839  -6.1792  -6.1762  -6.1762  -6.1541
    -6.1397  -6.1214  -6.1214  -6.1107  -6.1107  -6.0997  -6.0997  -6.0949
    -6.0881  -6.0881  -6.0755  -6.0624  -6.0624  -6.0494  -6.0494  -6.0485
    -6.0485  -5.9581  -5.9581  -5.9553  -5.9553  -5.9404  -5.9378  -5.9343
    -5.9329  -5.9312  -5.9312  -5.9242  -5.9242  -5.9087  -5.9087  -5.9086
    -5.8908  -5.8908  -5.8857  -5.8843  -5.8832  -5.8731  -5.8731  -5.8643
    -5.8471  -5.8471  -5.8369  -5.8369  -5.8263  -5.8100  -5.7945  -5.7945
    -5.7924  -5.7924  -5.7843  -5.7843  -5.7772  -5.7756  -5.7756  -5.7708
    -5.7708  -5.7568  -5.7568  -5.7453  -5.7453  -5.7398  -5.7289  -5.7289
    -5.7133  -5.7119  -5.7119  -5.7015  -5.7015  -5.6943  -5.6943  -5.6938
    -5.6938  -5.6903  -5.6903  -5.6764  -5.6659  -5.6659  -5.6529  -5.6426
    -5.6389  -5.6389  -5.6299  -5.6299  -5.6185  -5.6154  -5.6154  -5.6132
    -5.6132  -5.6101  -5.6083  -5.6035  -5.6035  -5.5807  -5.5611  -5.5581
    -5.5581  -5.5545  -5.5545  -5.5458  -5.5458  -5.5423  -5.5423  -5.5423
    -5.5423  -5.5399  -5.5232  -5.5232  -5.5227  -5.5193  -5.5193  -5.5094
    -5.5094  -5.4877  -5.4877  -5.4614  -5.4582  -5.4571  -5.4571  -5.4518
    -5.4518  -5.4496  -5.4496  -5.4368  -5.4368  -5.4285  -5.4229  -5.4229
    -5.4204  -5.4169  -5.4116  -5.4112  -5.3998  -5.3998  -5.3971  -5.3971
    -5.3854  -5.3837  -5.3837  -5.3780  -5.3658  -5.3658  -5.3615  -5.3573
    -5.3440  -5.3440  -5.3375  -5.3280  -5.3215  -5.3215  -5.3159  -5.3084
    -5.3084  -5.2989  -5.2989  -5.2915  -5.2915  -5.2808  -5.2808  -5.1409
    -5.1409  -5.1260  -5.1260  -5.1192  -5.1192  -5.1032  -5.0990  -4.9458
    -4.9316  -4.6363  -4.6363  -3.8782  -3.8782  -3.4768  -3.3914  -3.3914
    -3.3639  -2.6719  -2.3000  -2.3000  -2.2192  -2.0186  -2.0186  -1.9678
    -1.9678  -1.5127  -1.5127  -1.2893  -1.2893  -1.1147  -0.7909  -0.5704
    -0.5704  -0.5571  -0.5571  -0.5507   0.0281   0.0281   0.2714   0.2714
     0.5631   0.5631   0.6348   0.8798   0.9022   0.9022   1.1848   1.1848
     1.5592   1.5592   2.2276   2.2276   2.6490   2.6996   2.6996   2.7223
     2.7857   2.7857   2.9521   2.9521   3.2207   3.5499   3.6928   3.6928
     3.9109   3.9109   4.1130   4.1862   4.1863   4.5571   4.5571   4.8035
     4.8035   4.8467   4.8467   5.1542   5.1542   5.1633   5.1633   5.1879
     5.3819   5.4268   5.4268   5.5692   5.6445   5.7951   5.7951   5.8076
     6.0898   6.0964   6.0964   6.3008   6.3137   6.3137   6.3164   6.5117
     6.5395   6.5395   6.5974   6.5974   6.7125   6.7596   6.7596   7.0120
     7.0120   7.0883   7.0883   7.1728   7.1728   7.2412   7.3109   7.3109
     7.4099   7.4242   7.4242   7.4494   7.4494   7.6602   7.6602   7.6691
     7.6691   7.7007   7.7007   7.7441   7.8571   7.8571   7.9484   7.9484
     8.0257   8.0257   8.1351   8.3127   8.3234   8.4785   8.6374   8.6374
     8.6970   8.7091   8.8098   8.8098   8.8269   8.8270   8.8378   8.8381

     occupation numbers 
     1.0000   1.0000   1.0000   1.0000   1.0000   1.0000   1.0000   1.0000
     1.0000   1.0000   1.0000   1.0000   1.0000   1.0000   1.0000   1.0000
     1.0000   1.0000   1.0000   1.0000   1.0000   1.0000   1.0000   1.0000
     1.0000   1.0000   1.0000   1.0000   1.0000   1.0000   1.0000   1.0000
     1.0000   1.0000   1.0000   1.0000   1.0000   1.0000   1.0000   1.0000
     1.0000   1.0000   1.0000   1.0000   1.0000   1.0000   1.0000   1.0000
     1.0000   1.0000   1.0000   1.0000   1.0000   1.0000   1.0000   1.0000
     1.0000   1.0000   1.0000   1.0000   1.0000   1.0000   1.0000   1.0000
     1.0000   1.0000   1.0000   1.0000   1.0000   1.0000   1.0000   1.0000
     1.0000   1.0000   1.0000   1.0000   1.0000   1.0000   1.0000   1.0000
     1.0000   1.0000   1.0000   1.0000   1.0000   1.0000   1.0000   1.0000
     1.0000   1.0000   1.0000   1.0000   1.0000   1.0000   1.0000   1.0000
     1.0000   1.0000   1.0000   1.0000   1.0000   1.0000   1.0000   1.0000
     1.0000   1.0000   1.0000   1.0000   1.0000   1.0000   1.0000   1.0000
     1.0000   1.0000   1.0000   1.0000   1.0000   1.0000   1.0000   1.0000
     1.0000   1.0000   1.0000   1.0000   1.0000   1.0000   1.0000   1.0000
     1.0000   1.0000   1.0000   1.0000   1.0000   1.0000   1.0000   1.0000
     1.0000   1.0000   1.0000   1.0000   1.0000   1.0000   1.0000   1.0000
     1.0000   1.0000   1.0000   1.0000   1.0000   1.0000   1.0000   1.0000
     1.0000   1.0000   1.0000   1.0000   1.0000   1.0000   1.0000   1.0000
     1.0000   1.0000   1.0000   1.0000   1.0000   1.0000   1.0000   1.0000
     1.0000   1.0000   1.0000   1.0000   1.0000   1.0000   1.0000   1.0000
     1.0000   1.0000   1.0000   1.0000   1.0000   1.0000   1.0000   1.0000
     1.0000   1.0000   1.0000   1.0000   1.0000   1.0000   1.0000   1.0000
     1.0000   1.0000   1.0000   1.0000   1.0000   1.0000   1.0000   1.0000
     1.0000   1.0000   1.0000   1.0000   1.0000   1.0000   1.0000   1.0000
     1.0000   1.0000   1.0000   1.0000   1.0000   1.0000   1.0000   1.0000
     1.0000   1.0000   1.0000   1.0000   1.0000   1.0000   1.0000   1.0000
     1.0000   1.0000   1.0000   1.0000   1.0000   1.0000   1.0000   1.0000
     1.0000   1.0000   1.0000   1.0000   1.0000   1.0000   1.0000   1.0000
     1.0000   1.0000   1.0000   1.0000   1.0000   1.0000   1.0000   1.0000
     1.0000   1.0000   1.0000   1.0000   1.0000   1.0000   1.0000   1.0000
     1.0000   1.0000   1.0000   1.0000   1.0000   1.0000   1.0000   1.0000
     1.0000   1.0000   1.0000   1.0000   1.0000   1.0000   1.0000   1.0000
     1.0000   1.0000   1.0000   1.0000   1.0000   1.0000   1.0000   1.0000
     1.0000   1.0000   1.0000   1.0000   1.0000   1.0000   1.0000   1.0000
     1.0000   1.0000   1.0000   1.0000   1.0000   1.0000   1.0000   1.0000
     1.0000   1.0000   1.0000   1.0000   1.0000   1.0000   1.0000   1.0000
     1.0000   1.0000   1.0000   1.0000   1.0000   1.0000   1.0000   1.0000
     1.0000   1.0000   1.0000   1.0000   1.0000   1.0000   1.0000   1.0000
     1.0000   1.0000   1.0000   1.0000   1.0000   1.0000   1.0000   1.0000
     1.0000   1.0000   1.0000   1.0000   1.0000   1.0000   1.0000   1.0000
     1.0000   1.0000   1.0000   1.0000   1.0000   1.0000   1.0000   1.0000
     1.0000   1.0000   1.0000   1.0000   1.0000   1.0000   1.0000   1.0000
     1.0000   1.0000   1.0000   1.0000   1.0000   1.0000   1.0000   1.0000
     1.0000   1.0000   1.0000   1.0000   1.0000   1.0000   1.0000   1.0000
     1.0000   1.0000   1.0000   1.0000   1.0000   1.0000   1.0000   1.0000
     1.0000   1.0000   1.0000   1.0000   1.0000   1.0000   1.0000   1.0000
     1.0000   1.0000   1.0000   1.0000   1.0000   1.0000   1.0000   1.0000
     1.0000   1.0000   1.0000   1.0000   1.0000   1.0000   1.0000   1.0000
     1.0000   1.0000   1.0000   1.0000   1.0000   1.0000   1.0000   1.0000
     1.0000   1.0000   1.0000   1.0000   1.0000   1.0000   1.0000   1.0000
     1.0000   1.0000   1.0000   1.0000   1.0000   1.0000   1.0000   1.0000
     1.0000   1.0000   1.0000   1.0000   1.0000   1.0000   1.0000   1.0000
     1.0000   1.0000   1.0000   1.0000   1.0000   1.0000   1.0000   1.0000
     1.0000   1.0000   1.0000   1.0000   1.0000   1.0000   1.0000   1.0000
     1.0000   1.0000   1.0000   1.0000   1.0000   1.0000   1.0000   1.0000
     1.0000   1.0000   1.0000   1.0000   1.0000   1.0000   1.0000   1.0000
     1.0000   1.0000   1.0000   1.0000   1.0000   1.0000   1.0000   1.0000
     1.0006   1.0006   1.0019   1.0376   1.0448   1.0448   1.0001   1.0001
     0.1538   0.1538   0.0000   0.0000   0.0000   0.0000   0.0000   0.0000
     0.0000   0.0000   0.0000   0.0000   0.0000   0.0000   0.0000   0.0000
     0.0000   0.0000   0.0000   0.0000   0.0000   0.0000   0.0000   0.0000
     0.0000   0.0000   0.0000   0.0000   0.0000   0.0000   0.0000   0.0000
     0.0000   0.0000   0.0000   0.0000   0.0000   0.0000   0.0000   0.0000
     0.0000   0.0000   0.0000   0.0000   0.0000   0.0000   0.0000   0.0000
     0.0000   0.0000   0.0000   0.0000   0.0000   0.0000   0.0000   0.0000
     0.0000   0.0000   0.0000   0.0000   0.0000   0.0000   0.0000   0.0000
     0.0000   0.0000   0.0000   0.0000   0.0000   0.0000   0.0000   0.0000
     0.0000   0.0000   0.0000   0.0000   0.0000   0.0000   0.0000   0.0000
     0.0000   0.0000   0.0000   0.0000   0.0000   0.0000   0.0000   0.0000
     0.0000   0.0000   0.0000   0.0000   0.0000   0.0000   0.0000   0.0000

          k = 0.2500 0.4330 0.0000 ( 64876 PWs)   bands (ev):

  -125.0704-125.0700-125.0700-125.0689-125.0688-125.0683-125.0681-125.0681
  -125.0677-125.0677-125.0676-125.0676-125.0672-125.0671-125.0671-125.0669
  -124.8616-124.8612-124.8611-124.8600-124.8600-124.8595-124.8593-124.8592
  -124.8589-124.8589-124.8588-124.8588-124.8584-124.8583-124.8583-124.8581
  -124.8574-124.8569-124.8569-124.8558-124.8557-124.8552-124.8550-124.8550
  -124.8546-124.8546-124.8546-124.8545-124.8541-124.8540-124.8540-124.8538
   -79.2351 -79.2335 -79.2335 -79.2330 -79.2329 -79.2308 -79.2308 -79.2287
   -79.2287 -79.2283 -79.2248 -79.2240 -79.2203 -79.2203 -79.2190 -79.2184
   -79.2184 -79.2172 -79.2171 -79.2168 -79.2168 -79.2165 -79.2163 -79.2163
   -79.2159 -79.2158 -79.2158 -79.2157 -79.2153 -79.2152 -79.2152 -79.2150
   -79.2134 -79.2116 -79.2116 -79.2102 -79.2102 -79.2102 -79.2095 -79.2095
   -79.2088 -79.2088 -79.2073 -79.2073 -79.2047 -79.2032 -79.2032 -79.2018
   -79.0230 -79.0214 -79.0214 -79.0209 -79.0209 -79.0189 -79.0188 -79.0187
   -79.0187 -79.0184 -79.0183 -79.0172 -79.0171 -79.0171 -79.0171 -79.0167
   -79.0166 -79.0166 -79.0166 -79.0165 -79.0163 -79.0163 -79.0162 -79.0159
   -79.0159 -79.0158 -79.0158 -79.0154 -79.0153 -79.0152 -79.0151 -79.0146
   -79.0145 -79.0145 -79.0141 -79.0141 -79.0129 -79.0128 -79.0127 -79.0124
   -79.0124 -79.0123 -79.0121 -79.0120 -79.0120 -79.0119 -79.0116 -79.0116
   -79.0116 -79.0115 -79.0111 -79.0110 -79.0110 -79.0108 -79.0084 -79.0082
   -79.0082 -79.0076 -79.0047 -79.0047 -79.0040 -79.0039 -79.0014 -79.0005
   -79.0005 -78.9996 -78.9995 -78.9982 -78.9981 -78.9981 -78.9975 -78.9975
   -78.9971 -78.9968 -78.9967 -78.9953 -78.9953 -78.9953 -78.9953 -78.9939
   -78.9939 -78.9939 -78.9932 -78.9932 -78.9927 -78.9925 -78.9925 -78.9912
   -78.9912 -78.9910 -78.9910 -78.9898 -78.9884 -78.9869 -78.9869 -78.9856
    -8.2670  -7.8202  -7.8202  -7.1073  -6.9131  -6.8409  -6.8409  -6.8014
    -6.8014  -6.7976  -6.7976  -6.7887  -6.7887  -6.7698  -6.7268  -6.7268
    -6.6993  -6.6993  -6.6538  -6.6537  -6.6228  -6.6056  -6.6056  -6.6054
    -6.6054  -6.5866  -6.5866  -6.5648  -6.5648  -6.5597  -6.5597  -6.5403
    -6.5347  -6.5347  -6.4888  -6.4888  -6.4700  -6.4700  -6.4672  -6.4619
    -6.4619  -6.4409  -6.4370  -6.4186  -6.4119  -6.4119  -6.4092  -6.4092
    -6.4011  -6.4011  -6.3929  -6.3667  -6.3667  -6.3125  -6.2983  -6.2983
    -6.2953  -6.2953  -6.2930  -6.2930  -6.2922  -6.2764  -6.2660  -6.2614
    -6.2614  -6.2559  -6.2468  -6.2468  -6.2446  -6.2446  -6.2415  -6.2194
    -6.2193  -6.1994  -6.1994  -6.1771  -6.1771  -6.1672  -6.1474  -6.1415
    -6.1386  -6.1386  -6.1174  -6.1174  -6.1076  -6.1076  -6.0928  -6.0861
    -6.0537  -6.0537  -6.0448  -6.0447  -6.0394  -6.0348  -6.0162  -6.0162
    -5.9954  -5.9893  -5.9893  -5.9851  -5.9766  -5.9765  -5.9694  -5.9694
    -5.9663  -5.9663  -5.9543  -5.9461  -5.9379  -5.9172  -5.9172  -5.9063
    -5.9063  -5.9033  -5.8966  -5.8897  -5.8897  -5.8863  -5.8826  -5.8772
    -5.8772  -5.8526  -5.8526  -5.8458  -5.8458  -5.8338  -5.8338  -5.8299
    -5.8298  -5.8298  -5.8297  -5.8042  -5.7977  -5.7977  -5.7897  -5.7692
    -5.7618  -5.7618  -5.7554  -5.7513  -5.7513  -5.7487  -5.7129  -5.7129
    -5.6902  -5.6902  -5.6899  -5.6899  -5.6558  -5.6527  -5.6527  -5.6505
    -5.6505  -5.6451  -5.6331  -5.6296  -5.6296  -5.6228  -5.6228  -5.5911
    -5.5911  -5.5903  -5.5890  -5.5890  -5.5808  -5.5808  -5.5784  -5.5784
    -5.5756  -5.5756  -5.5722  -5.5722  -5.5649  -5.5649  -5.5476  -5.5476
    -5.5464  -5.5464  -5.5417  -5.5379  -5.5335  -5.5335  -5.5134  -5.5134
    -5.5122  -5.5076  -5.5076  -5.5060  -5.5009  -5.4817  -5.4817  -5.4799
    -5.4760  -5.4760  -5.4630  -5.4588  -5.4588  -5.4588  -5.4587  -5.4557
    -5.4557  -5.4537  -5.4537  -5.4410  -5.4410  -5.4381  -5.4381  -5.4313
    -5.4313  -5.4298  -5.4149  -5.4149  -5.4073  -5.4067  -5.4067  -5.3957
    -5.3928  -5.3839  -5.3839  -5.3756  -5.3756  -5.3719  -5.3687  -5.3667
    -5.3620  -5.3620  -5.3322  -5.3258  -5.3258  -5.3050  -5.3049  -5.2810
    -5.2721  -5.2721  -5.2716  -5.2716  -5.2677  -5.2677  -5.2529  -5.2249
    -5.1840  -5.1840  -5.1782  -5.1782  -5.1412  -5.1412  -5.0635  -5.0635
    -4.4539  -4.2305  -4.2305  -4.0411  -4.0411  -3.2425  -3.2425  -3.1941
    -3.1416  -2.8746  -2.8746  -2.8480  -2.8480  -2.7770  -2.7770  -1.7923
    -1.7923  -1.6994  -1.6994  -1.4095  -1.4095  -0.8427  -0.4734  -0.4733
    -0.4095  -0.4095  -0.3203  -0.2400   0.2974   0.3514   0.3514   0.4260
     0.4260   0.7026   0.7026   0.7935   0.9743   0.9743   1.0892   1.4186
     1.4186   1.9771   1.9771   2.5349   2.5549   2.8232   2.9868   3.0935
     3.3280   3.3280   3.3673   3.3673   3.4443   3.4478   3.4478   3.5769
     3.5769   3.6699   3.8910   3.8910   4.3760   4.3760   4.3959   4.4261
     4.4462   4.4462   4.5690   4.5690   4.8815   4.9351   5.1407   5.1407
     5.2209   5.2209   5.4136   5.4461   5.4462   5.4544   5.4544   5.6118
     5.8647   5.8647   6.0713   6.0713   6.0910   6.1271   6.1271   6.5426
     6.5426   6.5483   6.6454   6.6472   6.6472   6.7366   6.9523   7.0023
     7.0023   7.0039   7.0108   7.0108   7.0443   7.0443   7.1659   7.1659
     7.1859   7.1859   7.2120   7.2120   7.2224   7.2224   7.4470   7.4470
     8.0924   8.2158   8.2158   8.3539   8.3621   8.3842   8.3842   8.5236
     8.5236   8.5413   8.5541   8.5848   8.5848   8.6240   8.6240   8.6599
     8.6817   8.6817   8.7014   8.7454   8.8068   8.8068   9.0140   9.0141

     occupation numbers 
     1.0000   1.0000   1.0000   1.0000   1.0000   1.0000   1.0000   1.0000
     1.0000   1.0000   1.0000   1.0000   1.0000   1.0000   1.0000   1.0000
     1.0000   1.0000   1.0000   1.0000   1.0000   1.0000   1.0000   1.0000
     1.0000   1.0000   1.0000   1.0000   1.0000   1.0000   1.0000   1.0000
     1.0000   1.0000   1.0000   1.0000   1.0000   1.0000   1.0000   1.0000
     1.0000   1.0000   1.0000   1.0000   1.0000   1.0000   1.0000   1.0000
     1.0000   1.0000   1.0000   1.0000   1.0000   1.0000   1.0000   1.0000
     1.0000   1.0000   1.0000   1.0000   1.0000   1.0000   1.0000   1.0000
     1.0000   1.0000   1.0000   1.0000   1.0000   1.0000   1.0000   1.0000
     1.0000   1.0000   1.0000   1.0000   1.0000   1.0000   1.0000   1.0000
     1.0000   1.0000   1.0000   1.0000   1.0000   1.0000   1.0000   1.0000
     1.0000   1.0000   1.0000   1.0000   1.0000   1.0000   1.0000   1.0000
     1.0000   1.0000   1.0000   1.0000   1.0000   1.0000   1.0000   1.0000
     1.0000   1.0000   1.0000   1.0000   1.0000   1.0000   1.0000   1.0000
     1.0000   1.0000   1.0000   1.0000   1.0000   1.0000   1.0000   1.0000
     1.0000   1.0000   1.0000   1.0000   1.0000   1.0000   1.0000   1.0000
     1.0000   1.0000   1.0000   1.0000   1.0000   1.0000   1.0000   1.0000
     1.0000   1.0000   1.0000   1.0000   1.0000   1.0000   1.0000   1.0000
     1.0000   1.0000   1.0000   1.0000   1.0000   1.0000   1.0000   1.0000
     1.0000   1.0000   1.0000   1.0000   1.0000   1.0000   1.0000   1.0000
     1.0000   1.0000   1.0000   1.0000   1.0000   1.0000   1.0000   1.0000
     1.0000   1.0000   1.0000   1.0000   1.0000   1.0000   1.0000   1.0000
     1.0000   1.0000   1.0000   1.0000   1.0000   1.0000   1.0000   1.0000
     1.0000   1.0000   1.0000   1.0000   1.0000   1.0000   1.0000   1.0000
     1.0000   1.0000   1.0000   1.0000   1.0000   1.0000   1.0000   1.0000
     1.0000   1.0000   1.0000   1.0000   1.0000   1.0000   1.0000   1.0000
     1.0000   1.0000   1.0000   1.0000   1.0000   1.0000   1.0000   1.0000
     1.0000   1.0000   1.0000   1.0000   1.0000   1.0000   1.0000   1.0000
     1.0000   1.0000   1.0000   1.0000   1.0000   1.0000   1.0000   1.0000
     1.0000   1.0000   1.0000   1.0000   1.0000   1.0000   1.0000   1.0000
     1.0000   1.0000   1.0000   1.0000   1.0000   1.0000   1.0000   1.0000
     1.0000   1.0000   1.0000   1.0000   1.0000   1.0000   1.0000   1.0000
     1.0000   1.0000   1.0000   1.0000   1.0000   1.0000   1.0000   1.0000
     1.0000   1.0000   1.0000   1.0000   1.0000   1.0000   1.0000   1.0000
     1.0000   1.0000   1.0000   1.0000   1.0000   1.0000   1.0000   1.0000
     1.0000   1.0000   1.0000   1.0000   1.0000   1.0000   1.0000   1.0000
     1.0000   1.0000   1.0000   1.0000   1.0000   1.0000   1.0000   1.0000
     1.0000   1.0000   1.0000   1.0000   1.0000   1.0000   1.0000   1.0000
     1.0000   1.0000   1.0000   1.0000   1.0000   1.0000   1.0000   1.0000
     1.0000   1.0000   1.0000   1.0000   1.0000   1.0000   1.0000   1.0000
     1.0000   1.0000   1.0000   1.0000   1.0000   1.0000   1.0000   1.0000
     1.0000   1.0000   1.0000   1.0000   1.0000   1.0000   1.0000   1.0000
     1.0000   1.0000   1.0000   1.0000   1.0000   1.0000   1.0000   1.0000
     1.0000   1.0000   1.0000   1.0000   1.0000   1.0000   1.0000   1.0000
     1.0000   1.0000   1.0000   1.0000   1.0000   1.0000   1.0000   1.0000
     1.0000   1.0000   1.0000   1.0000   1.0000   1.0000   1.0000   1.0000
     1.0000   1.0000   1.0000   1.0000   1.0000   1.0000   1.0000   1.0000
     1.0000   1.0000   1.0000   1.0000   1.0000   1.0000   1.0000   1.0000
     1.0000   1.0000   1.0000   1.0000   1.0000   1.0000   1.0000   1.0000
     1.0000   1.0000   1.0000   1.0000   1.0000   1.0000   1.0000   1.0000
     1.0000   1.0000   1.0000   1.0000   1.0000   1.0000   1.0000   1.0000
     1.0000   1.0000   1.0000   1.0000   1.0000   1.0000   1.0000   1.0000
     1.0000   1.0000   1.0000   1.0000   1.0000   1.0000   1.0000   1.0000
     1.0000   1.0000   1.0000   1.0000   1.0000   1.0000   1.0000   1.0000
     1.0000   1.0000   1.0000   1.0000   1.0000   1.0000   1.0000   1.0000
     1.0000   1.0000   1.0000   1.0000   1.0000   1.0000   1.0000   1.0000
     1.0000   1.0000   1.0000   1.0000   1.0000   1.0000   1.0000   1.0000
     1.0000   1.0000   1.0000   1.0000   1.0000   1.0000   1.0000   1.0000
     1.0000   1.0000   1.0000   1.0000   1.0000   1.0000   1.0000   1.0000
     1.0000   1.0052   1.0052   1.0163   1.0691   1.0691   1.0778   0.4442
     0.4442   0.0003   0.0003   0.0000   0.0000   0.0000   0.0000   0.0000
     0.0000   0.0000   0.0000   0.0000   0.0000   0.0000   0.0000   0.0000
     0.0000   0.0000   0.0000   0.0000   0.0000   0.0000   0.0000   0.0000
     0.0000   0.0000   0.0000   0.0000   0.0000   0.0000   0.0000   0.0000
     0.0000   0.0000   0.0000   0.0000   0.0000   0.0000   0.0000   0.0000
     0.0000   0.0000   0.0000   0.0000   0.0000   0.0000   0.0000   0.0000
     0.0000   0.0000   0.0000   0.0000   0.0000   0.0000   0.0000   0.0000
     0.0000   0.0000   0.0000   0.0000   0.0000   0.0000   0.0000   0.0000
     0.0000   0.0000   0.0000   0.0000   0.0000   0.0000   0.0000   0.0000
     0.0000   0.0000   0.0000   0.0000   0.0000   0.0000   0.0000   0.0000
     0.0000   0.0000   0.0000   0.0000   0.0000   0.0000   0.0000   0.0000
     0.0000   0.0000   0.0000   0.0000   0.0000   0.0000   0.0000   0.0000

          k = 0.2500-0.4330 0.0000 ( 64876 PWs)   bands (ev):

  -125.0704-125.0700-125.0700-125.0688-125.0688-125.0683-125.0681-125.0681
  -125.0677-125.0677-125.0676-125.0676-125.0672-125.0671-125.0671-125.0669
  -124.8616-124.8612-124.8611-124.8600-124.8600-124.8595-124.8593-124.8592
  -124.8589-124.8589-124.8588-124.8588-124.8584-124.8583-124.8583-124.8581
  -124.8574-124.8569-124.8569-124.8558-124.8557-124.8552-124.8550-124.8550
  -124.8546-124.8546-124.8545-124.8545-124.8541-124.8541-124.8540-124.8538
   -79.2351 -79.2335 -79.2335 -79.2330 -79.2330 -79.2308 -79.2308 -79.2287
   -79.2287 -79.2283 -79.2248 -79.2240 -79.2203 -79.2203 -79.2190 -79.2184
   -79.2184 -79.2171 -79.2171 -79.2168 -79.2168 -79.2165 -79.2163 -79.2163
   -79.2159 -79.2158 -79.2157 -79.2157 -79.2153 -79.2152 -79.2152 -79.2150
   -79.2134 -79.2116 -79.2116 -79.2102 -79.2102 -79.2102 -79.2095 -79.2095
   -79.2088 -79.2088 -79.2073 -79.2073 -79.2047 -79.2032 -79.2032 -79.2018
   -79.0230 -79.0214 -79.0214 -79.0209 -79.0209 -79.0189 -79.0188 -79.0187
   -79.0187 -79.0184 -79.0183 -79.0171 -79.0171 -79.0171 -79.0171 -79.0167
   -79.0166 -79.0166 -79.0166 -79.0165 -79.0163 -79.0163 -79.0162 -79.0159
   -79.0159 -79.0158 -79.0158 -79.0154 -79.0153 -79.0152 -79.0151 -79.0146
   -79.0145 -79.0145 -79.0141 -79.0141 -79.0129 -79.0129 -79.0127 -79.0124
   -79.0124 -79.0123 -79.0121 -79.0120 -79.0120 -79.0119 -79.0117 -79.0116
   -79.0115 -79.0115 -79.0111 -79.0110 -79.0110 -79.0108 -79.0084 -79.0082
   -79.0082 -79.0076 -79.0047 -79.0047 -79.0040 -79.0040 -79.0014 -79.0005
   -79.0005 -78.9996 -78.9995 -78.9982 -78.9981 -78.9981 -78.9975 -78.9975
   -78.9971 -78.9968 -78.9967 -78.9953 -78.9953 -78.9953 -78.9953 -78.9939
   -78.9939 -78.9939 -78.9932 -78.9932 -78.9927 -78.9925 -78.9925 -78.9912
   -78.9912 -78.9910 -78.9910 -78.9898 -78.9884 -78.9869 -78.9869 -78.9856
    -8.2670  -7.8202  -7.8202  -7.1073  -6.9131  -6.8409  -6.8409  -6.8014
    -6.8014  -6.7976  -6.7976  -6.7887  -6.7887  -6.7698  -6.7268  -6.7268
    -6.6993  -6.6993  -6.6537  -6.6537  -6.6228  -6.6056  -6.6056  -6.6054
    -6.6054  -6.5866  -6.5866  -6.5648  -6.5648  -6.5597  -6.5597  -6.5403
    -6.5347  -6.5347  -6.4888  -6.4888  -6.4700  -6.4700  -6.4672  -6.4619
    -6.4619  -6.4409  -6.4370  -6.4186  -6.4119  -6.4119  -6.4092  -6.4092
    -6.4011  -6.4011  -6.3929  -6.3667  -6.3667  -6.3125  -6.2983  -6.2983
    -6.2953  -6.2953  -6.2930  -6.2930  -6.2922  -6.2764  -6.2660  -6.2614
    -6.2614  -6.2559  -6.2468  -6.2468  -6.2446  -6.2446  -6.2415  -6.2193
    -6.2193  -6.1994  -6.1994  -6.1771  -6.1771  -6.1672  -6.1474  -6.1415
    -6.1386  -6.1386  -6.1174  -6.1173  -6.1076  -6.1076  -6.0928  -6.0861
    -6.0537  -6.0537  -6.0448  -6.0448  -6.0394  -6.0348  -6.0162  -6.0162
    -5.9954  -5.9893  -5.9893  -5.9851  -5.9766  -5.9765  -5.9694  -5.9694
    -5.9663  -5.9663  -5.9543  -5.9461  -5.9379  -5.9172  -5.9172  -5.9063
    -5.9063  -5.9033  -5.8966  -5.8897  -5.8897  -5.8863  -5.8826  -5.8772
    -5.8772  -5.8526  -5.8526  -5.8458  -5.8458  -5.8338  -5.8338  -5.8299
    -5.8298  -5.8298  -5.8297  -5.8042  -5.7978  -5.7977  -5.7897  -5.7692
    -5.7618  -5.7618  -5.7554  -5.7513  -5.7513  -5.7487  -5.7129  -5.7129
    -5.6902  -5.6902  -5.6899  -5.6899  -5.6558  -5.6527  -5.6527  -5.6505
    -5.6505  -5.6451  -5.6331  -5.6296  -5.6296  -5.6228  -5.6228  -5.5911
    -5.5911  -5.5903  -5.5890  -5.5890  -5.5808  -5.5808  -5.5784  -5.5784
    -5.5756  -5.5756  -5.5722  -5.5722  -5.5649  -5.5649  -5.5476  -5.5476
    -5.5464  -5.5464  -5.5417  -5.5379  -5.5335  -5.5335  -5.5134  -5.5134
    -5.5122  -5.5076  -5.5076  -5.5060  -5.5009  -5.4817  -5.4817  -5.4799
    -5.4760  -5.4760  -5.4630  -5.4588  -5.4588  -5.4587  -5.4587  -5.4557
    -5.4557  -5.4537  -5.4537  -5.4410  -5.4410  -5.4381  -5.4381  -5.4314
    -5.4313  -5.4298  -5.4149  -5.4149  -5.4073  -5.4067  -5.4067  -5.3957
    -5.3928  -5.3839  -5.3839  -5.3756  -5.3756  -5.3719  -5.3687  -5.3667
    -5.3620  -5.3620  -5.3322  -5.3258  -5.3258  -5.3050  -5.3049  -5.2810
    -5.2721  -5.2720  -5.2716  -5.2716  -5.2677  -5.2677  -5.2529  -5.2249
    -5.1840  -5.1840  -5.1782  -5.1782  -5.1412  -5.1412  -5.0635  -5.0635
    -4.4539  -4.2305  -4.2305  -4.0411  -4.0411  -3.2425  -3.2425  -3.1941
    -3.1416  -2.8746  -2.8746  -2.8480  -2.8480  -2.7770  -2.7770  -1.7923
    -1.7923  -1.6994  -1.6994  -1.4095  -1.4095  -0.8427  -0.4734  -0.4733
    -0.4095  -0.4095  -0.3203  -0.2400   0.2974   0.3514   0.3514   0.4260
     0.4260   0.7026   0.7026   0.7935   0.9743   0.9743   1.0892   1.4186
     1.4186   1.9771   1.9771   2.5349   2.5549   2.8232   2.9868   3.0935
     3.3280   3.3280   3.3673   3.3673   3.4443   3.4478   3.4478   3.5769
     3.5769   3.6699   3.8910   3.8910   4.3760   4.3760   4.3959   4.4261
[...]
     1.0000   1.0000   1.0000   1.0000   1.0000   1.0000   1.0000   1.0000
     1.0000   1.0000   1.0000   1.0000   1.0000   1.0000   1.0000   1.0000
     1.0000   1.0000   1.0000   1.0000   1.0000   1.0000   1.0000   1.0000
     1.0000   1.0000   1.0000   1.0000   1.0000   1.0000   1.0000   1.0000
     1.0000   1.0000   1.0000   1.0000   1.0000   1.0000   1.0000   1.0000
     1.0000   1.0000   1.0000   1.0000   1.0000   1.0000   1.0000   1.0000
     1.0000   1.0000   1.0000   1.0000   1.0000   1.0000   1.0000   1.0000
     1.0000   1.0000   1.0000   1.0000   1.0000   1.0000   1.0000   1.0000
     1.0000   1.0000   1.0000   1.0000   1.0000   1.0000   1.0000   1.0000
     1.0000   1.0000   1.0000   1.0000   1.0000   1.0000   1.0000   1.0000
     1.0000   1.0000   1.0000   1.0000   1.0000   1.0000   1.0000   1.0000
     1.0000   1.0000   1.0000   1.0000   1.0000   1.0000   1.0000   1.0000
     1.0000   1.0000   1.0000   1.0000   1.0000   1.0000   1.0000   1.0000
     1.0000   1.0000   1.0000   1.0000   1.0000   1.0000   1.0000   1.0000
     1.0000   1.0000   1.0000   1.0000   1.0000   1.0000   1.0000   1.0000
     1.0000   1.0000   1.0000   1.0000   1.0000   1.0000   1.0000   1.0000
     1.0000   1.0000   1.0000   1.0000   1.0000   1.0000   1.0000   1.0000
     1.0000   1.0000   1.0000   1.0000   1.0000   1.0000   1.0000   1.0000
     1.0000   1.0000   1.0000   1.0000   1.0000   1.0000   1.0000   1.0000
     1.0000   1.0000   1.0000   1.0000   1.0000   1.0000   1.0000   1.0000
     1.0000   1.0000   1.0000   1.0000   1.0000   1.0000   1.0000   1.0000
     1.0000   1.0000   1.0000   1.0000   1.0000   1.0000   1.0000   1.0000
     1.0000   1.0000   1.0000   1.0000   1.0000   1.0000   1.0000   1.0000
     1.0000   1.0000   1.0000   1.0000   1.0000   1.0000   1.0000   1.0000
     1.0000   1.0000   1.0000   1.0000   1.0000   1.0000   1.0000   1.0000
     1.0000   1.0000   1.0000   1.0000   1.0000   1.0000   1.0000   1.0000
     1.0000   1.0000   1.0000   1.0000   1.0000   1.0000   1.0000   1.0000
     1.0000   1.0000   1.0000   1.0000   1.0000   1.0000   1.0000   1.0000
     1.0000   1.0000   1.0000   1.0000   1.0000   1.0000   1.0000   1.0000
     1.0000   1.0000   1.0000   1.0000   1.0000   1.0000   1.0000   1.0000
     1.0000   1.0000   1.0000   1.0000   1.0000   1.0000   1.0000   1.0000
     1.0000   1.0000   1.0000   1.0000   1.0000   1.0000   1.0000   1.0000
     1.0000   1.0000   1.0000   1.0000   1.0000   1.0000   1.0000   1.0000
     1.0000   1.0000   1.0000   1.0000   1.0000   1.0000   1.0000   1.0000
     1.0000   1.0000   1.0000   1.0000   1.0000   1.0000   1.0000   1.0000
     1.0000   1.0000   1.0000   1.0000   1.0000   1.0000   1.0000   1.0000
     1.0000   1.0000   1.0000   1.0000   1.0000   1.0000   1.0000   1.0000
     1.0000   1.0000   1.0000   1.0000   1.0000   1.0000   1.0000   1.0000
     1.0000   1.0000   1.0000   1.0000   1.0000   1.0000   1.0000   1.0000
     1.0000   1.0000   1.0000   1.0000   1.0000   1.0000   1.0000   1.0000
     1.0000   1.0000   1.0000   1.0000   1.0000   1.0000   1.0000   1.0000
     1.0000   1.0052   1.0052   1.0163   1.0691   1.0691   1.0778   0.4442
     0.4442   0.0003   0.0003   0.0000   0.0000   0.0000   0.0000   0.0000
     0.0000   0.0000   0.0000   0.0000   0.0000   0.0000   0.0000   0.0000
     0.0000   0.0000   0.0000   0.0000   0.0000   0.0000   0.0000   0.0000
     0.0000   0.0000   0.0000   0.0000   0.0000   0.0000   0.0000   0.0000
     0.0000   0.0000   0.0000   0.0000   0.0000   0.0000   0.0000   0.0000
     0.0000   0.0000   0.0000   0.0000   0.0000   0.0000   0.0000   0.0000
     0.0000   0.0000   0.0000   0.0000   0.0000   0.0000   0.0000   0.0000
     0.0000   0.0000   0.0000   0.0000   0.0000   0.0000   0.0000   0.0000
     0.0000   0.0000   0.0000   0.0000   0.0000   0.0000   0.0000   0.0000
     0.0000   0.0000   0.0000   0.0000   0.0000   0.0000   0.0000   0.0000
     0.0000   0.0000   0.0000   0.0000   0.0000   0.0000   0.0000   0.0000
     0.0000   0.0000   0.0000   0.0000   0.0000   0.0000   0.0000   0.0000

          k =-0.5000-0.8660 0.0000 ( 64842 PWs)   bands (ev):

  -125.0703-125.0703-125.0695-125.0694-125.0683-125.0682-125.0682-125.0682
  -125.0679-125.0678-125.0674-125.0673-125.0673-125.0673-125.0670-125.0670
  -124.8615-124.8615-124.8606-124.8606-124.8594-124.8594-124.8594-124.8594
  -124.8591-124.8590-124.8586-124.8585-124.8585-124.8585-124.8582-124.8581
  -124.8572-124.8572-124.8564-124.8564-124.8552-124.8552-124.8551-124.8551
  -124.8548-124.8548-124.8543-124.8543-124.8542-124.8542-124.8539-124.8539
   -79.2341 -79.2340 -79.2340 -79.2340 -79.2316 -79.2315 -79.2305 -79.2305
   -79.2260 -79.2260 -79.2260 -79.2260 -79.2211 -79.2211 -79.2188 -79.2188
   -79.2179 -79.2178 -79.2165 -79.2164 -79.2164 -79.2164 -79.2160 -79.2160
   -79.2155 -79.2154 -79.2154 -79.2154 -79.2150 -79.2150 -79.2145 -79.2145
   -79.2130 -79.2129 -79.2129 -79.2129 -79.2096 -79.2096 -79.2096 -79.2096
   -79.2088 -79.2088 -79.2060 -79.2060 -79.2050 -79.2050 -79.2021 -79.2021
   -79.0220 -79.0219 -79.0219 -79.0219 -79.0195 -79.0194 -79.0188 -79.0187
   -79.0184 -79.0184 -79.0178 -79.0178 -79.0177 -79.0177 -79.0177 -79.0176
   -79.0165 -79.0164 -79.0164 -79.0164 -79.0161 -79.0160 -79.0156 -79.0155
   -79.0155 -79.0155 -79.0152 -79.0152 -79.0151 -79.0151 -79.0145 -79.0145
   -79.0142 -79.0142 -79.0139 -79.0139 -79.0139 -79.0139 -79.0135 -79.0135
   -79.0122 -79.0122 -79.0122 -79.0122 -79.0118 -79.0118 -79.0113 -79.0113
   -79.0112 -79.0112 -79.0109 -79.0109 -79.0097 -79.0097 -79.0097 -79.0097
   -79.0090 -79.0090 -79.0048 -79.0048 -79.0025 -79.0024 -79.0010 -79.0009
   -79.0009 -79.0009 -78.9982 -78.9982 -78.9976 -78.9976 -78.9976 -78.9976
   -78.9968 -78.9967 -78.9967 -78.9967 -78.9966 -78.9966 -78.9940 -78.9940
   -78.9933 -78.9933 -78.9933 -78.9933 -78.9930 -78.9930 -78.9925 -78.9925
   -78.9901 -78.9901 -78.9897 -78.9897 -78.9888 -78.9887 -78.9859 -78.9858
    -8.1528  -8.1528  -7.3141  -7.3141  -7.0214  -7.0214  -6.8628  -6.8628
    -6.8605  -6.8605  -6.7507  -6.7507  -6.7507  -6.7507  -6.6519  -6.6518
    -6.6473  -6.6472  -6.6472  -6.6472  -6.6211  -6.6211  -6.6066  -6.6066
    -6.6066  -6.6066  -6.5533  -6.5532  -6.5254  -6.5254  -6.5254  -6.5254
    -6.5028  -6.5028  -6.4875  -6.4875  -6.4874  -6.4874  -6.4612  -6.4611
    -6.4611  -6.4611  -6.4593  -6.4592  -6.4504  -6.4504  -6.4271  -6.4271
    -6.4189  -6.4189  -6.4189  -6.4189  -6.3084  -6.3084  -6.3029  -6.3029
    -6.2899  -6.2899  -6.2898  -6.2898  -6.2898  -6.2898  -6.2686  -6.2686
    -6.2686  -6.2686  -6.2359  -6.2358  -6.2189  -6.2189  -6.2189  -6.2188
    -6.2062  -6.2062  -6.2002  -6.2002  -6.1714  -6.1713  -6.1399  -6.1399
    -6.1082  -6.1082  -6.1010  -6.1010  -6.0807  -6.0807  -6.0807  -6.0807
    -6.0618  -6.0618  -6.0618  -6.0618  -6.0385  -6.0385  -6.0284  -6.0284
    -6.0246  -6.0246  -6.0196  -6.0196  -6.0110  -6.0110  -5.9882  -5.9882
    -5.9882  -5.9882  -5.9459  -5.9458  -5.9417  -5.9417  -5.9124  -5.9124
    -5.9028  -5.9028  -5.8722  -5.8722  -5.8722  -5.8722  -5.8119  -5.8119
    -5.8085  -5.8085  -5.8066  -5.8066  -5.8066  -5.8066  -5.8064  -5.8064
    -5.7853  -5.7853  -5.7806  -5.7806  -5.7750  -5.7750  -5.7750  -5.7750
    -5.7667  -5.7667  -5.7648  -5.7648  -5.7648  -5.7647  -5.7572  -5.7572
    -5.7524  -5.7524  -5.7524  -5.7524  -5.6723  -5.6723  -5.6705  -5.6705
    -5.6659  -5.6659  -5.6441  -5.6441  -5.6440  -5.6440  -5.6317  -5.6317
    -5.6207  -5.6207  -5.6026  -5.6026  -5.6026  -5.6026  -5.5917  -5.5917
    -5.5676  -5.5676  -5.5423  -5.5423  -5.5280  -5.5280  -5.5280  -5.5280
    -5.5233  -5.5233  -5.5233  -5.5233  -5.5202  -5.5202  -5.5183  -5.5183
    -5.4969  -5.4969  -5.4969  -5.4969  -5.4859  -5.4859  -5.4857  -5.4857
    -5.4850  -5.4850  -5.4754  -5.4754  -5.4619  -5.4619  -5.4619  -5.4619
    -5.4486  -5.4485  -5.4485  -5.4485  -5.4370  -5.4370  -5.4207  -5.4207
    -5.4146  -5.4146  -5.4146  -5.4146  -5.4108  -5.4107  -5.4100  -5.4099
    -5.4026  -5.4026  -5.4017  -5.4016  -5.3996  -5.3995  -5.3680  -5.3679
    -5.3615  -5.3615  -5.3615  -5.3615  -5.3210  -5.3210  -5.3210  -5.3210
    -5.2506  -5.2506  -5.2506  -5.2506  -5.2344  -5.2344  -5.2312  -5.2312
    -5.2312  -5.2312  -5.1985  -5.1984  -5.1935  -5.1935  -4.7001  -4.7001
    -4.4160  -4.4160  -4.4160  -4.4160  -3.7255  -3.7255  -3.1091  -3.1090
    -3.0582  -3.0582  -3.0582  -3.0582  -2.3896  -2.3896  -2.2361  -2.2361
    -1.7552  -1.7552  -1.7551  -1.7551  -0.7529  -0.7529  -0.7529  -0.7529
    -0.3214  -0.3214  -0.3214  -0.3214  -0.0889  -0.0889   0.0158   0.0158
     1.0239   1.0239   1.0506   1.0506   1.3409   1.3409   1.3732   1.3732
     1.3732   1.3732   2.2280   2.2280   2.9019   2.9019   2.9020   2.9020
     3.1030   3.1030   3.1030   3.1030   3.3254   3.3254   3.5560   3.5560
     3.8701   3.8701   3.8701   3.8701   3.9997   3.9997   4.2604   4.2604
     4.4480   4.4480   4.7489   4.7489   4.8610   4.8610   5.4838   5.4838
     5.5264   5.5264   5.7267   5.7267   5.8044   5.8044   5.9306   5.9306
     5.9306   5.9306   5.9851   5.9852   5.9852   5.9852   6.1548   6.1548
     6.1548   6.1548   6.4279   6.4279   6.5633   6.5633   6.6451   6.6451
     6.6641   6.6641   6.8490   6.8490   6.8673   6.8673   7.0162   7.0162
     7.0162   7.0162   7.5867   7.5868   7.7465   7.7465   8.0649   8.0649
     8.0920   8.0920   8.0920   8.0920   8.2812   8.2812   8.4783   8.4783
     8.4784   8.4784   8.6296   8.6296   8.6296   8.6296   8.6693   8.6695
     8.7387   8.7387   8.8125   8.8126   9.0005   9.0006   9.0006   9.0007

     occupation numbers 
     1.0000   1.0000   1.0000   1.0000   1.0000   1.0000   1.0000   1.0000
     1.0000   1.0000   1.0000   1.0000   1.0000   1.0000   1.0000   1.0000
     1.0000   1.0000   1.0000   1.0000   1.0000   1.0000   1.0000   1.0000
     1.0000   1.0000   1.0000   1.0000   1.0000   1.0000   1.0000   1.0000
     1.0000   1.0000   1.0000   1.0000   1.0000   1.0000   1.0000   1.0000
     1.0000   1.0000   1.0000   1.0000   1.0000   1.0000   1.0000   1.0000
     1.0000   1.0000   1.0000   1.0000   1.0000   1.0000   1.0000   1.0000
     1.0000   1.0000   1.0000   1.0000   1.0000   1.0000   1.0000   1.0000
     1.0000   1.0000   1.0000   1.0000   1.0000   1.0000   1.0000   1.0000
     1.0000   1.0000   1.0000   1.0000   1.0000   1.0000   1.0000   1.0000
     1.0000   1.0000   1.0000   1.0000   1.0000   1.0000   1.0000   1.0000
     1.0000   1.0000   1.0000   1.0000   1.0000   1.0000   1.0000   1.0000
     1.0000   1.0000   1.0000   1.0000   1.0000   1.0000   1.0000   1.0000
     1.0000   1.0000   1.0000   1.0000   1.0000   1.0000   1.0000   1.0000
     1.0000   1.0000   1.0000   1.0000   1.0000   1.0000   1.0000   1.0000
     1.0000   1.0000   1.0000   1.0000   1.0000   1.0000   1.0000   1.0000
     1.0000   1.0000   1.0000   1.0000   1.0000   1.0000   1.0000   1.0000
     1.0000   1.0000   1.0000   1.0000   1.0000   1.0000   1.0000   1.0000
     1.0000   1.0000   1.0000   1.0000   1.0000   1.0000   1.0000   1.0000
     1.0000   1.0000   1.0000   1.0000   1.0000   1.0000   1.0000   1.0000
     1.0000   1.0000   1.0000   1.0000   1.0000   1.0000   1.0000   1.0000
     1.0000   1.0000   1.0000   1.0000   1.0000   1.0000   1.0000   1.0000
     1.0000   1.0000   1.0000   1.0000   1.0000   1.0000   1.0000   1.0000
     1.0000   1.0000   1.0000   1.0000   1.0000   1.0000   1.0000   1.0000
     1.0000   1.0000   1.0000   1.0000   1.0000   1.0000   1.0000   1.0000
     1.0000   1.0000   1.0000   1.0000   1.0000   1.0000   1.0000   1.0000
     1.0000   1.0000   1.0000   1.0000   1.0000   1.0000   1.0000   1.0000
     1.0000   1.0000   1.0000   1.0000   1.0000   1.0000   1.0000   1.0000
     1.0000   1.0000   1.0000   1.0000   1.0000   1.0000   1.0000   1.0000
     1.0000   1.0000   1.0000   1.0000   1.0000   1.0000   1.0000   1.0000
     1.0000   1.0000   1.0000   1.0000   1.0000   1.0000   1.0000   1.0000
     1.0000   1.0000   1.0000   1.0000   1.0000   1.0000   1.0000   1.0000
     1.0000   1.0000   1.0000   1.0000   1.0000   1.0000   1.0000   1.0000
     1.0000   1.0000   1.0000   1.0000   1.0000   1.0000   1.0000   1.0000
     1.0000   1.0000   1.0000   1.0000   1.0000   1.0000   1.0000   1.0000
     1.0000   1.0000   1.0000   1.0000   1.0000   1.0000   1.0000   1.0000
     1.0000   1.0000   1.0000   1.0000   1.0000   1.0000   1.0000   1.0000
     1.0000   1.0000   1.0000   1.0000   1.0000   1.0000   1.0000   1.0000
     1.0000   1.0000   1.0000   1.0000   1.0000   1.0000   1.0000   1.0000
     1.0000   1.0000   1.0000   1.0000   1.0000   1.0000   1.0000   1.0000
     1.0000   1.0000   1.0000   1.0000   1.0000   1.0000   1.0000   1.0000
     1.0000   1.0000   1.0000   1.0000   1.0000   1.0000   1.0000   1.0000
     1.0000   1.0000   1.0000   1.0000   1.0000   1.0000   1.0000   1.0000
     1.0000   1.0000   1.0000   1.0000   1.0000   1.0000   1.0000   1.0000
     1.0000   1.0000   1.0000   1.0000   1.0000   1.0000   1.0000   1.0000
     1.0000   1.0000   1.0000   1.0000   1.0000   1.0000   1.0000   1.0000
     1.0000   1.0000   1.0000   1.0000   1.0000   1.0000   1.0000   1.0000
     1.0000   1.0000   1.0000   1.0000   1.0000   1.0000   1.0000   1.0000
     1.0000   1.0000   1.0000   1.0000   1.0000   1.0000   1.0000   1.0000
     1.0000   1.0000   1.0000   1.0000   1.0000   1.0000   1.0000   1.0000
     1.0000   1.0000   1.0000   1.0000   1.0000   1.0000   1.0000   1.0000
     1.0000   1.0000   1.0000   1.0000   1.0000   1.0000   1.0000   1.0000
     1.0000   1.0000   1.0000   1.0000   1.0000   1.0000   1.0000   1.0000
     1.0000   1.0000   1.0000   1.0000   1.0000   1.0000   1.0000   1.0000
     1.0000   1.0000   1.0000   1.0000   1.0000   1.0000   1.0000   1.0000
     1.0000   1.0000   1.0000   1.0000   1.0000   1.0000   1.0000   1.0000
     1.0000   1.0000   1.0000   1.0000   1.0000   1.0000   1.0000   1.0000
     1.0000   1.0000   1.0000   1.0000   1.0000   1.0000   1.0000   1.0000
     1.0000   1.0000   1.0000   1.0000   1.0000   1.0000   1.0000   1.0000
     1.0812   1.0812   1.0833   1.0833   0.6564   0.6564   0.5670   0.5670
     0.5670   0.5670   0.0000   0.0000   0.0000   0.0000   0.0000   0.0000
     0.0000   0.0000   0.0000   0.0000   0.0000   0.0000   0.0000   0.0000
     0.0000   0.0000   0.0000   0.0000   0.0000   0.0000   0.0000   0.0000
     0.0000   0.0000   0.0000   0.0000   0.0000   0.0000   0.0000   0.0000
     0.0000   0.0000   0.0000   0.0000   0.0000   0.0000   0.0000   0.0000
     0.0000   0.0000   0.0000   0.0000   0.0000   0.0000   0.0000   0.0000
     0.0000   0.0000   0.0000   0.0000   0.0000   0.0000   0.0000   0.0000
     0.0000   0.0000   0.0000   0.0000   0.0000   0.0000   0.0000   0.0000
     0.0000   0.0000   0.0000   0.0000   0.0000   0.0000   0.0000   0.0000
     0.0000   0.0000   0.0000   0.0000   0.0000   0.0000   0.0000   0.0000
     0.0000   0.0000   0.0000   0.0000   0.0000   0.0000   0.0000   0.0000
     0.0000   0.0000   0.0000   0.0000   0.0000   0.0000   0.0000   0.0000

     the Fermi energy is     1.4356 ev

!    total energy              =  -22154.25529948 Ry
     estimated scf accuracy    <       0.00007602 Ry
     smearing contrib. (-TS)   =       0.00142920 Ry
     internal energy E=F+TS    =  -22154.25672868 Ry

     The total energy is F=E-TS. E is the sum of the following terms:
     one-electron contribution = -144864.98342971 Ry
     hartree contribution      =   72365.63030045 Ry
     xc contribution           =   -2024.15154312 Ry
     ewald contribution        =   52369.24794370 Ry

     convergence has been achieved in   6 iterations

     Writing all to output data dir ./tmp/Zn002.save/ :
     XML data file, charge density, pseudopotentials, collected wavefunctions

     init_run     :    114.64s CPU    115.45s WALL (       1 calls)
     electrons    :   4909.53s CPU   4948.03s WALL (       1 calls)

     Called by init_run:
     wfcinit      :    113.34s CPU    114.11s WALL (       1 calls)
     wfcinit:atom :      0.07s CPU      0.12s WALL (      10 calls)
     wfcinit:wfcr :    112.24s CPU    112.83s WALL (      10 calls)
     potinit      :      0.08s CPU      0.09s WALL (       1 calls)
     hinit0       :      0.03s CPU      0.03s WALL (       1 calls)

     Called by electrons:
     c_bands      :   4701.39s CPU   4737.49s WALL (       7 calls)
     sum_band     :    192.73s CPU    194.36s WALL (       7 calls)
     v_of_rho     :      0.48s CPU      0.50s WALL (       7 calls)
     v_h          :      0.03s CPU      0.04s WALL (       7 calls)
     v_xc         :      0.45s CPU      0.47s WALL (       7 calls)
     newd         :     15.73s CPU     16.44s WALL (       7 calls)
     mix_rho      :      0.05s CPU      0.05s WALL (       7 calls)

     Called by c_bands:
     init_us_2    :      2.72s CPU      2.75s WALL (     150 calls)
     cegterg      :   4695.63s CPU   4731.56s WALL (      70 calls)

     Called by sum_band:
     sum_band:wei :      0.03s CPU      0.03s WALL (       7 calls)
     sum_band:loo :    186.52s CPU    187.49s WALL (       7 calls)
     sum_band:buf :      0.59s CPU      0.61s WALL (      70 calls)
     sum_band:ini :      1.29s CPU      1.30s WALL (      70 calls)
     sum_band:cal :    158.98s CPU    159.73s WALL (      70 calls)
     sum_band:bec :      1.43s CPU      1.43s WALL (      70 calls)
     addusdens    :      5.43s CPU      6.07s WALL (       7 calls)
                                        0.00s GPU  (       7 calls)
     addusd:skk   :      0.05s CPU      0.11s WALL (       7 calls)
                                        0.00s GPU  (       7 calls)

     Called by *egterg:
     cdiaghg      :    219.05s CPU    227.22s WALL (     540 calls)
     cegterg:over :   1025.53s CPU   1028.94s WALL (     480 calls)
     cegterg:upda :    314.39s CPU    316.86s WALL (     480 calls)
     cegterg:last :   1838.06s CPU   1847.34s WALL (     140 calls)
     cdiaghg:chol :     12.58s CPU     12.61s WALL (     540 calls)
     cdiaghg:inve :      2.07s CPU      2.07s WALL (     540 calls)
     cdiaghg:para :     56.10s CPU     57.28s WALL (    1080 calls)
     h_psi        :    857.12s CPU    863.26s WALL (     560 calls)
     s_psi        :    354.98s CPU    355.89s WALL (     560 calls)
     g_psi        :      0.42s CPU      0.42s WALL (     480 calls)

     Called by h_psi:
     h_psi:calbec :    386.56s CPU    388.45s WALL (     560 calls)
     vloc_psi     :    111.65s CPU    112.53s WALL (     560 calls)
     add_vuspsi   :    357.79s CPU    358.78s WALL (     560 calls)

     General routines
     calbec       :    545.54s CPU    548.17s WALL (     630 calls)
     fft          :      0.96s CPU      1.00s WALL (      89 calls)
     ffts         :      0.01s CPU      0.02s WALL (      14 calls)
     fftw         :    118.42s CPU    119.32s WALL (  235730 calls)
     interpolate  :      0.03s CPU      0.03s WALL (       7 calls)

     Parallel routines

     PWSCF        :      1h23m CPU      1h24m WALL


   This run was terminated on:  20:54: 8  26Mar2025            

=------------------------------------------------------------------------------=
   JOB DONE.
=------------------------------------------------------------------------------=
Note: The following floating-point exceptions are signalling: IEEE_DENORMAL
Note: The following floating-point exceptions are signalling: IEEE_DENORMAL
Note: The following floating-point exceptions are signalling: IEEE_DENORMAL
Note: The following floating-point exceptions are signalling: IEEE_DENORMAL
Note: The following floating-point exceptions are signalling: IEEE_DENORMAL
Note: The following floating-point exceptions are signalling: IEEE_DENORMAL
Note: The following floating-point exceptions are signalling: IEEE_DENORMAL
Note: The following floating-point exceptions are signalling: IEEE_DENORMAL
Note: The following floating-point exceptions are signalling: IEEE_DENORMAL
Note: The following floating-point exceptions are signalling: IEEE_DENORMAL
Note: The following floating-point exceptions are signalling: IEEE_DENORMAL
