--------------------------------------------------------------------------
By default, for Open MPI 4.0 and later, infiniband ports on a device
are not used by default.  The intent is to use UCX for these devices.
You can override this policy by setting the btl_openib_allow_ib MCA parameter
to true.

  Local host:              psid00
  Local adapter:           mlx5_0
  Local port:              1

--------------------------------------------------------------------------
--------------------------------------------------------------------------
WARNING: There was an error initializing an OpenFabrics device.

  Local host:   psid00
  Local device: mlx5_0
--------------------------------------------------------------------------

     Program PWSCF v.7.3.1 starts on 27Jan1998 at 23:24:39 

     This program is part of the open-source Quantum ESPRESSO suite
     for quantum simulation of materials; please cite
         "P. Giannozzi et al., J. Phys.:Condens. Matter 21 395502 (2009);
         "P. Giannozzi et al., J. Phys.:Condens. Matter 29 465901 (2017);
         "P. Giannozzi et al., J. Chem. Phys. 152 154105 (2020);
          URL http://www.quantum-espresso.org", 
     in publications or presentations arising from this work. More details at
     http://www.quantum-espresso.org/quote

     Parallel version (MPI), running on    30 processors

     MPI processes distributed on     1 nodes
     105220 MiB available memory on the printing compute node when the environment starts

     Waiting for input...
     Reading input from standard input

     Current dimensions of program PWSCF are:
     Max number of different atomic species (ntypx) = 10
     Max number of k-points (npk) =  40000
     Max angular momentum in pseudopotentials (lmaxx) =  4

     R & G space division:  proc/nbgrp/npool/nimage =      30
     Subspace diagonalization in iterative solution of the eigenvalue problem:
     one sub-group per band group will be used
     custom distributed-memory algorithm (size of sub-group:  5*  5 procs)


     Parallelization info
     --------------------
     sticks:   dense  smooth     PW     G-vecs:    dense   smooth      PW
     Min         179     179     47                24161    24161    3295
     Max         180     180     48                24170    24170    3308
     Sum        5389    5389   1417               724931   724931   99009

     Using Slab Decomposition



     bravais-lattice index     =            0
     lattice parameter (alat)  =      19.7617  a.u.
     unit-cell volume          =   15176.5939 (a.u.)^3
     number of atoms/cell      =           64
     number of atomic types    =            1
     number of electrons       =      1280.00
     number of Kohn-Sham states=          768
     kinetic-energy cutoff     =      50.0000  Ry
     charge density cutoff     =     200.0000  Ry
     scf convergence threshold =      7.3E-07
     mixing beta               =       0.7000
     number of iterations used =            8  plain     mixing
     Exchange-correlation= SLA  PW   PBE  PBE
                           (   1   4   3   4   0   0   0)

     celldm(1)=  19.761696  celldm(2)=   0.000000  celldm(3)=   0.000000
     celldm(4)=   0.000000  celldm(5)=   0.000000  celldm(6)=   0.000000

     crystal axes: (cart. coord. in units of alat)
               a(1) = (   1.000000   0.000000   0.000000 )  
               a(2) = (  -0.500000   0.866025   0.000000 )  
               a(3) = (   0.000000   0.000000   2.270759 )  

     reciprocal axes: (cart. coord. in units 2 pi/alat)
               b(1) = (  1.000000  0.577350 -0.000000 )  
               b(2) = (  0.000000  1.154701  0.000000 )  
               b(3) = (  0.000000 -0.000000  0.440381 )  


     PseudoPot. # 1 for Zn read from file:
     /home/ys/qepseudo/SSSP_1.3.0_PBE_efficiency/Zn_pbe_v1.uspp.F.UPF
     MD5 check sum: df62231357ef9e81f77b2b3087fa5675
     Pseudo is Ultrasoft, Zval = 20.0
     Generated by new atomic code, or converted to UPF format
     Using radial grid of  943 points,  6 beta functions with: 
                l(1) =   0
                l(2) =   0
                l(3) =   1
                l(4) =   1
                l(5) =   2
                l(6) =   2
     Q(r) pseudized with  8 coefficients,  rinner =    1.100   1.100   1.100
                                                       1.100   1.100

     atomic species   valence    mass     pseudopotential
     Zn               20.00    65.38000     Zn( 1.00)

     No symmetry found


                                    s                        frac. trans.

      isym =  1     identity                                     

 cryst.   s( 1) = (     1          0          0      )
                  (     0          1          0      )
                  (     0          0          1      )

 cart.    s( 1) = (  1.0000000  0.0000000  0.0000000 )
                  (  0.0000000  1.0000000  0.0000000 )
                  (  0.0000000  0.0000000  1.0000000 )


   Cartesian axes

     site n.     atom                  positions (alat units)
         1        Zn     tau(   1) = (  -0.0000000   0.1443376   0.1164999  )
         2        Zn     tau(   2) = (   0.5000000   0.1443376   0.1164999  )
         3        Zn     tau(   3) = (   0.0001063   0.1443772   0.5902127  )
         4        Zn     tau(   4) = (   0.4998958   0.1443643   0.5917156  )
         5        Zn     tau(   5) = (  -0.1250000   0.3608439   0.1164999  )
         6        Zn     tau(   6) = (   0.3750000   0.3608439   0.1164999  )
         7        Zn     tau(   7) = (  -0.1249761   0.3609302   0.5908726  )
         8        Zn     tau(   8) = (   0.3749642   0.3608477   0.5913644  )
         9        Zn     tau(   9) = (  -0.2500000   0.5773503   0.1164999  )
        10        Zn     tau(  10) = (   0.2500000   0.5773503   0.1164999  )
        11        Zn     tau(  11) = (  -0.2499911   0.5773738   0.5915504  )
        12        Zn     tau(  12) = (   0.2499824   0.5772583   0.5907382  )
        13        Zn     tau(  13) = (  -0.3750000   0.7938566   0.1164999  )
        14        Zn     tau(  14) = (   0.1250000   0.7938566   0.1164999  )
        15        Zn     tau(  15) = (  -0.3749161   0.7938269   0.5909604  )
        16        Zn     tau(  16) = (   0.1249053   0.7937898   0.5911170  )
        17        Zn     tau(  17) = (   0.2500000   0.1443376   0.1164999  )
        18        Zn     tau(  18) = (   0.7500000   0.1443376   0.1164999  )
        19        Zn     tau(  19) = (   0.2499566   0.1443139   0.5910485  )
        20        Zn     tau(  20) = (   0.7500401   0.1444360   0.5909256  )
        21        Zn     tau(  21) = (   0.1250000   0.3608439   0.1164999  )
        22        Zn     tau(  22) = (   0.6250000   0.3608439   0.1164999  )
        23        Zn     tau(  23) = (   0.1249684   0.3608327   0.5904686  )
        24        Zn     tau(  24) = (   0.6250220   0.3609386   0.5917101  )
        25        Zn     tau(  25) = (  -0.0000000   0.5773503   0.1164999  )
        26        Zn     tau(  26) = (   0.5000000   0.5773503   0.1164999  )
        27        Zn     tau(  27) = (  -0.0000983   0.5773031   0.5910657  )
        28        Zn     tau(  28) = (   0.5000885   0.5773473   0.5912976  )
        29        Zn     tau(  29) = (  -0.1250000   0.7938566   0.1164999  )
        30        Zn     tau(  30) = (   0.3750000   0.7938566   0.1164999  )
        31        Zn     tau(  31) = (  -0.1251014   0.7937984   0.5915674  )
        32        Zn     tau(  32) = (   0.3751324   0.7938157   0.5904624  )
        33        Zn     tau(  33) = (   0.1250000   0.0721688   0.3494996  )
        34        Zn     tau(  34) = (   0.6250000   0.0721688   0.3494996  )
        35        Zn     tau(  35) = (   0.1249168   0.0722609   0.8321064  )
        36        Zn     tau(  36) = (   0.6250907   0.0721249   0.8320849  )
        37        Zn     tau(  37) = (   0.0000000   0.2886751   0.3494996  )
        38        Zn     tau(  38) = (   0.5000000   0.2886751   0.3494996  )
        39        Zn     tau(  39) = (   0.0001155   0.2886284   0.8318992  )
        40        Zn     tau(  40) = (   0.4998869   0.2887254   0.8327133  )
        41        Zn     tau(  41) = (  -0.1250000   0.5051815   0.3494996  )
        42        Zn     tau(  42) = (   0.3750000   0.5051815   0.3494996  )
        43        Zn     tau(  43) = (  -0.1248885   0.5051081   0.8328053  )
        44        Zn     tau(  44) = (   0.3748852   0.5052048   0.8322362  )
        45        Zn     tau(  45) = (  -0.2500000   0.7216878   0.3494996  )
        46        Zn     tau(  46) = (   0.2500000   0.7216878   0.3494996  )
        47        Zn     tau(  47) = (  -0.2500816   0.7217457   0.8330261  )
        48        Zn     tau(  48) = (   0.2500888   0.7216111   0.8315798  )
        49        Zn     tau(  49) = (   0.3750000   0.0721688   0.3494996  )
        50        Zn     tau(  50) = (   0.8750000   0.0721688   0.3494996  )
        51        Zn     tau(  51) = (   0.3748288   0.0722025   0.8328001  )
        52        Zn     tau(  52) = (   0.8751982   0.0721830   0.8313936  )
        53        Zn     tau(  53) = (   0.2500000   0.2886751   0.3494996  )
        54        Zn     tau(  54) = (   0.7500000   0.2886751   0.3494996  )
        55        Zn     tau(  55) = (   0.2498217   0.2886951   0.8322994  )
        56        Zn     tau(  56) = (   0.7501831   0.2886665   0.8323685  )
        57        Zn     tau(  57) = (   0.1250000   0.5051815   0.3494996  )
        58        Zn     tau(  58) = (   0.6250000   0.5051815   0.3494996  )
        59        Zn     tau(  59) = (   0.1250170   0.5050584   0.8321067  )
        60        Zn     tau(  60) = (   0.6249778   0.5052529   0.8329305  )
        61        Zn     tau(  61) = (   0.0000000   0.7216878   0.3494996  )
        62        Zn     tau(  62) = (   0.5000000   0.7216878   0.3494996  )
        63        Zn     tau(  63) = (   0.0000162   0.7215786   0.8326164  )
        64        Zn     tau(  64) = (   0.4999851   0.7217841   0.8320793  )

   Crystallographic axes

     site n.     atom                  positions (cryst. coord.)
         1        Zn     tau(   1) = (  0.0833333  0.1666667  0.0513044  )
         2        Zn     tau(   2) = (  0.5833333  0.1666667  0.0513044  )
         3        Zn     tau(   3) = (  0.0834625  0.1667124  0.2599187  )
         4        Zn     tau(   4) = (  0.5832446  0.1666976  0.2605806  )
         5        Zn     tau(   5) = (  0.0833333  0.4166667  0.0513044  )
         6        Zn     tau(   6) = (  0.5833333  0.4166667  0.0513044  )
         7        Zn     tau(   7) = (  0.0834070  0.4167663  0.2602093  )
         8        Zn     tau(   8) = (  0.5832997  0.4166711  0.2604259  )
         9        Zn     tau(   9) = (  0.0833333  0.6666667  0.0513044  )
        10        Zn     tau(  10) = (  0.5833333  0.6666667  0.0513044  )
        11        Zn     tau(  11) = (  0.0833558  0.6666938  0.2605078  )
        12        Zn     tau(  12) = (  0.5832626  0.6665605  0.2601501  )
        13        Zn     tau(  13) = (  0.0833333  0.9166667  0.0513044  )
        14        Zn     tau(  14) = (  0.5833333  0.9166667  0.0513044  )
        15        Zn     tau(  15) = (  0.0834001  0.9166324  0.2602480  )
        16        Zn     tau(  16) = (  0.5832000  0.9165895  0.2603170  )
        17        Zn     tau(  17) = (  0.3333333  0.1666667  0.0513044  )
        18        Zn     tau(  18) = (  0.8333333  0.1666667  0.0513044  )
        19        Zn     tau(  19) = (  0.3332763  0.1666393  0.2602868  )
        20        Zn     tau(  20) = (  0.8334303  0.1667804  0.2602327  )
        21        Zn     tau(  21) = (  0.3333333  0.4166667  0.0513044  )
        22        Zn     tau(  22) = (  0.8333333  0.4166667  0.0513044  )
        23        Zn     tau(  23) = (  0.3332952  0.4166537  0.2600314  )
        24        Zn     tau(  24) = (  0.8334099  0.4167759  0.2605781  )
        25        Zn     tau(  25) = (  0.3333333  0.6666667  0.0513044  )
        26        Zn     tau(  26) = (  0.8333333  0.6666667  0.0513044  )
        27        Zn     tau(  27) = (  0.3332078  0.6666122  0.2602944  )
        28        Zn     tau(  28) = (  0.8334201  0.6666632  0.2603965  )
        29        Zn     tau(  29) = (  0.3333333  0.9166667  0.0513044  )
        30        Zn     tau(  30) = (  0.8333333  0.9166667  0.0513044  )
        31        Zn     tau(  31) = (  0.3331983  0.9165994  0.2605153  )
        32        Zn     tau(  32) = (  0.8334421  0.9166194  0.2600287  )
        33        Zn     tau(  33) = (  0.1666667  0.0833333  0.1539131  )
        34        Zn     tau(  34) = (  0.6666667  0.0833333  0.1539131  )
        35        Zn     tau(  35) = (  0.1666366  0.0834397  0.3664442  )
        36        Zn     tau(  36) = (  0.6667321  0.0832826  0.3664347  )
        37        Zn     tau(  37) = (  0.1666667  0.3333333  0.1539131  )
        38        Zn     tau(  38) = (  0.6666667  0.3333333  0.1539131  )
        39        Zn     tau(  39) = (  0.1667552  0.3332793  0.3663530  )
        40        Zn     tau(  40) = (  0.6665826  0.3333914  0.3667115  )
        41        Zn     tau(  41) = (  0.1666667  0.5833333  0.1539131  )
        42        Zn     tau(  42) = (  0.6666667  0.5833333  0.1539131  )
        43        Zn     tau(  43) = (  0.1667358  0.5832486  0.3667520  )
        44        Zn     tau(  44) = (  0.6665653  0.5833603  0.3665014  )
        45        Zn     tau(  45) = (  0.1666667  0.8333333  0.1539131  )
        46        Zn     tau(  46) = (  0.6666667  0.8333333  0.1539131  )
        47        Zn     tau(  47) = (  0.1666184  0.8334001  0.3668492  )
        48        Zn     tau(  48) = (  0.6667112  0.8332447  0.3662123  )
        49        Zn     tau(  49) = (  0.4166667  0.0833333  0.1539131  )
        50        Zn     tau(  50) = (  0.9166667  0.0833333  0.1539131  )
        51        Zn     tau(  51) = (  0.4165149  0.0833723  0.3667497  )
        52        Zn     tau(  52) = (  0.9168731  0.0833498  0.3661303  )
        53        Zn     tau(  53) = (  0.4166667  0.3333333  0.1539131  )
        54        Zn     tau(  54) = (  0.9166667  0.3333333  0.1539131  )
        55        Zn     tau(  55) = (  0.4164999  0.3333564  0.3665292  )
        56        Zn     tau(  56) = (  0.9168448  0.3333234  0.3665596  )
        57        Zn     tau(  57) = (  0.4166667  0.5833333  0.1539131  )
        58        Zn     tau(  58) = (  0.9166667  0.5833333  0.1539131  )
        59        Zn     tau(  59) = (  0.4166127  0.5831912  0.3664443  )
        60        Zn     tau(  60) = (  0.9166857  0.5834158  0.3668071  )
        61        Zn     tau(  61) = (  0.4166667  0.8333333  0.1539131  )
        62        Zn     tau(  62) = (  0.9166667  0.8333333  0.1539131  )
        63        Zn     tau(  63) = (  0.4166198  0.8332071  0.3666688  )
        64        Zn     tau(  64) = (  0.9167074  0.8334445  0.3664323  )

     number of k points=     5  Marzari-Vanderbilt smearing, width (Ry)=  0.0200
                       cart. coord. in units 2pi/alat
        k(    1) = (   0.0000000   0.0000000   0.0000000), wk =   0.2222222
        k(    2) = (   0.0000000   0.3849002   0.0000000), wk =   0.4444444
        k(    3) = (   0.3333333   0.1924501   0.0000000), wk =   0.4444444
        k(    4) = (   0.3333333   0.5773503   0.0000000), wk =   0.4444444
        k(    5) = (   0.3333333  -0.1924501   0.0000000), wk =   0.4444444

                       cryst. coord.
        k(    1) = (   0.0000000   0.0000000   0.0000000), wk =   0.2222222
        k(    2) = (   0.0000000   0.3333333   0.0000000), wk =   0.4444444
        k(    3) = (   0.3333333   0.0000000   0.0000000), wk =   0.4444444
        k(    4) = (   0.3333333   0.3333333   0.0000000), wk =   0.4444444
        k(    5) = (   0.3333333  -0.3333333   0.0000000), wk =   0.4444444

     Dense  grid:   724931 G-vectors     FFT dimensions: (  90,  90, 216)

     Dynamical RAM for                 wfc:      35.39 MB

     Dynamical RAM for     wfc (w. buffer):     212.34 MB

     Dynamical RAM for           str. fact:       0.37 MB

     Dynamical RAM for           local pot:       0.00 MB

     Dynamical RAM for          nlocal pot:      53.09 MB

     Dynamical RAM for                qrad:       1.14 MB

     Dynamical RAM for          rho,v,vnew:       2.59 MB

     Dynamical RAM for               rhoin:       0.86 MB

     Dynamical RAM for            rho*nmix:       5.90 MB

     Dynamical RAM for           G-vectors:       1.57 MB

     Dynamical RAM for          h,s,v(r/c):       4.31 MB

     Dynamical RAM for          <psi|beta>:      13.50 MB

     Dynamical RAM for                 psi:      70.78 MB

     Dynamical RAM for                hpsi:      70.78 MB

     Dynamical RAM for                spsi:      70.78 MB

     Dynamical RAM for      wfcinit/wfcrot:      92.53 MB

     Dynamical RAM for           addusdens:      92.17 MB

     Dynamical RAM for          addusforce:     139.07 MB

     Dynamical RAM for         addusstress:      74.11 MB

     Estimated static dynamical RAM per process >     275.16 MB

     Estimated max dynamical RAM per process >     511.22 MB

     Estimated total dynamical RAM >      14.98 GB

     Initial potential from superposition of free atoms

     starting charge    1279.9910, renormalised to    1280.0000

     negative rho (up, down):  1.043E-02 0.000E+00
     Starting wfcs are  832 randomized atomic wfcs
[psid00:60042] 29 more processes have sent help message help-mpi-btl-openib.txt / ib port not selected
[psid00:60042] Set MCA parameter "orte_base_help_aggregate" to 0 to see all help / error messages
[psid00:60042] 29 more processes have sent help message help-mpi-btl-openib.txt / error in device init

     total cpu time spent up to now is      148.4 secs

     Self-consistent Calculation

     iteration #  1     ecut=    50.00 Ry     beta= 0.70
     Davidson diagonalization with overlap

---- Real-time Memory Report at c_bands before calling an iterative solver
           373 MiB given to the printing process from OS
             0 MiB allocation reported by mallinfo(arena+hblkhd)
         95729 MiB available memory on the node where the printing process lives
------------------
     ethr =  1.00E-02,  avg # of iterations =  8.4

     Threshold (ethr) on eigenvalues was too large:
     Diagonalizing with lowered threshold

     Davidson diagonalization with overlap

---- Real-time Memory Report at c_bands before calling an iterative solver
           545 MiB given to the printing process from OS
             0 MiB allocation reported by mallinfo(arena+hblkhd)
         95680 MiB available memory on the node where the printing process lives
------------------
     ethr =  1.65E-04,  avg # of iterations =  4.6

     negative rho (up, down):  9.258E-03 0.000E+00

     total cpu time spent up to now is     1246.4 secs

     total energy              =  -29538.23048275 Ry
     estimated scf accuracy    <       2.12722974 Ry

     iteration #  2     ecut=    50.00 Ry     beta= 0.70
     Davidson diagonalization with overlap

---- Real-time Memory Report at c_bands before calling an iterative solver
           546 MiB given to the printing process from OS
             0 MiB allocation reported by mallinfo(arena+hblkhd)
         95652 MiB available memory on the node where the printing process lives
------------------
     ethr =  1.66E-04,  avg # of iterations =  4.0

     negative rho (up, down):  9.184E-03 0.000E+00

     total cpu time spent up to now is     1930.0 secs

     total energy              =  -29538.59818097 Ry
     estimated scf accuracy    <       3.31081600 Ry

     iteration #  3     ecut=    50.00 Ry     beta= 0.70
     Davidson diagonalization with overlap

---- Real-time Memory Report at c_bands before calling an iterative solver
           551 MiB given to the printing process from OS
             0 MiB allocation reported by mallinfo(arena+hblkhd)
         95543 MiB available memory on the node where the printing process lives
------------------
     ethr =  1.66E-04,  avg # of iterations =  9.0

     negative rho (up, down):  8.969E-03 0.000E+00

     total cpu time spent up to now is     2558.6 secs

     total energy              =  -29539.10166200 Ry
     estimated scf accuracy    <       0.37747286 Ry

     iteration #  4     ecut=    50.00 Ry     beta= 0.70
     Davidson diagonalization with overlap

---- Real-time Memory Report at c_bands before calling an iterative solver
           552 MiB given to the printing process from OS
             0 MiB allocation reported by mallinfo(arena+hblkhd)
         95497 MiB available memory on the node where the printing process lives
------------------
     ethr =  2.95E-05,  avg # of iterations = 10.4

     negative rho (up, down):  8.724E-03 0.000E+00

     total cpu time spent up to now is     3126.5 secs

     total energy              =  -29539.01333806 Ry
     estimated scf accuracy    <       2.84690142 Ry

     iteration #  5     ecut=    50.00 Ry     beta= 0.70
     Davidson diagonalization with overlap

---- Real-time Memory Report at c_bands before calling an iterative solver
           553 MiB given to the printing process from OS
             0 MiB allocation reported by mallinfo(arena+hblkhd)
         95478 MiB available memory on the node where the printing process lives
------------------
     ethr =  2.95E-05,  avg # of iterations = 10.2

     negative rho (up, down):  8.640E-03 0.000E+00

     total cpu time spent up to now is     3686.8 secs

     total energy              =  -29539.10479791 Ry
     estimated scf accuracy    <       1.94147712 Ry

     iteration #  6     ecut=    50.00 Ry     beta= 0.70
     Davidson diagonalization with overlap

---- Real-time Memory Report at c_bands before calling an iterative solver
           554 MiB given to the printing process from OS
             0 MiB allocation reported by mallinfo(arena+hblkhd)
         95444 MiB available memory on the node where the printing process lives
------------------
     ethr =  2.95E-05,  avg # of iterations =  7.2

     negative rho (up, down):  8.654E-03 0.000E+00

     total cpu time spent up to now is     4215.1 secs

     total energy              =  -29539.23213190 Ry
     estimated scf accuracy    <       0.00676774 Ry

     iteration #  7     ecut=    50.00 Ry     beta= 0.70
     Davidson diagonalization with overlap

---- Real-time Memory Report at c_bands before calling an iterative solver
           554 MiB given to the printing process from OS
             0 MiB allocation reported by mallinfo(arena+hblkhd)
         95418 MiB available memory on the node where the printing process lives
------------------
     ethr =  5.29E-07,  avg # of iterations = 11.4

     negative rho (up, down):  8.660E-03 0.000E+00

     total cpu time spent up to now is     4773.4 secs

     total energy              =  -29539.23273668 Ry
     estimated scf accuracy    <       0.00125411 Ry

     iteration #  8     ecut=    50.00 Ry     beta= 0.70
     Davidson diagonalization with overlap

---- Real-time Memory Report at c_bands before calling an iterative solver
           555 MiB given to the printing process from OS
             0 MiB allocation reported by mallinfo(arena+hblkhd)
         95391 MiB available memory on the node where the printing process lives
------------------
     ethr =  9.80E-08,  avg # of iterations =  2.0

     negative rho (up, down):  8.664E-03 0.000E+00

     total cpu time spent up to now is     5297.1 secs

     total energy              =  -29539.23283120 Ry
     estimated scf accuracy    <       0.00017908 Ry

     iteration #  9     ecut=    50.00 Ry     beta= 0.70
     Davidson diagonalization with overlap

---- Real-time Memory Report at c_bands before calling an iterative solver
           556 MiB given to the printing process from OS
             0 MiB allocation reported by mallinfo(arena+hblkhd)
         92530 MiB available memory on the node where the printing process lives
------------------
     ethr =  1.40E-08,  avg # of iterations =  2.0

     negative rho (up, down):  8.666E-03 0.000E+00

     total cpu time spent up to now is     5827.9 secs

     total energy              =  -29539.23285689 Ry
     estimated scf accuracy    <       0.00004774 Ry

     iteration # 10     ecut=    50.00 Ry     beta= 0.70
     Davidson diagonalization with overlap

---- Real-time Memory Report at c_bands before calling an iterative solver
           557 MiB given to the printing process from OS
             0 MiB allocation reported by mallinfo(arena+hblkhd)
         92504 MiB available memory on the node where the printing process lives
------------------
     ethr =  3.73E-09,  avg # of iterations =  2.0

     negative rho (up, down):  8.666E-03 0.000E+00

     total cpu time spent up to now is     6321.5 secs

     total energy              =  -29539.23286268 Ry
     estimated scf accuracy    <       0.00002722 Ry

     iteration # 11     ecut=    50.00 Ry     beta= 0.70
     Davidson diagonalization with overlap

---- Real-time Memory Report at c_bands before calling an iterative solver
           557 MiB given to the printing process from OS
             0 MiB allocation reported by mallinfo(arena+hblkhd)
         92484 MiB available memory on the node where the printing process lives
------------------
     ethr =  2.13E-09,  avg # of iterations =  2.0

     negative rho (up, down):  8.666E-03 0.000E+00

     total cpu time spent up to now is     6805.8 secs

     total energy              =  -29539.23286645 Ry
     estimated scf accuracy    <       0.00000608 Ry

     iteration # 12     ecut=    50.00 Ry     beta= 0.70
     Davidson diagonalization with overlap

---- Real-time Memory Report at c_bands before calling an iterative solver
           558 MiB given to the printing process from OS
             0 MiB allocation reported by mallinfo(arena+hblkhd)
         92485 MiB available memory on the node where the printing process lives
------------------
     ethr =  4.75E-10,  avg # of iterations =  2.0

     negative rho (up, down):  8.666E-03 0.000E+00

     total cpu time spent up to now is     7310.2 secs

     End of self-consistent calculation

          k = 0.0000 0.0000 0.0000 ( 90569 PWs)   bands (ev):

  -123.1118-123.1104-123.1101-123.1098-123.1089-123.1087-123.1085-123.1083
  -123.1076-123.1072-123.1072-123.1064-123.1061-123.1057-123.1056-123.1049
  -123.0624-123.0609-123.0606-123.0594-123.0592-123.0591-123.0585-123.0581
  -123.0578-123.0576-123.0569-123.0566-123.0561-123.0554-123.0552-123.0545
  -122.9140-122.9125-122.9124-122.9122-122.9121-122.9120-122.9118-122.9109
  -122.9107-122.9106-122.9105-122.9104-122.9103-122.9101-122.9099-122.9097
  -122.8764-122.8749-122.8748-122.8746-122.8738-122.8737-122.8734-122.8731
  -122.8729-122.8723-122.8722-122.8717-122.8713-122.8711-122.8710-122.8707
   -77.2753 -77.2750 -77.2750 -77.2690 -77.2690 -77.2683 -77.2681 -77.2679
   -77.2679 -77.2630 -77.2614 -77.2611 -77.2608 -77.2598 -77.2596 -77.2595
   -77.2593 -77.2585 -77.2581 -77.2580 -77.2578 -77.2578 -77.2573 -77.2572
   -77.2571 -77.2570 -77.2567 -77.2567 -77.2565 -77.2565 -77.2557 -77.2557
   -77.2556 -77.2555 -77.2552 -77.2546 -77.2545 -77.2489 -77.2484 -77.2482
   -77.2443 -77.2443 -77.2442 -77.2436 -77.2433 -77.2433 -77.2392 -77.2389
   -77.2254 -77.2249 -77.2248 -77.2190 -77.2189 -77.2183 -77.2179 -77.2177
   -77.2176 -77.2136 -77.2121 -77.2118 -77.2106 -77.2103 -77.2103 -77.2096
   -77.2093 -77.2090 -77.2088 -77.2080 -77.2078 -77.2078 -77.2078 -77.2073
   -77.2071 -77.2071 -77.2066 -77.2065 -77.2065 -77.2064 -77.2057 -77.2057
   -77.2056 -77.2055 -77.2050 -77.2044 -77.2043 -77.1990 -77.1983 -77.1978
   -77.1943 -77.1942 -77.1939 -77.1937 -77.1930 -77.1930 -77.1891 -77.1887
   -77.0755 -77.0755 -77.0755 -77.0727 -77.0711 -77.0710 -77.0708 -77.0707
   -77.0705 -77.0703 -77.0693 -77.0692 -77.0692 -77.0691 -77.0690 -77.0690
   -77.0690 -77.0690 -77.0689 -77.0689 -77.0688 -77.0686 -77.0684 -77.0683
   -77.0681 -77.0580 -77.0579 -77.0579 -77.0578 -77.0577 -77.0576 -77.0561
   -77.0561 -77.0559 -77.0559 -77.0558 -77.0558 -77.0492 -77.0492 -77.0492
   -77.0448 -77.0448 -77.0447 -77.0446 -77.0445 -77.0445 -77.0401 -77.0401
   -77.0369 -77.0369 -77.0368 -77.0364 -77.0349 -77.0347 -77.0345 -77.0338
   -77.0336 -77.0335 -77.0330 -77.0327 -77.0323 -77.0322 -77.0318 -77.0314
   -77.0312 -77.0311 -77.0308 -77.0307 -77.0307 -77.0302 -77.0301 -77.0298
   -77.0298 -77.0195 -77.0195 -77.0191 -77.0190 -77.0187 -77.0187 -77.0175
   -77.0175 -77.0173 -77.0172 -77.0166 -77.0166 -77.0107 -77.0103 -77.0103
   -77.0062 -77.0061 -77.0061 -77.0056 -77.0054 -77.0054 -77.0012 -77.0011
    -6.7367  -5.9414  -5.2256  -5.1401  -5.1398  -5.1373  -5.1370  -5.1345
    -5.1343  -5.1267  -4.9464  -4.9464  -4.9464  -4.8850  -4.8850  -4.8850
    -4.7784  -4.7783  -4.7780  -4.7780  -4.7778  -4.7778  -4.7574  -4.7574
    -4.7574  -4.6754  -4.6753  -4.6753  -4.6216  -4.6216  -4.6213  -4.6212
    -4.6209  -4.6209  -4.5812  -4.5812  -4.5811  -4.5353  -4.5352  -4.5345
    -4.5344  -4.5337  -4.5337  -4.5227  -4.5227  -4.5215  -4.5214  -4.5204
    -4.5204  -4.5073  -4.5073  -4.5073  -4.4805  -4.4804  -4.4800  -4.4800
    -4.4795  -4.4795  -4.4365  -4.4365  -4.4359  -4.4358  -4.4350  -4.4349
    -4.3640  -4.3425  -4.3425  -4.3421  -4.3420  -4.3415  -4.3415  -4.3388
    -4.3388  -4.3380  -4.3378  -4.3370  -4.3370  -4.2929  -4.2929  -4.2924
    -4.2923  -4.2917  -4.2917  -4.2860  -4.2860  -4.2857  -4.2857  -4.2853
    -4.2853  -4.2838  -4.2838  -4.2837  -4.2445  -4.2444  -4.2438  -4.2438
    -4.2430  -4.2430  -4.1991  -4.1991  -4.1986  -4.1986  -4.1981  -4.1980
    -4.1585  -4.1584  -4.1553  -4.1552  -4.1545  -4.1545  -4.1536  -4.1536
    -4.1485  -4.1484  -4.1483  -4.1466  -4.1466  -4.1463  -4.1460  -4.1459
    -4.1458  -4.1290  -4.1020  -4.1020  -4.0828  -4.0827  -4.0824  -4.0824
    -4.0821  -4.0821  -4.0703  -4.0702  -4.0697  -4.0697  -4.0693  -4.0692
    -4.0291  -4.0290  -4.0288  -4.0287  -4.0283  -4.0283  -4.0023  -4.0023
    -4.0020  -4.0020  -4.0017  -4.0015  -3.9535  -3.9535  -3.9270  -3.9269
    -3.9265  -3.9265  -3.9261  -3.9260  -3.9105  -3.9105  -3.8875  -3.8875
    -3.8874  -3.8805  -3.8805  -3.8803  -3.8802  -3.8801  -3.8800  -3.8501
    -3.8501  -3.8498  -3.8497  -3.8494  -3.8493  -3.8298  -3.8298  -3.8296
    -3.8296  -3.8294  -3.8294  -3.8284  -3.8284  -3.8282  -3.8281  -3.8279
    -3.8279  -3.8040  -3.8040  -3.8039  -3.7986  -3.7986  -3.7981  -3.7980
    -3.7976  -3.7975  -3.7911  -3.7910  -3.7910  -3.7909  -3.7907  -3.7907
    -3.7900  -3.7900  -3.7898  -3.7897  -3.7890  -3.7889  -3.7693  -3.7692
    -3.7688  -3.7687  -3.7682  -3.7682  -3.7203  -3.7202  -3.7202  -3.7155
    -3.7154  -3.7151  -3.7151  -3.7147  -3.7146  -3.7053  -3.7050  -3.7048
    -3.7044  -3.7042  -3.7041  -3.6654  -3.6654  -3.6613  -3.6613  -3.6607
    -3.6606  -3.6602  -3.6601  -3.6520  -3.6520  -3.6517  -3.6517  -3.6515
    -3.6515  -3.6364  -3.6363  -3.6361  -3.6359  -3.6356  -3.6355  -3.6297
    -3.6297  -3.6293  -3.6293  -3.6286  -3.6286  -3.5658  -3.5658  -3.5585
    -3.5585  -3.5585  -3.5405  -3.5404  -3.5404  -3.5403  -3.5402  -3.5402
    -3.5251  -3.5251  -3.5251  -3.5070  -3.5070  -3.5070  -3.5043  -3.5042
    -3.5037  -3.5036  -3.5030  -3.5029  -3.4830  -3.4830  -3.4830  -3.4748
    -3.4748  -3.4744  -3.4744  -3.4740  -3.4740  -3.4641  -3.4640  -3.4639
    -3.4639  -3.4638  -3.4637  -3.4345  -3.4345  -3.4341  -3.4340  -3.4336
    -3.4336  -3.4231  -3.4231  -3.4231  -3.4209  -3.4209  -3.3875  -3.3875
    -3.3531  -3.3530  -3.3530  -3.3530  -3.3529  -3.3529  -3.3265  -3.3265
    -3.3262  -3.3262  -3.3259  -3.3259  -3.3185  -3.3185  -3.3185  -3.2678
    -3.2678  -3.2678  -3.2366  -3.1179  -3.1179  -3.1179  -3.1066  -3.1066
    -3.1064  -3.1063  -3.1061  -3.1061  -3.0791  -3.0791  -3.0791  -1.7182
    -1.7179  -1.7158  -1.7151  -1.7131  -1.7127  -1.2549  -0.2443  -0.2443
    -0.2438  -0.2438  -0.2427  -0.2426   0.1675   0.1683   0.1692   0.1710
     0.1718   0.1729   0.5945   0.5946   0.5952   0.5953   0.5961   0.5962
     0.9091   1.0422   1.0422   1.0423   1.6068   1.6069   1.6070   1.9526
     1.9527   1.9527   2.0061   2.0062   2.0071   2.0072   2.0084   2.0086
     2.2022   2.2022   2.2023   3.2147   3.2150   3.2158   3.2165   3.2173
     3.2178   3.6953   3.6953   3.6958   3.6960   3.6969   3.6972   3.8804
     4.2944   4.2945   4.2946   4.5775   4.5776   4.5777   5.3966   5.3967
     5.3968   5.7508   5.7516   5.7544   5.7561   5.7590   5.7601   6.3082
     6.3083   6.3083   6.3757   7.0821   7.0821   7.0828   7.0828   7.0852
     7.0855   7.2748   7.2826   7.2924   7.2925   7.2942   7.2943   7.2957
     7.2958   7.4741   7.4743   7.4753   7.4754   7.4764   7.4765   8.1294
     8.1301   8.1311   8.1325   8.1334   8.1344   8.1879   8.1881   8.1904
     8.1905   8.1931   8.1931   8.2489   8.2491   8.2494   8.2816   8.2817
     8.2822   8.2823   8.2834   8.2839   8.8785   9.0871   9.0877   9.0878
     9.0886   9.0888   9.0893   9.0989   9.1112   9.1113   9.1120   9.1121
     9.1128   9.1130   9.3005   9.3006   9.3047   9.3047   9.3099   9.3100
     9.7226   9.7227   9.7264   9.7264   9.7295   9.7296   9.7707   9.7707
     9.7726   9.7726   9.7760   9.7761   9.8961   9.8962   9.8963  10.6746
    10.6750  10.6758  10.6764  10.6772  10.6777  10.8644  10.8647  10.8654
    10.8657  10.8664  10.8667  11.0234  11.0235  11.0236  11.1671  11.1672
    11.1676  11.1681  11.1685  11.1688  11.3950  11.3953  11.3957  11.3973

     occupation numbers 
     1.0000   1.0000   1.0000   1.0000   1.0000   1.0000   1.0000   1.0000
     1.0000   1.0000   1.0000   1.0000   1.0000   1.0000   1.0000   1.0000
     1.0000   1.0000   1.0000   1.0000   1.0000   1.0000   1.0000   1.0000
     1.0000   1.0000   1.0000   1.0000   1.0000   1.0000   1.0000   1.0000
     1.0000   1.0000   1.0000   1.0000   1.0000   1.0000   1.0000   1.0000
     1.0000   1.0000   1.0000   1.0000   1.0000   1.0000   1.0000   1.0000
     1.0000   1.0000   1.0000   1.0000   1.0000   1.0000   1.0000   1.0000
     1.0000   1.0000   1.0000   1.0000   1.0000   1.0000   1.0000   1.0000
     1.0000   1.0000   1.0000   1.0000   1.0000   1.0000   1.0000   1.0000
     1.0000   1.0000   1.0000   1.0000   1.0000   1.0000   1.0000   1.0000
     1.0000   1.0000   1.0000   1.0000   1.0000   1.0000   1.0000   1.0000
     1.0000   1.0000   1.0000   1.0000   1.0000   1.0000   1.0000   1.0000
     1.0000   1.0000   1.0000   1.0000   1.0000   1.0000   1.0000   1.0000
     1.0000   1.0000   1.0000   1.0000   1.0000   1.0000   1.0000   1.0000
     1.0000   1.0000   1.0000   1.0000   1.0000   1.0000   1.0000   1.0000
     1.0000   1.0000   1.0000   1.0000   1.0000   1.0000   1.0000   1.0000
     1.0000   1.0000   1.0000   1.0000   1.0000   1.0000   1.0000   1.0000
     1.0000   1.0000   1.0000   1.0000   1.0000   1.0000   1.0000   1.0000
     1.0000   1.0000   1.0000   1.0000   1.0000   1.0000   1.0000   1.0000
     1.0000   1.0000   1.0000   1.0000   1.0000   1.0000   1.0000   1.0000
     1.0000   1.0000   1.0000   1.0000   1.0000   1.0000   1.0000   1.0000
     1.0000   1.0000   1.0000   1.0000   1.0000   1.0000   1.0000   1.0000
     1.0000   1.0000   1.0000   1.0000   1.0000   1.0000   1.0000   1.0000
     1.0000   1.0000   1.0000   1.0000   1.0000   1.0000   1.0000   1.0000
     1.0000   1.0000   1.0000   1.0000   1.0000   1.0000   1.0000   1.0000
     1.0000   1.0000   1.0000   1.0000   1.0000   1.0000   1.0000   1.0000
     1.0000   1.0000   1.0000   1.0000   1.0000   1.0000   1.0000   1.0000
     1.0000   1.0000   1.0000   1.0000   1.0000   1.0000   1.0000   1.0000
     1.0000   1.0000   1.0000   1.0000   1.0000   1.0000   1.0000   1.0000
     1.0000   1.0000   1.0000   1.0000   1.0000   1.0000   1.0000   1.0000
     1.0000   1.0000   1.0000   1.0000   1.0000   1.0000   1.0000   1.0000
     1.0000   1.0000   1.0000   1.0000   1.0000   1.0000   1.0000   1.0000
     1.0000   1.0000   1.0000   1.0000   1.0000   1.0000   1.0000   1.0000
     1.0000   1.0000   1.0000   1.0000   1.0000   1.0000   1.0000   1.0000
     1.0000   1.0000   1.0000   1.0000   1.0000   1.0000   1.0000   1.0000
     1.0000   1.0000   1.0000   1.0000   1.0000   1.0000   1.0000   1.0000
     1.0000   1.0000   1.0000   1.0000   1.0000   1.0000   1.0000   1.0000
     1.0000   1.0000   1.0000   1.0000   1.0000   1.0000   1.0000   1.0000
     1.0000   1.0000   1.0000   1.0000   1.0000   1.0000   1.0000   1.0000
     1.0000   1.0000   1.0000   1.0000   1.0000   1.0000   1.0000   1.0000
     1.0000   1.0000   1.0000   1.0000   1.0000   1.0000   1.0000   1.0000
     1.0000   1.0000   1.0000   1.0000   1.0000   1.0000   1.0000   1.0000
     1.0000   1.0000   1.0000   1.0000   1.0000   1.0000   1.0000   1.0000
     1.0000   1.0000   1.0000   1.0000   1.0000   1.0000   1.0000   1.0000
     1.0000   1.0000   1.0000   1.0000   1.0000   1.0000   1.0000   1.0000
     1.0000   1.0000   1.0000   1.0000   1.0000   1.0000   1.0000   1.0000
     1.0000   1.0000   1.0000   1.0000   1.0000   1.0000   1.0000   1.0000
     1.0000   1.0000   1.0000   1.0000   1.0000   1.0000   1.0000   1.0000
     1.0000   1.0000   1.0000   1.0000   1.0000   1.0000   1.0000   1.0000
     1.0000   1.0000   1.0000   1.0000   1.0000   1.0000   1.0000   1.0000
     1.0000   1.0000   1.0000   1.0000   1.0000   1.0000   1.0000   1.0000
     1.0000   1.0000   1.0000   1.0000   1.0000   1.0000   1.0000   1.0000
     1.0000   1.0000   1.0000   1.0000   1.0000   1.0000   1.0000   1.0000
     1.0000   1.0000   1.0000   1.0000   1.0000   1.0000   1.0000   1.0000
     1.0000   1.0000   1.0000   1.0000   1.0000   1.0000   1.0000   1.0000
     1.0000   1.0000   1.0000   1.0000   1.0000   1.0000   1.0000   1.0000
     1.0000   1.0000   1.0000   1.0000   1.0000   1.0000   1.0000   1.0000
     1.0000   1.0000   1.0000   1.0000   1.0000   1.0000   1.0000   1.0000
     1.0000   1.0000   1.0000   1.0000   1.0000   1.0000   1.0000   1.0000
     1.0000   1.0000   1.0000   1.0000   1.0000   1.0000   1.0000   1.0000
     1.0000   1.0000   1.0000   1.0000   1.0000   1.0000   1.0000   1.0000
     1.0000   1.0000   1.0000   1.0000   1.0000   1.0000   1.0000   1.0000
     1.0000   1.0000   1.0000   1.0000   1.0000   1.0000   1.0000   1.0000
     1.0000   1.0000   1.0000   1.0000   1.0000   1.0000   1.0000   1.0000
     1.0000   1.0000   1.0000   1.0000   1.0000   1.0000   1.0000   1.0000
     1.0000   1.0000   1.0000   1.0000   1.0000   1.0000   1.0000   1.0000
     1.0000   1.0000   1.0000   1.0000   1.0000   1.0000   1.0000   1.0000
     1.0000   1.0000   1.0000   1.0000   1.0000   1.0000   1.0000   1.0000
     1.0000   1.0000   1.0000   1.0000   1.0000   1.0000   1.0000   1.0000
     1.0000   1.0000   1.0000   1.0000   1.0000   1.0000   1.0000   1.0000
     1.0000   1.0000   1.0000   1.0000   1.0000   1.0000   1.0000   1.0000
     1.0000   1.0000   1.0000   1.0000   1.0000   1.0000   1.0000   1.0000
     1.0000   1.0000   1.0000   1.0000   1.0000   1.0000   1.0000   1.0000
     1.0000   1.0000   1.0000   1.0000   1.0000   1.0000   1.0000   1.0000
     1.0000   1.0000   1.0000   1.0000   1.0000   1.0000   1.0000   1.0000
     1.0000   1.0000   1.0000   1.0000   1.0000   1.0000   1.0000   1.0000
     1.0000   1.0000   1.0000   1.0000   1.0000   1.0000   1.0000   1.0000
     1.0000   1.0000   1.0000   1.0000   1.0000   1.0000   1.0000   1.0000
     1.0000   1.0000   1.0000   1.0000   1.0000   1.0000   1.0000   1.0000
     1.0000   1.0000   1.0000   1.0408   1.0409   1.0412   1.0414   1.0417
     1.0418   0.5742   0.5740   0.5727   0.5724   0.5698   0.5690   0.1587
     0.0004   0.0004   0.0004   0.0000   0.0000   0.0000   0.0000   0.0000
     0.0000   0.0000   0.0000   0.0000   0.0000   0.0000   0.0000   0.0000
     0.0000   0.0000   0.0000   0.0000   0.0000   0.0000   0.0000   0.0000
     0.0000   0.0000   0.0000   0.0000   0.0000   0.0000   0.0000   0.0000
     0.0000   0.0000   0.0000   0.0000   0.0000   0.0000   0.0000   0.0000
     0.0000   0.0000   0.0000   0.0000   0.0000   0.0000   0.0000   0.0000
     0.0000   0.0000   0.0000   0.0000   0.0000   0.0000   0.0000   0.0000
     0.0000   0.0000   0.0000   0.0000   0.0000   0.0000   0.0000   0.0000
     0.0000   0.0000   0.0000   0.0000   0.0000   0.0000   0.0000   0.0000
     0.0000   0.0000   0.0000   0.0000   0.0000   0.0000   0.0000   0.0000
     0.0000   0.0000   0.0000   0.0000   0.0000   0.0000   0.0000   0.0000
     0.0000   0.0000   0.0000   0.0000   0.0000   0.0000   0.0000   0.0000
     0.0000   0.0000   0.0000   0.0000   0.0000   0.0000   0.0000   0.0000
     0.0000   0.0000   0.0000   0.0000   0.0000   0.0000   0.0000   0.0000
     0.0000   0.0000   0.0000   0.0000   0.0000   0.0000   0.0000   0.0000

          k = 0.0000 0.3849 0.0000 ( 90604 PWs)   bands (ev):

  -123.1117-123.1107-123.1099-123.1097-123.1090-123.1089-123.1084-123.1081
  -123.1077-123.1074-123.1069-123.1065-123.1062-123.1058-123.1055-123.1049
  -123.0623-123.0612-123.0603-123.0595-123.0592-123.0589-123.0587-123.0581
  -123.0577-123.0575-123.0569-123.0567-123.0561-123.0555-123.0551-123.0545
  -122.9138-122.9132-122.9125-122.9124-122.9118-122.9116-122.9112-122.9111
  -122.9110-122.9107-122.9105-122.9104-122.9103-122.9101-122.9098-122.9097
  -122.8762-122.8754-122.8747-122.8742-122.8740-122.8737-122.8733-122.8730
  -122.8729-122.8726-122.8719-122.8717-122.8714-122.8712-122.8709-122.8706
   -77.2739 -77.2738 -77.2729 -77.2707 -77.2707 -77.2691 -77.2686 -77.2660
   -77.2659 -77.2658 -77.2628 -77.2620 -77.2619 -77.2618 -77.2608 -77.2606
   -77.2600 -77.2598 -77.2593 -77.2590 -77.2590 -77.2589 -77.2587 -77.2583
   -77.2577 -77.2573 -77.2570 -77.2567 -77.2563 -77.2557 -77.2540 -77.2536
   -77.2531 -77.2529 -77.2511 -77.2505 -77.2500 -77.2492 -77.2482 -77.2475
   -77.2467 -77.2462 -77.2454 -77.2437 -77.2433 -77.2415 -77.2411 -77.2398
   -77.2239 -77.2237 -77.2228 -77.2207 -77.2207 -77.2191 -77.2184 -77.2158
   -77.2156 -77.2156 -77.2135 -77.2124 -77.2118 -77.2116 -77.2115 -77.2107
   -77.2104 -77.2101 -77.2099 -77.2092 -77.2090 -77.2088 -77.2087 -77.2087
   -77.2080 -77.2078 -77.2072 -77.2067 -77.2062 -77.2057 -77.2041 -77.2036
   -77.2030 -77.2028 -77.2011 -77.2005 -77.1999 -77.1990 -77.1981 -77.1972
   -77.1967 -77.1960 -77.1951 -77.1938 -77.1931 -77.1913 -77.1908 -77.1896
   -77.0743 -77.0743 -77.0732 -77.0725 -77.0718 -77.0712 -77.0712 -77.0710
   -77.0709 -77.0703 -77.0701 -77.0697 -77.0696 -77.0695 -77.0695 -77.0694
   -77.0691 -77.0689 -77.0688 -77.0687 -77.0685 -77.0682 -77.0680 -77.0667
   -77.0667 -77.0667 -77.0627 -77.0626 -77.0596 -77.0596 -77.0542 -77.0542
   -77.0538 -77.0537 -77.0511 -77.0511 -77.0505 -77.0504 -77.0490 -77.0486
   -77.0471 -77.0469 -77.0467 -77.0443 -77.0442 -77.0424 -77.0424 -77.0407
   -77.0362 -77.0357 -77.0356 -77.0354 -77.0347 -77.0346 -77.0341 -77.0340
   -77.0336 -77.0334 -77.0329 -77.0328 -77.0326 -77.0325 -77.0325 -77.0320
   -77.0318 -77.0315 -77.0313 -77.0310 -77.0309 -77.0306 -77.0305 -77.0279
   -77.0278 -77.0278 -77.0239 -77.0238 -77.0209 -77.0208 -77.0157 -77.0155
   -77.0150 -77.0149 -77.0128 -77.0123 -77.0118 -77.0113 -77.0101 -77.0096
   -77.0086 -77.0081 -77.0076 -77.0056 -77.0053 -77.0035 -77.0033 -77.0018
    -6.5246  -5.9174  -5.7430  -5.3731  -5.3731  -5.2129  -5.0853  -5.0144
    -4.9183  -4.8766  -4.8727  -4.8727  -4.8551  -4.8201  -4.8200  -4.8162
    -4.8161  -4.8109  -4.8107  -4.7857  -4.7848  -4.7253  -4.7234  -4.6984
    -4.6984  -4.6753  -4.6752  -4.6693  -4.6692  -4.6483  -4.6450  -4.6192
    -4.6192  -4.6065  -4.6065  -4.6041  -4.6041  -4.5803  -4.5803  -4.5730
    -4.5661  -4.5660  -4.5583  -4.5582  -4.5500  -4.5468  -4.5467  -4.5326
    -4.5325  -4.5090  -4.5090  -4.5033  -4.5033  -4.4960  -4.4960  -4.4783
    -4.4749  -4.4748  -4.4712  -4.4712  -4.4651  -4.4650  -4.4634  -4.4324
    -4.4324  -4.4222  -4.4222  -4.4048  -4.4046  -4.4038  -4.4036  -4.3976
    -4.3973  -4.3967  -4.3466  -4.3461  -4.3457  -4.3452  -4.3420  -4.3214
    -4.3214  -4.3213  -4.3212  -4.3106  -4.3106  -4.3009  -4.2806  -4.2806
    -4.2732  -4.2731  -4.2704  -4.2704  -4.2669  -4.2669  -4.2646  -4.2468
    -4.2468  -4.2365  -4.2364  -4.2362  -4.2294  -4.2294  -4.2264  -4.2264
    -4.2257  -4.2136  -4.2135  -4.2035  -4.2014  -4.2013  -4.1866  -4.1601
    -4.1514  -4.1513  -4.1454  -4.1308  -4.1307  -4.1287  -4.1287  -4.1263
    -4.1238  -4.1237  -4.1189  -4.1188  -4.1175  -4.1070  -4.0901  -4.0901
    -4.0852  -4.0852  -4.0679  -4.0679  -4.0511  -4.0494  -4.0466  -4.0438
    -4.0438  -4.0409  -4.0409  -4.0168  -4.0168  -4.0063  -4.0062  -4.0022
    -4.0021  -3.9972  -3.9822  -3.9769  -3.9769  -3.9698  -3.9698  -3.9644
    -3.9544  -3.9473  -3.9472  -3.9447  -3.9445  -3.9391  -3.9179  -3.9178
    -3.9110  -3.9105  -3.9105  -3.9040  -3.8938  -3.8925  -3.8925  -3.8747
    -3.8602  -3.8586  -3.8585  -3.8406  -3.8401  -3.8401  -3.8400  -3.8394
    -3.8376  -3.8376  -3.8307  -3.8297  -3.8296  -3.8119  -3.8118  -3.8052
    -3.8052  -3.8024  -3.8024  -3.8022  -3.8021  -3.7869  -3.7868  -3.7827
    -3.7819  -3.7819  -3.7729  -3.7729  -3.7645  -3.7644  -3.7597  -3.7522
    -3.7522  -3.7376  -3.7376  -3.7334  -3.7334  -3.7299  -3.7230  -3.7229
    -3.7220  -3.7220  -3.7191  -3.7168  -3.7168  -3.7126  -3.7113  -3.6944
    -3.6941  -3.6940  -3.6936  -3.6935  -3.6916  -3.6893  -3.6893  -3.6892
    -3.6787  -3.6588  -3.6559  -3.6558  -3.6557  -3.6557  -3.6367  -3.6367
    -3.6294  -3.6294  -3.6028  -3.6019  -3.6019  -3.5967  -3.5967  -3.5954
    -3.5948  -3.5932  -3.5932  -3.5917  -3.5917  -3.5903  -3.5817  -3.5817
    -3.5731  -3.5695  -3.5695  -3.5688  -3.5688  -3.5636  -3.5636  -3.5606
    -3.5606  -3.5569  -3.5540  -3.5539  -3.5502  -3.5370  -3.5370  -3.5361
    -3.5361  -3.5200  -3.5100  -3.5100  -3.5069  -3.5069  -3.5038  -3.5024
    -3.5024  -3.4812  -3.4774  -3.4735  -3.4706  -3.4706  -3.4704  -3.4704
    -3.4666  -3.4626  -3.4625  -3.4611  -3.4611  -3.4570  -3.4515  -3.4477
    -3.4477  -3.4453  -3.4453  -3.4427  -3.4409  -3.4404  -3.4402  -3.4365
    -3.4365  -3.4267  -3.4129  -3.4129  -3.4116  -3.4090  -3.4090  -3.3940
    -3.3913  -3.3913  -3.3764  -3.3623  -3.3623  -3.3468  -3.3468  -3.3357
    -3.3357  -3.3352  -3.3264  -3.3222  -3.3221  -3.3055  -3.3055  -3.2971
    -3.2583  -3.2583  -3.2120  -3.2120  -3.1773  -3.1743  -3.1743  -3.1386
    -3.0581  -3.0580  -2.9974  -2.7207  -2.5255  -2.3921  -2.3920  -2.0415
    -2.0415  -1.9013  -1.9012  -1.8906  -1.1196  -1.1195  -1.1033  -0.9519
    -0.9518  -0.8864  -0.6452  -0.4004  -0.1592  -0.1591  -0.0939  -0.0939
    -0.0503   0.3029   0.3030   0.3975   0.3976   0.7421   0.7421   0.8918
     0.8919   1.1949   1.1960   1.1960   1.3468   1.4167   1.8457   1.8458
     1.9965   2.0705   2.0707   2.1309   2.1309   2.3775   2.3775   2.6900
     2.6901   2.7433   2.7434   2.8139   2.8139   2.8611   3.6754   3.6754
     3.9811   3.9811   4.0923   4.1313   4.1316   4.2851   4.2852   4.5197
     4.5198   4.7238   4.7773   4.8777   4.9196   4.9196   5.3482   5.3485
     5.3599   5.3600   5.4437   5.4437   5.5160   5.5171   5.5225   5.6279
     5.6279   5.9816   5.9817   6.0781   6.0781   6.3914   6.5621   6.5630
     6.5731   6.7808   6.7809   6.9437   6.9439   7.0616   7.0617   7.0860
     7.1340   7.1608   7.2799   7.2799   7.4775   7.4868   7.7019   7.7030
     7.7143   7.7215   7.7224   7.7478   7.7481   7.8555   7.8556   7.8807
     7.8809   8.0839   8.0991   8.2565   8.2599   8.2599   8.4916   8.4917
     8.5634   8.6886   8.6887   8.7095   8.7096   8.8827   8.8829   8.9043
     8.9045   9.0046   9.0047   9.0843   9.1344   9.1345   9.2999   9.3339
     9.3874   9.3875   9.4330   9.4979   9.4980   9.6973   9.8732   9.8733
     9.8760   9.8761   9.8948   9.8949   9.9004   9.9367   9.9368  10.0178
    10.0179  10.1564  10.1855  10.1857  10.3034  10.3034  10.4506  10.4507
    10.4961  10.4961  10.5588  10.5998  10.6086  10.6087  10.7231  10.7232
    10.8478  10.8481  10.8672  10.8675  10.9283  10.9284  11.1198  11.1198
    11.1665  11.1665  11.3226  11.4313  11.4714  11.4715  11.5622  11.5624

     occupation numbers 
     1.0000   1.0000   1.0000   1.0000   1.0000   1.0000   1.0000   1.0000
     1.0000   1.0000   1.0000   1.0000   1.0000   1.0000   1.0000   1.0000
     1.0000   1.0000   1.0000   1.0000   1.0000   1.0000   1.0000   1.0000
     1.0000   1.0000   1.0000   1.0000   1.0000   1.0000   1.0000   1.0000
     1.0000   1.0000   1.0000   1.0000   1.0000   1.0000   1.0000   1.0000
     1.0000   1.0000   1.0000   1.0000   1.0000   1.0000   1.0000   1.0000
     1.0000   1.0000   1.0000   1.0000   1.0000   1.0000   1.0000   1.0000
     1.0000   1.0000   1.0000   1.0000   1.0000   1.0000   1.0000   1.0000
     1.0000   1.0000   1.0000   1.0000   1.0000   1.0000   1.0000   1.0000
     1.0000   1.0000   1.0000   1.0000   1.0000   1.0000   1.0000   1.0000
     1.0000   1.0000   1.0000   1.0000   1.0000   1.0000   1.0000   1.0000
     1.0000   1.0000   1.0000   1.0000   1.0000   1.0000   1.0000   1.0000
     1.0000   1.0000   1.0000   1.0000   1.0000   1.0000   1.0000   1.0000
     1.0000   1.0000   1.0000   1.0000   1.0000   1.0000   1.0000   1.0000
     1.0000   1.0000   1.0000   1.0000   1.0000   1.0000   1.0000   1.0000
     1.0000   1.0000   1.0000   1.0000   1.0000   1.0000   1.0000   1.0000
     1.0000   1.0000   1.0000   1.0000   1.0000   1.0000   1.0000   1.0000
     1.0000   1.0000   1.0000   1.0000   1.0000   1.0000   1.0000   1.0000
     1.0000   1.0000   1.0000   1.0000   1.0000   1.0000   1.0000   1.0000
     1.0000   1.0000   1.0000   1.0000   1.0000   1.0000   1.0000   1.0000
     1.0000   1.0000   1.0000   1.0000   1.0000   1.0000   1.0000   1.0000
     1.0000   1.0000   1.0000   1.0000   1.0000   1.0000   1.0000   1.0000
     1.0000   1.0000   1.0000   1.0000   1.0000   1.0000   1.0000   1.0000
     1.0000   1.0000   1.0000   1.0000   1.0000   1.0000   1.0000   1.0000
     1.0000   1.0000   1.0000   1.0000   1.0000   1.0000   1.0000   1.0000
     1.0000   1.0000   1.0000   1.0000   1.0000   1.0000   1.0000   1.0000
     1.0000   1.0000   1.0000   1.0000   1.0000   1.0000   1.0000   1.0000
     1.0000   1.0000   1.0000   1.0000   1.0000   1.0000   1.0000   1.0000
     1.0000   1.0000   1.0000   1.0000   1.0000   1.0000   1.0000   1.0000
     1.0000   1.0000   1.0000   1.0000   1.0000   1.0000   1.0000   1.0000
     1.0000   1.0000   1.0000   1.0000   1.0000   1.0000   1.0000   1.0000
     1.0000   1.0000   1.0000   1.0000   1.0000   1.0000   1.0000   1.0000
     1.0000   1.0000   1.0000   1.0000   1.0000   1.0000   1.0000   1.0000
     1.0000   1.0000   1.0000   1.0000   1.0000   1.0000   1.0000   1.0000
     1.0000   1.0000   1.0000   1.0000   1.0000   1.0000   1.0000   1.0000
     1.0000   1.0000   1.0000   1.0000   1.0000   1.0000   1.0000   1.0000
     1.0000   1.0000   1.0000   1.0000   1.0000   1.0000   1.0000   1.0000
     1.0000   1.0000   1.0000   1.0000   1.0000   1.0000   1.0000   1.0000
     1.0000   1.0000   1.0000   1.0000   1.0000   1.0000   1.0000   1.0000
     1.0000   1.0000   1.0000   1.0000   1.0000   1.0000   1.0000   1.0000
     1.0000   1.0000   1.0000   1.0000   1.0000   1.0000   1.0000   1.0000
     1.0000   1.0000   1.0000   1.0000   1.0000   1.0000   1.0000   1.0000
     1.0000   1.0000   1.0000   1.0000   1.0000   1.0000   1.0000   1.0000
     1.0000   1.0000   1.0000   1.0000   1.0000   1.0000   1.0000   1.0000
     1.0000   1.0000   1.0000   1.0000   1.0000   1.0000   1.0000   1.0000
     1.0000   1.0000   1.0000   1.0000   1.0000   1.0000   1.0000   1.0000
     1.0000   1.0000   1.0000   1.0000   1.0000   1.0000   1.0000   1.0000
     1.0000   1.0000   1.0000   1.0000   1.0000   1.0000   1.0000   1.0000
     1.0000   1.0000   1.0000   1.0000   1.0000   1.0000   1.0000   1.0000
     1.0000   1.0000   1.0000   1.0000   1.0000   1.0000   1.0000   1.0000
     1.0000   1.0000   1.0000   1.0000   1.0000   1.0000   1.0000   1.0000
     1.0000   1.0000   1.0000   1.0000   1.0000   1.0000   1.0000   1.0000
     1.0000   1.0000   1.0000   1.0000   1.0000   1.0000   1.0000   1.0000
     1.0000   1.0000   1.0000   1.0000   1.0000   1.0000   1.0000   1.0000
     1.0000   1.0000   1.0000   1.0000   1.0000   1.0000   1.0000   1.0000
     1.0000   1.0000   1.0000   1.0000   1.0000   1.0000   1.0000   1.0000
     1.0000   1.0000   1.0000   1.0000   1.0000   1.0000   1.0000   1.0000
     1.0000   1.0000   1.0000   1.0000   1.0000   1.0000   1.0000   1.0000
     1.0000   1.0000   1.0000   1.0000   1.0000   1.0000   1.0000   1.0000
     1.0000   1.0000   1.0000   1.0000   1.0000   1.0000   1.0000   1.0000
     1.0000   1.0000   1.0000   1.0000   1.0000   1.0000   1.0000   1.0000
     1.0000   1.0000   1.0000   1.0000   1.0000   1.0000   1.0000   1.0000
     1.0000   1.0000   1.0000   1.0000   1.0000   1.0000   1.0000   1.0000
     1.0000   1.0000   1.0000   1.0000   1.0000   1.0000   1.0000   1.0000
     1.0000   1.0000   1.0000   1.0000   1.0000   1.0000   1.0000   1.0000
     1.0000   1.0000   1.0000   1.0000   1.0000   1.0000   1.0000   1.0000
     1.0000   1.0000   1.0000   1.0000   1.0000   1.0000   1.0000   1.0000
     1.0000   1.0000   1.0000   1.0000   1.0000   1.0000   1.0000   1.0000
     1.0000   1.0000   1.0000   1.0000   1.0000   1.0000   1.0000   1.0000
     1.0000   1.0000   1.0000   1.0000   1.0000   1.0000   1.0000   1.0000
     1.0000   1.0000   1.0000   1.0000   1.0000   1.0000   1.0000   1.0000
     1.0000   1.0000   1.0000   1.0000   1.0000   1.0000   1.0000   1.0000
     1.0000   1.0000   1.0000   1.0000   1.0000   1.0000   1.0000   1.0000
     1.0000   1.0000   1.0000   1.0000   1.0000   1.0000   1.0000   1.0000
     1.0000   1.0000   1.0000   1.0000   1.0000   1.0000   1.0000   1.0000
     1.0000   1.0000   1.0000   1.0000   1.0000   1.0000   1.0000   1.0000
     1.0000   1.0000   1.0000   1.0000   1.0000   1.0000   1.0000   1.0000
     1.0000   1.0000   1.0000   1.0000   1.0000   1.0000   1.0000   1.0000
     1.0000   1.0000   1.0000   1.0000   1.0000   1.0000   1.0000   1.0000
     1.0000   1.0000   1.0000   1.0001   1.0001   1.0003   0.6293   0.6292
     0.0556   0.0556   0.0129   0.0072   0.0072   0.0005   0.0005   0.0000
     0.0000   0.0000   0.0000   0.0000   0.0000   0.0000   0.0000   0.0000
     0.0000   0.0000   0.0000   0.0000   0.0000   0.0000   0.0000   0.0000
     0.0000   0.0000   0.0000   0.0000   0.0000   0.0000   0.0000   0.0000
     0.0000   0.0000   0.0000   0.0000   0.0000   0.0000   0.0000   0.0000
     0.0000   0.0000   0.0000   0.0000   0.0000   0.0000   0.0000   0.0000
     0.0000   0.0000   0.0000   0.0000   0.0000   0.0000   0.0000   0.0000
     0.0000   0.0000   0.0000   0.0000   0.0000   0.0000   0.0000   0.0000
     0.0000   0.0000   0.0000   0.0000   0.0000   0.0000   0.0000   0.0000
     0.0000   0.0000   0.0000   0.0000   0.0000   0.0000   0.0000   0.0000
     0.0000   0.0000   0.0000   0.0000   0.0000   0.0000   0.0000   0.0000
     0.0000   0.0000   0.0000   0.0000   0.0000   0.0000   0.0000   0.0000
     0.0000   0.0000   0.0000   0.0000   0.0000   0.0000   0.0000   0.0000
     0.0000   0.0000   0.0000   0.0000   0.0000   0.0000   0.0000   0.0000
     0.0000   0.0000   0.0000   0.0000   0.0000   0.0000   0.0000   0.0000
     0.0000   0.0000   0.0000   0.0000   0.0000   0.0000   0.0000   0.0000

          k = 0.3333 0.1925 0.0000 ( 90604 PWs)   bands (ev):

  -123.1117-123.1107-123.1099-123.1097-123.1091-123.1088-123.1083-123.1082
  -123.1077-123.1074-123.1069-123.1065-123.1062-123.1058-123.1055-123.1049
  -123.0623-123.0612-123.0603-123.0594-123.0592-123.0592-123.0585-123.0581
  -123.0577-123.0575-123.0569-123.0567-123.0561-123.0555-123.0551-123.0545
  -122.9138-122.9132-122.9125-122.9124-122.9118-122.9116-122.9112-122.9111
  -122.9110-122.9107-122.9105-122.9104-122.9103-122.9101-122.9098-122.9097
  -122.8762-122.8754-122.8747-122.8742-122.8741-122.8737-122.8732-122.8731
  -122.8729-122.8726-122.8719-122.8717-122.8714-122.8712-122.8710-122.8706
   -77.2740 -77.2738 -77.2729 -77.2707 -77.2706 -77.2692 -77.2686 -77.2660
   -77.2660 -77.2658 -77.2628 -77.2620 -77.2618 -77.2618 -77.2609 -77.2606
   -77.2601 -77.2597 -77.2592 -77.2591 -77.2590 -77.2589 -77.2586 -77.2583
   -77.2577 -77.2573 -77.2570 -77.2567 -77.2563 -77.2557 -77.2540 -77.2535
   -77.2532 -77.2529 -77.2510 -77.2503 -77.2501 -77.2491 -77.2482 -77.2476
   -77.2467 -77.2462 -77.2454 -77.2437 -77.2433 -77.2415 -77.2412 -77.2397
   -77.2240 -77.2237 -77.2228 -77.2206 -77.2205 -77.2192 -77.2183 -77.2158
   -77.2158 -77.2155 -77.2135 -77.2124 -77.2118 -77.2117 -77.2115 -77.2106
   -77.2104 -77.2103 -77.2097 -77.2093 -77.2089 -77.2089 -77.2087 -77.2086
   -77.2081 -77.2079 -77.2073 -77.2067 -77.2062 -77.2057 -77.2041 -77.2034
   -77.2031 -77.2028 -77.2011 -77.2002 -77.2001 -77.1989 -77.1981 -77.1974
   -77.1966 -77.1960 -77.1951 -77.1937 -77.1930 -77.1914 -77.1908 -77.1895
   -77.0743 -77.0743 -77.0732 -77.0725 -77.0718 -77.0712 -77.0712 -77.0710
   -77.0709 -77.0703 -77.0701 -77.0697 -77.0696 -77.0695 -77.0695 -77.0694
   -77.0691 -77.0690 -77.0688 -77.0687 -77.0685 -77.0682 -77.0680 -77.0667
   -77.0667 -77.0667 -77.0627 -77.0626 -77.0596 -77.0596 -77.0542 -77.0542
   -77.0538 -77.0537 -77.0511 -77.0511 -77.0505 -77.0504 -77.0490 -77.0486
   -77.0471 -77.0469 -77.0467 -77.0443 -77.0442 -77.0424 -77.0424 -77.0407
   -77.0363 -77.0357 -77.0356 -77.0354 -77.0347 -77.0346 -77.0342 -77.0340
   -77.0335 -77.0333 -77.0330 -77.0328 -77.0325 -77.0325 -77.0325 -77.0320
   -77.0318 -77.0315 -77.0313 -77.0310 -77.0310 -77.0306 -77.0305 -77.0279
   -77.0279 -77.0277 -77.0239 -77.0238 -77.0209 -77.0208 -77.0157 -77.0154
   -77.0150 -77.0149 -77.0128 -77.0122 -77.0119 -77.0112 -77.0101 -77.0097
   -77.0085 -77.0081 -77.0076 -77.0056 -77.0053 -77.0035 -77.0033 -77.0018
    -6.5246  -5.9174  -5.7430  -5.3731  -5.3731  -5.2128  -5.0853  -5.0144
    -4.9183  -4.8766  -4.8727  -4.8727  -4.8551  -4.8200  -4.8200  -4.8162
    -4.8160  -4.8110  -4.8107  -4.7857  -4.7848  -4.7253  -4.7234  -4.6984
    -4.6984  -4.6753  -4.6752  -4.6693  -4.6692  -4.6483  -4.6450  -4.6192
    -4.6191  -4.6065  -4.6065  -4.6041  -4.6041  -4.5803  -4.5803  -4.5730
    -4.5661  -4.5660  -4.5583  -4.5582  -4.5500  -4.5468  -4.5467  -4.5326
    -4.5325  -4.5090  -4.5090  -4.5033  -4.5033  -4.4960  -4.4960  -4.4783
    -4.4749  -4.4748  -4.4712  -4.4712  -4.4651  -4.4650  -4.4634  -4.4324
    -4.4324  -4.4222  -4.4222  -4.4048  -4.4046  -4.4038  -4.4036  -4.3976
    -4.3973  -4.3967  -4.3466  -4.3461  -4.3457  -4.3452  -4.3420  -4.3216
    -4.3215  -4.3211  -4.3211  -4.3106  -4.3105  -4.3009  -4.2806  -4.2806
    -4.2732  -4.2732  -4.2704  -4.2704  -4.2669  -4.2669  -4.2646  -4.2468
    -4.2468  -4.2365  -4.2364  -4.2362  -4.2295  -4.2294  -4.2264  -4.2264
    -4.2257  -4.2136  -4.2135  -4.2035  -4.2014  -4.2013  -4.1866  -4.1601
    -4.1514  -4.1513  -4.1454  -4.1308  -4.1307  -4.1287  -4.1287  -4.1262
    -4.1238  -4.1237  -4.1189  -4.1188  -4.1175  -4.1070  -4.0901  -4.0901
    -4.0852  -4.0852  -4.0679  -4.0679  -4.0511  -4.0494  -4.0466  -4.0438
    -4.0438  -4.0409  -4.0409  -4.0168  -4.0168  -4.0063  -4.0062  -4.0022
    -4.0021  -3.9972  -3.9822  -3.9769  -3.9769  -3.9698  -3.9698  -3.9644
    -3.9544  -3.9473  -3.9471  -3.9447  -3.9445  -3.9390  -3.9179  -3.9178
    -3.9110  -3.9105  -3.9104  -3.9040  -3.8938  -3.8925  -3.8925  -3.8747
    -3.8602  -3.8586  -3.8585  -3.8405  -3.8401  -3.8401  -3.8400  -3.8394
    -3.8377  -3.8376  -3.8307  -3.8297  -3.8296  -3.8118  -3.8118  -3.8052
    -3.8052  -3.8024  -3.8024  -3.8022  -3.8021  -3.7869  -3.7868  -3.7827
    -3.7819  -3.7819  -3.7729  -3.7729  -3.7645  -3.7644  -3.7597  -3.7522
    -3.7522  -3.7376  -3.7376  -3.7334  -3.7334  -3.7299  -3.7230  -3.7230
    -3.7220  -3.7220  -3.7191  -3.7168  -3.7168  -3.7126  -3.7113  -3.6944
    -3.6941  -3.6939  -3.6938  -3.6935  -3.6916  -3.6893  -3.6893  -3.6892
    -3.6787  -3.6588  -3.6559  -3.6558  -3.6557  -3.6557  -3.6367  -3.6367
    -3.6294  -3.6294  -3.6028  -3.6019  -3.6019  -3.5967  -3.5967  -3.5954
    -3.5948  -3.5932  -3.5932  -3.5917  -3.5917  -3.5903  -3.5817  -3.5817
    -3.5731  -3.5695  -3.5695  -3.5688  -3.5688  -3.5636  -3.5636  -3.5606
    -3.5606  -3.5569  -3.5540  -3.5539  -3.5502  -3.5370  -3.5370  -3.5361
    -3.5361  -3.5200  -3.5100  -3.5100  -3.5069  -3.5069  -3.5038  -3.5024
    -3.5024  -3.4812  -3.4774  -3.4735  -3.4706  -3.4706  -3.4704  -3.4704
    -3.4666  -3.4626  -3.4625  -3.4611  -3.4611  -3.4570  -3.4515  -3.4477
    -3.4477  -3.4453  -3.4452  -3.4427  -3.4409  -3.4404  -3.4403  -3.4365
    -3.4365  -3.4267  -3.4129  -3.4129  -3.4116  -3.4090  -3.4090  -3.3940
    -3.3913  -3.3913  -3.3764  -3.3623  -3.3623  -3.3468  -3.3468  -3.3357
    -3.3357  -3.3352  -3.3264  -3.3222  -3.3221  -3.3055  -3.3055  -3.2971
    -3.2583  -3.2583  -3.2120  -3.2120  -3.1773  -3.1743  -3.1743  -3.1386
    -3.0581  -3.0580  -2.9974  -2.7206  -2.5255  -2.3921  -2.3920  -2.0415
    -2.0415  -1.9013  -1.9012  -1.8906  -1.1196  -1.1195  -1.1033  -0.9519
    -0.9518  -0.8864  -0.6452  -0.4004  -0.1592  -0.1591  -0.0939  -0.0939
    -0.0503   0.3030   0.3031   0.3975   0.3976   0.7421   0.7421   0.8918
     0.8919   1.1949   1.1960   1.1960   1.3468   1.4167   1.8458   1.8458
     1.9965   2.0705   2.0707   2.1309   2.1309   2.3775   2.3775   2.6900
     2.6901   2.7433   2.7434   2.8139   2.8139   2.8611   3.6754   3.6754
     3.9811   3.9811   4.0923   4.1313   4.1316   4.2851   4.2851   4.5197
     4.5198   4.7238   4.7773   4.8777   4.9196   4.9196   5.3482   5.3485
     5.3599   5.3601   5.4436   5.4437   5.5159   5.5171   5.5225   5.6279
     5.6279   5.9816   5.9817   6.0781   6.0781   6.3914   6.5622   6.5630
     6.5731   6.7809   6.7809   6.9437   6.9439   7.0616   7.0617   7.0860
     7.1340   7.1608   7.2799   7.2799   7.4775   7.4868   7.7019   7.7030
     7.7143   7.7215   7.7224   7.7478   7.7481   7.8555   7.8556   7.8807
     7.8808   8.0839   8.0991   8.2565   8.2598   8.2599   8.4916   8.4917
     8.5634   8.6886   8.6887   8.7095   8.7096   8.8827   8.8829   8.9042
     8.9045   9.0046   9.0047   9.0843   9.1344   9.1345   9.2999   9.3339
     9.3874   9.3875   9.4330   9.4979   9.4980   9.6973   9.8732   9.8733
     9.8760   9.8761   9.8948   9.8949   9.9004   9.9367   9.9368  10.0178
    10.0179  10.1564  10.1855  10.1857  10.3033  10.3034  10.4506  10.4507
    10.4961  10.4962  10.5588  10.5998  10.6086  10.6087  10.7231  10.7232
    10.8479  10.8481  10.8672  10.8674  10.9283  10.9285  11.1198  11.1198
    11.1665  11.1665  11.3225  11.4313  11.4714  11.4715  11.5624  11.5625

     occupation numbers 
     1.0000   1.0000   1.0000   1.0000   1.0000   1.0000   1.0000   1.0000
     1.0000   1.0000   1.0000   1.0000   1.0000   1.0000   1.0000   1.0000
     1.0000   1.0000   1.0000   1.0000   1.0000   1.0000   1.0000   1.0000
     1.0000   1.0000   1.0000   1.0000   1.0000   1.0000   1.0000   1.0000
     1.0000   1.0000   1.0000   1.0000   1.0000   1.0000   1.0000   1.0000
     1.0000   1.0000   1.0000   1.0000   1.0000   1.0000   1.0000   1.0000
     1.0000   1.0000   1.0000   1.0000   1.0000   1.0000   1.0000   1.0000
     1.0000   1.0000   1.0000   1.0000   1.0000   1.0000   1.0000   1.0000
     1.0000   1.0000   1.0000   1.0000   1.0000   1.0000   1.0000   1.0000
     1.0000   1.0000   1.0000   1.0000   1.0000   1.0000   1.0000   1.0000
     1.0000   1.0000   1.0000   1.0000   1.0000   1.0000   1.0000   1.0000
     1.0000   1.0000   1.0000   1.0000   1.0000   1.0000   1.0000   1.0000
     1.0000   1.0000   1.0000   1.0000   1.0000   1.0000   1.0000   1.0000
     1.0000   1.0000   1.0000   1.0000   1.0000   1.0000   1.0000   1.0000
     1.0000   1.0000   1.0000   1.0000   1.0000   1.0000   1.0000   1.0000
     1.0000   1.0000   1.0000   1.0000   1.0000   1.0000   1.0000   1.0000
     1.0000   1.0000   1.0000   1.0000   1.0000   1.0000   1.0000   1.0000
     1.0000   1.0000   1.0000   1.0000   1.0000   1.0000   1.0000   1.0000
     1.0000   1.0000   1.0000   1.0000   1.0000   1.0000   1.0000   1.0000
     1.0000   1.0000   1.0000   1.0000   1.0000   1.0000   1.0000   1.0000
     1.0000   1.0000   1.0000   1.0000   1.0000   1.0000   1.0000   1.0000
     1.0000   1.0000   1.0000   1.0000   1.0000   1.0000   1.0000   1.0000
     1.0000   1.0000   1.0000   1.0000   1.0000   1.0000   1.0000   1.0000
     1.0000   1.0000   1.0000   1.0000   1.0000   1.0000   1.0000   1.0000
     1.0000   1.0000   1.0000   1.0000   1.0000   1.0000   1.0000   1.0000
     1.0000   1.0000   1.0000   1.0000   1.0000   1.0000   1.0000   1.0000
     1.0000   1.0000   1.0000   1.0000   1.0000   1.0000   1.0000   1.0000
     1.0000   1.0000   1.0000   1.0000   1.0000   1.0000   1.0000   1.0000
     1.0000   1.0000   1.0000   1.0000   1.0000   1.0000   1.0000   1.0000
     1.0000   1.0000   1.0000   1.0000   1.0000   1.0000   1.0000   1.0000
     1.0000   1.0000   1.0000   1.0000   1.0000   1.0000   1.0000   1.0000
     1.0000   1.0000   1.0000   1.0000   1.0000   1.0000   1.0000   1.0000
     1.0000   1.0000   1.0000   1.0000   1.0000   1.0000   1.0000   1.0000
     1.0000   1.0000   1.0000   1.0000   1.0000   1.0000   1.0000   1.0000
     1.0000   1.0000   1.0000   1.0000   1.0000   1.0000   1.0000   1.0000
     1.0000   1.0000   1.0000   1.0000   1.0000   1.0000   1.0000   1.0000
     1.0000   1.0000   1.0000   1.0000   1.0000   1.0000   1.0000   1.0000
     1.0000   1.0000   1.0000   1.0000   1.0000   1.0000   1.0000   1.0000
     1.0000   1.0000   1.0000   1.0000   1.0000   1.0000   1.0000   1.0000
     1.0000   1.0000   1.0000   1.0000   1.0000   1.0000   1.0000   1.0000
     1.0000   1.0000   1.0000   1.0000   1.0000   1.0000   1.0000   1.0000
     1.0000   1.0000   1.0000   1.0000   1.0000   1.0000   1.0000   1.0000
     1.0000   1.0000   1.0000   1.0000   1.0000   1.0000   1.0000   1.0000
     1.0000   1.0000   1.0000   1.0000   1.0000   1.0000   1.0000   1.0000
     1.0000   1.0000   1.0000   1.0000   1.0000   1.0000   1.0000   1.0000
     1.0000   1.0000   1.0000   1.0000   1.0000   1.0000   1.0000   1.0000
     1.0000   1.0000   1.0000   1.0000   1.0000   1.0000   1.0000   1.0000
     1.0000   1.0000   1.0000   1.0000   1.0000   1.0000   1.0000   1.0000
     1.0000   1.0000   1.0000   1.0000   1.0000   1.0000   1.0000   1.0000
     1.0000   1.0000   1.0000   1.0000   1.0000   1.0000   1.0000   1.0000
     1.0000   1.0000   1.0000   1.0000   1.0000   1.0000   1.0000   1.0000
     1.0000   1.0000   1.0000   1.0000   1.0000   1.0000   1.0000   1.0000
     1.0000   1.0000   1.0000   1.0000   1.0000   1.0000   1.0000   1.0000
     1.0000   1.0000   1.0000   1.0000   1.0000   1.0000   1.0000   1.0000
     1.0000   1.0000   1.0000   1.0000   1.0000   1.0000   1.0000   1.0000
     1.0000   1.0000   1.0000   1.0000   1.0000   1.0000   1.0000   1.0000
     1.0000   1.0000   1.0000   1.0000   1.0000   1.0000   1.0000   1.0000
     1.0000   1.0000   1.0000   1.0000   1.0000   1.0000   1.0000   1.0000
     1.0000   1.0000   1.0000   1.0000   1.0000   1.0000   1.0000   1.0000
     1.0000   1.0000   1.0000   1.0000   1.0000   1.0000   1.0000   1.0000
     1.0000   1.0000   1.0000   1.0000   1.0000   1.0000   1.0000   1.0000
     1.0000   1.0000   1.0000   1.0000   1.0000   1.0000   1.0000   1.0000
     1.0000   1.0000   1.0000   1.0000   1.0000   1.0000   1.0000   1.0000
     1.0000   1.0000   1.0000   1.0000   1.0000   1.0000   1.0000   1.0000
     1.0000   1.0000   1.0000   1.0000   1.0000   1.0000   1.0000   1.0000
     1.0000   1.0000   1.0000   1.0000   1.0000   1.0000   1.0000   1.0000
     1.0000   1.0000   1.0000   1.0000   1.0000   1.0000   1.0000   1.0000
     1.0000   1.0000   1.0000   1.0000   1.0000   1.0000   1.0000   1.0000
     1.0000   1.0000   1.0000   1.0000   1.0000   1.0000   1.0000   1.0000
     1.0000   1.0000   1.0000   1.0000   1.0000   1.0000   1.0000   1.0000
     1.0000   1.0000   1.0000   1.0000   1.0000   1.0000   1.0000   1.0000
     1.0000   1.0000   1.0000   1.0000   1.0000   1.0000   1.0000   1.0000
     1.0000   1.0000   1.0000   1.0000   1.0000   1.0000   1.0000   1.0000
     1.0000   1.0000   1.0000   1.0000   1.0000   1.0000   1.0000   1.0000
     1.0000   1.0000   1.0000   1.0000   1.0000   1.0000   1.0000   1.0000
     1.0000   1.0000   1.0000   1.0000   1.0000   1.0000   1.0000   1.0000
     1.0000   1.0000   1.0000   1.0000   1.0000   1.0000   1.0000   1.0000
     1.0000   1.0000   1.0000   1.0000   1.0000   1.0000   1.0000   1.0000
     1.0000   1.0000   1.0000   1.0000   1.0000   1.0000   1.0000   1.0000
     1.0000   1.0000   1.0000   1.0001   1.0001   1.0003   0.6294   0.6292
     0.0556   0.0556   0.0129   0.0072   0.0072   0.0005   0.0005   0.0000
     0.0000   0.0000   0.0000   0.0000   0.0000   0.0000   0.0000   0.0000
     0.0000   0.0000   0.0000   0.0000   0.0000   0.0000   0.0000   0.0000
     0.0000   0.0000   0.0000   0.0000   0.0000   0.0000   0.0000   0.0000
     0.0000   0.0000   0.0000   0.0000   0.0000   0.0000   0.0000   0.0000
     0.0000   0.0000   0.0000   0.0000   0.0000   0.0000   0.0000   0.0000
     0.0000   0.0000   0.0000   0.0000   0.0000   0.0000   0.0000   0.0000
     0.0000   0.0000   0.0000   0.0000   0.0000   0.0000   0.0000   0.0000
     0.0000   0.0000   0.0000   0.0000   0.0000   0.0000   0.0000   0.0000
     0.0000   0.0000   0.0000   0.0000   0.0000   0.0000   0.0000   0.0000
     0.0000   0.0000   0.0000   0.0000   0.0000   0.0000   0.0000   0.0000
     0.0000   0.0000   0.0000   0.0000   0.0000   0.0000   0.0000   0.0000
     0.0000   0.0000   0.0000   0.0000   0.0000   0.0000   0.0000   0.0000
     0.0000   0.0000   0.0000   0.0000   0.0000   0.0000   0.0000   0.0000
     0.0000   0.0000   0.0000   0.0000   0.0000   0.0000   0.0000   0.0000
     0.0000   0.0000   0.0000   0.0000   0.0000   0.0000   0.0000   0.0000

          k = 0.3333 0.5774 0.0000 ( 90726 PWs)   bands (ev):

  -123.1116-123.1107-123.1099-123.1097-123.1091-123.1088-123.1083-123.1081
  -123.1077-123.1074-123.1069-123.1065-123.1062-123.1058-123.1055-123.1049
  -123.0623-123.0612-123.0603-123.0596-123.0592-123.0589-123.0585-123.0581
  -123.0577-123.0575-123.0569-123.0567-123.0561-123.0555-123.0551-123.0545
  -122.9136-122.9133-122.9130-122.9118-122.9118-122.9117-122.9112-122.9111
  -122.9109-122.9107-122.9107-122.9106-122.9103-122.9101-122.9098-122.9097
  -122.8762-122.8754-122.8748-122.8742-122.8740-122.8737-122.8731-122.8730
  -122.8729-122.8726-122.8719-122.8717-122.8714-122.8712-122.8709-122.8706
   -77.2730 -77.2724 -77.2720 -77.2704 -77.2699 -77.2696 -77.2694 -77.2685
   -77.2685 -77.2646 -77.2644 -77.2628 -77.2619 -77.2610 -77.2606 -77.2601
   -77.2600 -77.2599 -77.2598 -77.2598 -77.2592 -77.2590 -77.2587 -77.2583
   -77.2578 -77.2574 -77.2571 -77.2567 -77.2563 -77.2557 -77.2547 -77.2543
   -77.2536 -77.2497 -77.2491 -77.2489 -77.2484 -77.2480 -77.2477 -77.2474
   -77.2468 -77.2465 -77.2461 -77.2455 -77.2451 -77.2415 -77.2410 -77.2405
   -77.2232 -77.2223 -77.2217 -77.2205 -77.2200 -77.2196 -77.2192 -77.2181
   -77.2180 -77.2144 -77.2142 -77.2135 -77.2124 -77.2115 -77.2108 -77.2104
   -77.2101 -77.2099 -77.2098 -77.2097 -77.2097 -77.2093 -77.2089 -77.2087
   -77.2081 -77.2079 -77.2073 -77.2067 -77.2062 -77.2057 -77.2048 -77.2042
   -77.2034 -77.1998 -77.1992 -77.1989 -77.1982 -77.1978 -77.1976 -77.1972
   -77.1967 -77.1965 -77.1958 -77.1953 -77.1947 -77.1914 -77.1909 -77.1901
   -77.0729 -77.0727 -77.0726 -77.0722 -77.0719 -77.0716 -77.0703 -77.0703
   -77.0703 -77.0703 -77.0702 -77.0701 -77.0700 -77.0698 -77.0698 -77.0696
   -77.0695 -77.0694 -77.0692 -77.0691 -77.0690 -77.0687 -77.0685 -77.0682
   -77.0680 -77.0653 -77.0653 -77.0606 -77.0606 -77.0606 -77.0549 -77.0547
   -77.0546 -77.0495 -77.0495 -77.0493 -77.0492 -77.0490 -77.0490 -77.0476
   -77.0475 -77.0475 -77.0469 -77.0467 -77.0466 -77.0421 -77.0419 -77.0418
   -77.0362 -77.0354 -77.0349 -77.0346 -77.0342 -77.0341 -77.0339 -77.0338
   -77.0336 -77.0332 -77.0330 -77.0328 -77.0326 -77.0322 -77.0321 -77.0318
   -77.0317 -77.0315 -77.0314 -77.0313 -77.0313 -77.0310 -77.0306 -77.0305
   -77.0304 -77.0265 -77.0264 -77.0219 -77.0218 -77.0218 -77.0164 -77.0161
   -77.0156 -77.0113 -77.0109 -77.0107 -77.0104 -77.0099 -77.0098 -77.0092
   -77.0087 -77.0085 -77.0082 -77.0076 -77.0073 -77.0034 -77.0031 -77.0026
    -6.1162  -6.1120  -6.1086  -5.3728  -5.3721  -5.3713  -4.8591  -4.8584
    -4.8578  -4.8181  -4.8174  -4.8171  -4.8168  -4.8164  -4.8158  -4.8083
    -4.8053  -4.8027  -4.7537  -4.7533  -4.7524  -4.7523  -4.7514  -4.7510
    -4.7042  -4.7038  -4.7031  -4.7008  -4.7006  -4.7004  -4.6478  -4.6474
    -4.6472  -4.6380  -4.6375  -4.6371  -4.6370  -4.6366  -4.6361  -4.5920
    -4.5916  -4.5912  -4.5483  -4.5477  -4.5473  -4.5471  -4.5467  -4.5461
    -4.4901  -4.4900  -4.4900  -4.4816  -4.4814  -4.4809  -4.4808  -4.4803
    -4.4801  -4.4577  -4.4577  -4.4576  -4.4517  -4.4515  -4.4512  -4.4213
    -4.4212  -4.4205  -4.4205  -4.4204  -4.4203  -4.4201  -4.4193  -4.4193
    -4.4171  -4.4150  -4.4150  -4.4150  -4.3768  -4.3765  -4.3762  -4.3565
    -4.3564  -4.3564  -4.3314  -4.3254  -4.3120  -4.3113  -4.3106  -4.3004
    -4.3004  -4.3004  -4.2744  -4.2743  -4.2743  -4.2718  -4.2598  -4.2432
    -4.2427  -4.2425  -4.2414  -4.2407  -4.2406  -4.2405  -4.2401  -4.2398
    -4.2353  -4.2347  -4.2340  -4.2023  -4.1922  -4.1915  -4.1909  -4.1903
    -4.1649  -4.1644  -4.1639  -4.1572  -4.1572  -4.1572  -4.1310  -4.1309
    -4.1309  -4.1088  -4.1087  -4.1087  -4.1018  -4.1017  -4.1017  -4.0808
    -4.0808  -4.0803  -4.0802  -4.0797  -4.0796  -4.0594  -4.0593  -4.0593
    -4.0592  -4.0417  -4.0415  -4.0414  -4.0264  -4.0037  -4.0032  -4.0026
    -3.9995  -3.9986  -3.9982  -3.9976  -3.9974  -3.9969  -3.9566  -3.9450
    -3.9436  -3.9429  -3.9357  -3.9356  -3.9356  -3.9306  -3.9301  -3.9298
    -3.9242  -3.9239  -3.9237  -3.9022  -3.9016  -3.9016  -3.9014  -3.9013
    -3.9012  -3.9007  -3.9000  -3.8784  -3.8782  -3.8776  -3.8775  -3.8769
    -3.8766  -3.8648  -3.8646  -3.8331  -3.8330  -3.8330  -3.8087  -3.8086
    -3.8085  -3.7864  -3.7636  -3.7630  -3.7625  -3.7606  -3.7593  -3.7577
    -3.7310  -3.7307  -3.7304  -3.7303  -3.7300  -3.7297  -3.7244  -3.7243
    -3.7243  -3.7160  -3.7157  -3.7157  -3.7152  -3.7143  -3.7132  -3.7128
    -3.7075  -3.7071  -3.7067  -3.6928  -3.6923  -3.6921  -3.6920  -3.6918
    -3.6912  -3.6768  -3.6766  -3.6764  -3.6761  -3.6759  -3.6751  -3.6675
    -3.6672  -3.6668  -3.6666  -3.6662  -3.6660  -3.5979  -3.5975  -3.5971
    -3.5833  -3.5827  -3.5822  -3.5673  -3.5672  -3.5670  -3.5670  -3.5667
    -3.5666  -3.5643  -3.5642  -3.5642  -3.5639  -3.5586  -3.5583  -3.5581
    -3.5536  -3.5490  -3.5488  -3.5487  -3.5487  -3.5486  -3.5485  -3.5468
    -3.5467  -3.5465  -3.5380  -3.5378  -3.5376  -3.5338  -3.5338  -3.5338
    -3.5040  -3.5039  -3.5036  -3.5034  -3.5032  -3.5031  -3.4929  -3.4929
    -3.4926  -3.4926  -3.4922  -3.4922  -3.4858  -3.4858  -3.4857  -3.4850
    -3.4757  -3.4754  -3.4752  -3.4727  -3.4727  -3.4727  -3.4685  -3.4421
    -3.4420  -3.4419  -3.4400  -3.4398  -3.4397  -3.4335  -3.4335  -3.4335
    -3.4207  -3.4204  -3.4199  -3.4197  -3.4194  -3.4192  -3.4191  -3.4185
    -3.4179  -3.4091  -3.4087  -3.4083  -3.3894  -3.3893  -3.3892  -3.3580
    -3.3574  -3.3563  -3.2991  -3.2990  -3.2989  -3.2988  -3.2987  -3.2986
    -3.2602  -3.2599  -3.2597  -3.2596  -3.2593  -3.2590  -3.0697  -3.0697
    -3.0697  -2.6752  -2.6736  -2.6718  -2.4952  -2.4952  -2.4951  -1.6400
    -1.6384  -1.6376  -1.6371  -1.6362  -1.6347  -1.1137  -1.1136  -1.1135
    -0.8108  -0.8107  -0.8102  -0.8099  -0.8095  -0.8093  -0.8002  -0.7991
    -0.7967   0.6293   0.6298   0.6314   0.6320   0.6336   0.6340   0.7287
     0.7287   0.7288   1.7358   1.7371   1.7388   1.9391   1.9405   1.9414
     2.3453   2.3470   2.3490   2.3616   2.3621   2.3628   2.3643   2.3651
     2.3656   2.7866   2.7868   2.7872   3.0145   3.0151   3.0158   3.9130
     3.9131   3.9132   4.0811   4.1470   4.2250   4.5098   4.5140   4.5198
     4.8180   4.8197   4.8216   4.8904   4.9824   5.0501   5.0516   5.0533
     5.1433   5.8138   5.8147   5.8152   5.8166   5.8171   5.8181   6.0603
     6.0608   6.0631   6.2644   6.2649   6.2654   6.2664   6.2669   6.2674
     6.3746   6.3748   6.3749   6.5027   6.7536   6.7594   6.8139   6.8158
     6.8167   6.9631   6.9646   6.9673   7.0539   7.0557   7.0565   7.0582
     7.0590   7.0608   7.8524   7.8813   7.8818   7.8831   7.8945   7.8952
     7.8960   8.1298   8.1322   8.1351   8.1360   8.1391   8.1415   8.4855
     8.5145   8.5550   8.5565   8.5579   8.5591   8.5604   8.5621   8.7181
     8.7184   8.7186   8.9367   8.9383   8.9390   9.4926   9.4936   9.4957
     9.6914   9.6919   9.6926   9.7000   9.7010   9.7020   9.7128   9.7135
     9.7143   9.7193   9.7197   9.7199  10.3074  10.3092  10.3103  10.3116
    10.3126  10.3148  10.3945  10.3959  10.3981  10.6153  10.6174  10.6190
    10.6975  10.6980  10.6992  10.6998  10.7011  10.7016  10.8984  10.9386
    11.2675  11.2676  11.2680  11.4380  11.4381  11.4387  11.5297  11.5314
    11.5324  11.5330  11.5337  11.5341  11.5362  11.5647  11.5650  11.5656

     occupation numbers 
     1.0000   1.0000   1.0000   1.0000   1.0000   1.0000   1.0000   1.0000
     1.0000   1.0000   1.0000   1.0000   1.0000   1.0000   1.0000   1.0000
     1.0000   1.0000   1.0000   1.0000   1.0000   1.0000   1.0000   1.0000
     1.0000   1.0000   1.0000   1.0000   1.0000   1.0000   1.0000   1.0000
     1.0000   1.0000   1.0000   1.0000   1.0000   1.0000   1.0000   1.0000
     1.0000   1.0000   1.0000   1.0000   1.0000   1.0000   1.0000   1.0000
     1.0000   1.0000   1.0000   1.0000   1.0000   1.0000   1.0000   1.0000
     1.0000   1.0000   1.0000   1.0000   1.0000   1.0000   1.0000   1.0000
     1.0000   1.0000   1.0000   1.0000   1.0000   1.0000   1.0000   1.0000
     1.0000   1.0000   1.0000   1.0000   1.0000   1.0000   1.0000   1.0000
     1.0000   1.0000   1.0000   1.0000   1.0000   1.0000   1.0000   1.0000
     1.0000   1.0000   1.0000   1.0000   1.0000   1.0000   1.0000   1.0000
     1.0000   1.0000   1.0000   1.0000   1.0000   1.0000   1.0000   1.0000
     1.0000   1.0000   1.0000   1.0000   1.0000   1.0000   1.0000   1.0000
     1.0000   1.0000   1.0000   1.0000   1.0000   1.0000   1.0000   1.0000
     1.0000   1.0000   1.0000   1.0000   1.0000   1.0000   1.0000   1.0000
     1.0000   1.0000   1.0000   1.0000   1.0000   1.0000   1.0000   1.0000
     1.0000   1.0000   1.0000   1.0000   1.0000   1.0000   1.0000   1.0000
     1.0000   1.0000   1.0000   1.0000   1.0000   1.0000   1.0000   1.0000
     1.0000   1.0000   1.0000   1.0000   1.0000   1.0000   1.0000   1.0000
     1.0000   1.0000   1.0000   1.0000   1.0000   1.0000   1.0000   1.0000
     1.0000   1.0000   1.0000   1.0000   1.0000   1.0000   1.0000   1.0000
     1.0000   1.0000   1.0000   1.0000   1.0000   1.0000   1.0000   1.0000
     1.0000   1.0000   1.0000   1.0000   1.0000   1.0000   1.0000   1.0000
     1.0000   1.0000   1.0000   1.0000   1.0000   1.0000   1.0000   1.0000
     1.0000   1.0000   1.0000   1.0000   1.0000   1.0000   1.0000   1.0000
     1.0000   1.0000   1.0000   1.0000   1.0000   1.0000   1.0000   1.0000
     1.0000   1.0000   1.0000   1.0000   1.0000   1.0000   1.0000   1.0000
     1.0000   1.0000   1.0000   1.0000   1.0000   1.0000   1.0000   1.0000
     1.0000   1.0000   1.0000   1.0000   1.0000   1.0000   1.0000   1.0000
     1.0000   1.0000   1.0000   1.0000   1.0000   1.0000   1.0000   1.0000
     1.0000   1.0000   1.0000   1.0000   1.0000   1.0000   1.0000   1.0000
     1.0000   1.0000   1.0000   1.0000   1.0000   1.0000   1.0000   1.0000
     1.0000   1.0000   1.0000   1.0000   1.0000   1.0000   1.0000   1.0000
     1.0000   1.0000   1.0000   1.0000   1.0000   1.0000   1.0000   1.0000
     1.0000   1.0000   1.0000   1.0000   1.0000   1.0000   1.0000   1.0000
     1.0000   1.0000   1.0000   1.0000   1.0000   1.0000   1.0000   1.0000
     1.0000   1.0000   1.0000   1.0000   1.0000   1.0000   1.0000   1.0000
     1.0000   1.0000   1.0000   1.0000   1.0000   1.0000   1.0000   1.0000
[...]
     atom   28 type  1   force =     0.00000000    0.00000000    0.00000000
     atom   29 type  1   force =     0.00000000    0.00000000    0.00000000
     atom   30 type  1   force =     0.00000000    0.00000000    0.00000000
     atom   31 type  1   force =     0.00000000    0.00000000    0.00000000
     atom   32 type  1   force =     0.00000000    0.00000000    0.00000000
     atom   33 type  1   force =     0.00000000    0.00000000    0.00000000
     atom   34 type  1   force =     0.00000000    0.00000000    0.00000000
     atom   35 type  1   force =     0.00000000    0.00000000    0.00000000
     atom   36 type  1   force =     0.00000000    0.00000000    0.00000000
     atom   37 type  1   force =     0.00000000    0.00000000    0.00000000
     atom   38 type  1   force =     0.00000000    0.00000000    0.00000000
     atom   39 type  1   force =     0.00000000    0.00000000    0.00000000
     atom   40 type  1   force =     0.00000000    0.00000000    0.00000000
     atom   41 type  1   force =     0.00000000    0.00000000    0.00000000
     atom   42 type  1   force =     0.00000000    0.00000000    0.00000000
     atom   43 type  1   force =     0.00000000    0.00000000    0.00000000
     atom   44 type  1   force =     0.00000000    0.00000000    0.00000000
     atom   45 type  1   force =     0.00000000    0.00000000    0.00000000
     atom   46 type  1   force =     0.00000000    0.00000000    0.00000000
     atom   47 type  1   force =     0.00000000    0.00000000    0.00000000
     atom   48 type  1   force =     0.00000000    0.00000000    0.00000000
     atom   49 type  1   force =     0.00000000    0.00000000    0.00000000
     atom   50 type  1   force =     0.00000000    0.00000000    0.00000000
     atom   51 type  1   force =     0.00000000    0.00000000    0.00000000
     atom   52 type  1   force =     0.00000000    0.00000000    0.00000000
     atom   53 type  1   force =     0.00000000    0.00000000    0.00000000
     atom   54 type  1   force =     0.00000000    0.00000000    0.00000000
     atom   55 type  1   force =     0.00000000    0.00000000    0.00000000
     atom   56 type  1   force =     0.00000000    0.00000000    0.00000000
     atom   57 type  1   force =     0.00000000    0.00000000    0.00000000
     atom   58 type  1   force =     0.00000000    0.00000000    0.00000000
     atom   59 type  1   force =     0.00000000    0.00000000    0.00000000
     atom   60 type  1   force =     0.00000000    0.00000000    0.00000000
     atom   61 type  1   force =     0.00000000    0.00000000    0.00000000
     atom   62 type  1   force =     0.00000000    0.00000000    0.00000000
     atom   63 type  1   force =     0.00000000    0.00000000    0.00000000
     atom   64 type  1   force =     0.00000000    0.00000000    0.00000000
     The Hubbard contrib.    to forces
     atom    1 type  1   force =     0.00000000    0.00000000    0.00000000
     atom    2 type  1   force =     0.00000000    0.00000000    0.00000000
     atom    3 type  1   force =     0.00000000    0.00000000    0.00000000
     atom    4 type  1   force =     0.00000000    0.00000000    0.00000000
     atom    5 type  1   force =     0.00000000    0.00000000    0.00000000
     atom    6 type  1   force =     0.00000000    0.00000000    0.00000000
     atom    7 type  1   force =     0.00000000    0.00000000    0.00000000
     atom    8 type  1   force =     0.00000000    0.00000000    0.00000000
     atom    9 type  1   force =     0.00000000    0.00000000    0.00000000
     atom   10 type  1   force =     0.00000000    0.00000000    0.00000000
     atom   11 type  1   force =     0.00000000    0.00000000    0.00000000
     atom   12 type  1   force =     0.00000000    0.00000000    0.00000000
     atom   13 type  1   force =     0.00000000    0.00000000    0.00000000
     atom   14 type  1   force =     0.00000000    0.00000000    0.00000000
     atom   15 type  1   force =     0.00000000    0.00000000    0.00000000
     atom   16 type  1   force =     0.00000000    0.00000000    0.00000000
     atom   17 type  1   force =     0.00000000    0.00000000    0.00000000
     atom   18 type  1   force =     0.00000000    0.00000000    0.00000000
     atom   19 type  1   force =     0.00000000    0.00000000    0.00000000
     atom   20 type  1   force =     0.00000000    0.00000000    0.00000000
     atom   21 type  1   force =     0.00000000    0.00000000    0.00000000
     atom   22 type  1   force =     0.00000000    0.00000000    0.00000000
     atom   23 type  1   force =     0.00000000    0.00000000    0.00000000
     atom   24 type  1   force =     0.00000000    0.00000000    0.00000000
     atom   25 type  1   force =     0.00000000    0.00000000    0.00000000
     atom   26 type  1   force =     0.00000000    0.00000000    0.00000000
     atom   27 type  1   force =     0.00000000    0.00000000    0.00000000
     atom   28 type  1   force =     0.00000000    0.00000000    0.00000000
     atom   29 type  1   force =     0.00000000    0.00000000    0.00000000
     atom   30 type  1   force =     0.00000000    0.00000000    0.00000000
     atom   31 type  1   force =     0.00000000    0.00000000    0.00000000
     atom   32 type  1   force =     0.00000000    0.00000000    0.00000000
     atom   33 type  1   force =     0.00000000    0.00000000    0.00000000
     atom   34 type  1   force =     0.00000000    0.00000000    0.00000000
     atom   35 type  1   force =     0.00000000    0.00000000    0.00000000
     atom   36 type  1   force =     0.00000000    0.00000000    0.00000000
     atom   37 type  1   force =     0.00000000    0.00000000    0.00000000
     atom   38 type  1   force =     0.00000000    0.00000000    0.00000000
     atom   39 type  1   force =     0.00000000    0.00000000    0.00000000
     atom   40 type  1   force =     0.00000000    0.00000000    0.00000000
     atom   41 type  1   force =     0.00000000    0.00000000    0.00000000
     atom   42 type  1   force =     0.00000000    0.00000000    0.00000000
     atom   43 type  1   force =     0.00000000    0.00000000    0.00000000
     atom   44 type  1   force =     0.00000000    0.00000000    0.00000000
     atom   45 type  1   force =     0.00000000    0.00000000    0.00000000
     atom   46 type  1   force =     0.00000000    0.00000000    0.00000000
     atom   47 type  1   force =     0.00000000    0.00000000    0.00000000
     atom   48 type  1   force =     0.00000000    0.00000000    0.00000000
     atom   49 type  1   force =     0.00000000    0.00000000    0.00000000
     atom   50 type  1   force =     0.00000000    0.00000000    0.00000000
     atom   51 type  1   force =     0.00000000    0.00000000    0.00000000
     atom   52 type  1   force =     0.00000000    0.00000000    0.00000000
     atom   53 type  1   force =     0.00000000    0.00000000    0.00000000
     atom   54 type  1   force =     0.00000000    0.00000000    0.00000000
     atom   55 type  1   force =     0.00000000    0.00000000    0.00000000
     atom   56 type  1   force =     0.00000000    0.00000000    0.00000000
     atom   57 type  1   force =     0.00000000    0.00000000    0.00000000
     atom   58 type  1   force =     0.00000000    0.00000000    0.00000000
     atom   59 type  1   force =     0.00000000    0.00000000    0.00000000
     atom   60 type  1   force =     0.00000000    0.00000000    0.00000000
     atom   61 type  1   force =     0.00000000    0.00000000    0.00000000
     atom   62 type  1   force =     0.00000000    0.00000000    0.00000000
     atom   63 type  1   force =     0.00000000    0.00000000    0.00000000
     atom   64 type  1   force =     0.00000000    0.00000000    0.00000000
     The SCF correction term to forces
     atom    1 type  1   force =    -0.00001592   -0.00003799    0.00048912
     atom    2 type  1   force =     0.00002832   -0.00004589    0.00070225
     atom    3 type  1   force =    -0.00010210   -0.00001986   -0.00016954
     atom    4 type  1   force =     0.00009215    0.00006433    0.00005385
     atom    5 type  1   force =     0.00000435   -0.00004690    0.00053719
     atom    6 type  1   force =     0.00000419   -0.00002006    0.00059385
     atom    7 type  1   force =    -0.00065606    0.00038156   -0.00001320
     atom    8 type  1   force =     0.00063145   -0.00016330   -0.00000142
     atom    9 type  1   force =     0.00000353    0.00002580    0.00063773
     atom   10 type  1   force =    -0.00000204    0.00005890    0.00050922
     atom   11 type  1   force =    -0.00007234   -0.00008554    0.00009620
     atom   12 type  1   force =     0.00007803    0.00003712   -0.00009987
     atom   13 type  1   force =    -0.00002719    0.00003682    0.00053573
     atom   14 type  1   force =     0.00001586    0.00003547    0.00060731
     atom   15 type  1   force =     0.00047850   -0.00048522   -0.00006158
     atom   16 type  1   force =    -0.00046236    0.00026113   -0.00005300
     atom   17 type  1   force =     0.00002361   -0.00000906    0.00054596
     atom   18 type  1   force =    -0.00003510   -0.00007296    0.00058266
     atom   19 type  1   force =     0.00070667   -0.00021769   -0.00007713
     atom   20 type  1   force =    -0.00069041    0.00026498   -0.00004521
     atom   21 type  1   force =     0.00002096   -0.00000922    0.00048534
     atom   22 type  1   force =    -0.00003257   -0.00006822    0.00068789
     atom   23 type  1   force =     0.00013488    0.00020011   -0.00012902
     atom   24 type  1   force =    -0.00011168    0.00001817    0.00011854
     atom   25 type  1   force =     0.00005224    0.00006338    0.00055995
     atom   26 type  1   force =    -0.00005422    0.00002171    0.00058235
     atom   27 type  1   force =    -0.00041855    0.00038227   -0.00002047
     atom   28 type  1   force =     0.00041309   -0.00042562    0.00001323
     atom   29 type  1   force =     0.00006432    0.00005004    0.00065439
     atom   30 type  1   force =    -0.00005343    0.00001600    0.00049955
     atom   31 type  1   force =     0.00014863   -0.00003063    0.00003438
     atom   32 type  1   force =    -0.00016146   -0.00018802   -0.00014308
     atom   33 type  1   force =     0.00019113   -0.00012783   -0.00065666
     atom   34 type  1   force =    -0.00023800    0.00009354   -0.00032836
     atom   35 type  1   force =     0.00036910   -0.00024014    0.00029679
     atom   36 type  1   force =    -0.00041763    0.00024224    0.00002695
     atom   37 type  1   force =    -0.00010498    0.00007391   -0.00069532
     atom   38 type  1   force =     0.00014857   -0.00008626   -0.00018373
     atom   39 type  1   force =    -0.00024320    0.00022695    0.00033627
     atom   40 type  1   force =     0.00028772   -0.00004004   -0.00006901
     atom   41 type  1   force =    -0.00020229    0.00015750   -0.00030132
     atom   42 type  1   force =     0.00019127   -0.00009104   -0.00043628
     atom   43 type  1   force =    -0.00043309    0.00024882    0.00006608
     atom   44 type  1   force =     0.00041478   -0.00021108    0.00013370
     atom   45 type  1   force =     0.00015492   -0.00008577   -0.00026144
     atom   46 type  1   force =    -0.00013552    0.00006115   -0.00058028
     atom   47 type  1   force =     0.00024955   -0.00026775    0.00001447
     atom   48 type  1   force =    -0.00023240    0.00004326    0.00022237
     atom   49 type  1   force =     0.00026346   -0.00004972   -0.00028857
     atom   50 type  1   force =    -0.00021574   -0.00001791   -0.00069055
     atom   51 type  1   force =     0.00040146   -0.00008965    0.00000894
     atom   52 type  1   force =    -0.00035525    0.00005486    0.00031457
     atom   53 type  1   force =     0.00029101   -0.00004678   -0.00055801
     atom   54 type  1   force =    -0.00032655    0.00006912   -0.00031512
     atom   55 type  1   force =     0.00051245   -0.00005164    0.00022754
     atom   56 type  1   force =    -0.00055868    0.00027843    0.00005543
     atom   57 type  1   force =    -0.00001997    0.00015860   -0.00058097
     atom   58 type  1   force =     0.00003385   -0.00012673   -0.00015389
     atom   59 type  1   force =    -0.00011763    0.00022365    0.00025569
     atom   60 type  1   force =     0.00013448   -0.00022082   -0.00005789
     atom   61 type  1   force =    -0.00010943    0.00018735   -0.00031391
     atom   62 type  1   force =     0.00008923   -0.00017453   -0.00053472
     atom   63 type  1   force =    -0.00029006    0.00021277    0.00003122
     atom   64 type  1   force =     0.00027239   -0.00040418    0.00020697

     Total force =     0.028181     Total SCF correction =     0.004094
     SCF correction compared to forces is large: reduce conv_thr to get better values


     Computing stress (Cartesian axis) and pressure

          total   stress  (Ry/bohr**3)                   (kbar)     P=       -1.33
  -0.00001299  -0.00000000   0.00000000           -1.91       -0.00        0.00
  -0.00000000  -0.00001299   0.00000000           -0.00       -1.91        0.00
   0.00000000   0.00000000  -0.00000122            0.00        0.00       -0.18

     kinetic stress (kbar)  16612.66     -0.00     -0.00
                               -0.00  16612.66      0.00
                               -0.00      0.00  16702.47

     local   stress (kbar)**********     -0.30     -0.19
                               -0.30**********      0.04
                               -0.19      0.041558839.80

     nonloc. stress (kbar)  -1735.28      0.00      0.00
                                0.00  -1735.27      0.00
                                0.00      0.00  -1799.31

     hartree stress (kbar) 806096.06      0.14      0.08
                                0.14 806096.25     -0.02
                                0.08     -0.02-731989.00

     exc-cor stress (kbar)  -8376.88      0.00      0.00
                                0.00  -8376.88     -0.00
                                0.00     -0.00  -8388.15

     corecor stress (kbar)      0.00      0.00      0.00
                                0.00      0.00      0.00
                                0.00      0.00      0.00

     ewald   stress (kbar) 726681.15      0.16      0.11
                                0.16 726681.37     -0.02
                                0.11     -0.02-833365.99

     hubbard stress (kbar)      0.00      0.00      0.00
                                0.00      0.00      0.00
                                0.00      0.00      0.00

     DFT-D   stress (kbar)      0.00      0.00      0.00
                                0.00      0.00      0.00
                                0.00      0.00      0.00

     XDM     stress (kbar)      0.00      0.00      0.00
                                0.00      0.00      0.00
                                0.00      0.00      0.00

     dft-nl  stress (kbar)      0.00      0.00      0.00
                                0.00      0.00      0.00
                                0.00      0.00      0.00

     TS-vdW  stress (kbar)      0.00      0.00      0.00
                                0.00      0.00      0.00
                                0.00      0.00      0.00

     MDB     stress (kbar)      0.00      0.00      0.00
                                0.00      0.00      0.00
                                0.00      0.00      0.00

     3D-RISM stress (kbar)      0.00      0.00      0.00
                                0.00      0.00      0.00
                                0.00      0.00      0.00


     Writing all to output data dir ./tmp/Zn002_2x2x4_scf.save/ :
     XML data file, charge density, pseudopotentials, collected wavefunctions

     init_run     :    146.81s CPU    148.27s WALL (       1 calls)
     electrons    :   7096.28s CPU   7161.86s WALL (       1 calls)
     forces       :    119.32s CPU    119.85s WALL (       1 calls)
     stress       :    351.11s CPU    352.32s WALL (       1 calls)

     Called by init_run:
     wfcinit      :    145.83s CPU    147.26s WALL (       1 calls)
     wfcinit:atom :      0.08s CPU      0.13s WALL (       5 calls)
     wfcinit:wfcr :    144.68s CPU    146.01s WALL (       5 calls)
     potinit      :      0.06s CPU      0.06s WALL (       1 calls)
     hinit0       :      0.03s CPU      0.03s WALL (       1 calls)

     Called by electrons:
     c_bands      :   6655.52s CPU   6714.86s WALL (      13 calls)
     sum_band     :    431.31s CPU    437.29s WALL (      13 calls)
     v_of_rho     :      0.58s CPU      0.62s WALL (      13 calls)
     v_h          :      0.04s CPU      0.04s WALL (      13 calls)
     v_xc         :      0.55s CPU      0.58s WALL (      13 calls)
     newd         :      9.51s CPU      9.74s WALL (      13 calls)
     mix_rho      :      0.09s CPU      0.10s WALL (      13 calls)

     Called by c_bands:
     init_us_2    :      4.76s CPU      4.78s WALL (     145 calls)
     cegterg      :   6645.39s CPU   6704.68s WALL (      65 calls)

     Called by sum_band:
     sum_band:wei :      0.05s CPU      0.05s WALL (      13 calls)
     sum_band:loo :    422.71s CPU    428.47s WALL (      13 calls)
     sum_band:buf :      0.99s CPU      1.00s WALL (      65 calls)
     sum_band:ini :      2.16s CPU      2.17s WALL (      65 calls)
     sum_band:cal :    374.97s CPU    376.48s WALL (      65 calls)
     sum_band:bec :      2.44s CPU      2.45s WALL (      65 calls)
     addusdens    :      8.37s CPU      8.57s WALL (      13 calls)
                                        0.00s GPU  (      13 calls)
     addusd:skk   :      0.09s CPU      0.09s WALL (      13 calls)
                                        0.00s GPU  (      13 calls)

     Called by *egterg:
     cdiaghg      :    420.48s CPU    437.99s WALL (     436 calls)
     cegterg:over :   1047.82s CPU   1051.12s WALL (     376 calls)
     cegterg:upda :    574.98s CPU    577.16s WALL (     376 calls)
     cegterg:last :   1636.39s CPU   1641.78s WALL (     130 calls)
     cdiaghg:chol :     28.35s CPU     28.42s WALL (     436 calls)
     cdiaghg:inve :      4.69s CPU      4.70s WALL (     436 calls)
     cdiaghg:para :    131.60s CPU    133.52s WALL (     872 calls)
     h_psi        :   1932.95s CPU   1960.28s WALL (     446 calls)
     s_psi        :    822.74s CPU    824.73s WALL (     446 calls)
     g_psi        :      0.73s CPU      0.73s WALL (     376 calls)

     Called by h_psi:
     h_psi:calbec :    902.85s CPU    906.47s WALL (     446 calls)
     vloc_psi     :    202.92s CPU    223.54s WALL (     446 calls)
     add_vuspsi   :    825.40s CPU    827.43s WALL (     446 calls)

     General routines
     calbec       :   1425.10s CPU   1430.83s WALL (     536 calls)
     fft          :      0.36s CPU      0.41s WALL (     152 calls)
     ffts         :      0.03s CPU      0.03s WALL (      13 calls)
     fftw         :    225.70s CPU    248.70s WALL (  289502 calls)

     Parallel routines

     PWSCF        :      2h 8m CPU      2h 9m WALL


   This run was terminated on:   1:34:26  28Jan1998            

=------------------------------------------------------------------------------=
   JOB DONE.
=------------------------------------------------------------------------------=
Note: The following floating-point exceptions are signalling: IEEE_DENORMAL
Note: The following floating-point exceptions are signalling: IEEE_DENORMAL
Note: The following floating-point exceptions are signalling: IEEE_DENORMAL
Note: The following floating-point exceptions are signalling: IEEE_DENORMAL
Note: The following floating-point exceptions are signalling: IEEE_DENORMAL
Note: The following floating-point exceptions are signalling: IEEE_DENORMAL
Note: The following floating-point exceptions are signalling: IEEE_DENORMAL
Note: The following floating-point exceptions are signalling: IEEE_DENORMAL
Note: The following floating-point exceptions are signalling: IEEE_DENORMAL
