--------------------------------------------------------------------------
By default, for Open MPI 4.0 and later, infiniband ports on a device
are not used by default.  The intent is to use UCX for these devices.
You can override this policy by setting the btl_openib_allow_ib MCA parameter
to true.

  Local host:              psid02
  Local adapter:           mlx5_0
  Local port:              1

--------------------------------------------------------------------------
--------------------------------------------------------------------------
WARNING: There was an error initializing an OpenFabrics device.

  Local host:   psid02
  Local device: mlx5_0
--------------------------------------------------------------------------

     Program PWSCF v.7.3.1 starts on 19Mar2025 at 15: 7:47 

     This program is part of the open-source Quantum ESPRESSO suite
     for quantum simulation of materials; please cite
         "P. Giannozzi et al., J. Phys.:Condens. Matter 21 395502 (2009);
         "P. Giannozzi et al., J. Phys.:Condens. Matter 29 465901 (2017);
         "P. Giannozzi et al., J. Chem. Phys. 152 154105 (2020);
          URL http://www.quantum-espresso.org", 
     in publications or presentations arising from this work. More details at
     http://www.quantum-espresso.org/quote

     Parallel version (MPI), running on    30 processors

     MPI processes distributed on     1 nodes
     81929 MiB available memory on the printing compute node when the environment starts

     Waiting for input...
     Reading input from standard input
Warning: card &CELL ignored
Warning: card   CELL_DOFREE = 'ALL' ignored
Warning: card / ignored

     Current dimensions of program PWSCF are:
     Max number of different atomic species (ntypx) = 10
     Max number of k-points (npk) =  40000
     Max angular momentum in pseudopotentials (lmaxx) =  4

     R & G space division:  proc/nbgrp/npool/nimage =      30
     Subspace diagonalization in iterative solution of the eigenvalue problem:
     one sub-group per band group will be used
     custom distributed-memory algorithm (size of sub-group:  5*  5 procs)


     Parallelization info
     --------------------
     sticks:   dense  smooth     PW     G-vecs:    dense   smooth      PW
     Min         212     212     58                26815    26815    3835
     Max         213     213     59                26823    26823    3839
     Sum        6383    6383   1757               804589   804589  115099

     Using Slab Decomposition



     bravais-lattice index     =            0
     lattice parameter (alat)  =      20.9009  a.u.
     unit-cell volume          =   16846.7507 (a.u.)^3
     number of atoms/cell      =           64
     number of atomic types    =            1
     number of electrons       =      1280.00
     number of Kohn-Sham states=          768
     kinetic-energy cutoff     =      50.0000  Ry
     charge density cutoff     =     200.0000  Ry
     scf convergence threshold =      7.3E-07
     mixing beta               =       0.7000
     number of iterations used =            8  plain     mixing
     Exchange-correlation= SLA  PW   PBE  PBE
                           (   1   4   3   4   0   0   0)

     celldm(1)=  20.900943  celldm(2)=   0.000000  celldm(3)=   0.000000
     celldm(4)=   0.000000  celldm(5)=   0.000000  celldm(6)=   0.000000

     crystal axes: (cart. coord. in units of alat)
               a(1) = (   1.000000   0.000000   0.000000 )  
               a(2) = (  -0.223489   0.918700   0.000000 )  
               a(3) = (  -4.200249  -1.021781   2.008375 )  

     reciprocal axes: (cart. coord. in units 2 pi/alat)
               b(1) = (  1.000000  0.243267  2.215131 )  
               b(2) = ( -0.000000  1.088495  0.553783 )  
               b(3) = (  0.000000 -0.000000  0.497915 )  


     PseudoPot. # 1 for Zn read from file:
     /home/ys/qepseudo/SSSP_1.3.0_PBE_efficiency/Zn_pbe_v1.uspp.F.UPF
     MD5 check sum: df62231357ef9e81f77b2b3087fa5675
     Pseudo is Ultrasoft, Zval = 20.0
     Generated by new atomic code, or converted to UPF format
     Using radial grid of  943 points,  6 beta functions with: 
                l(1) =   0
                l(2) =   0
                l(3) =   1
                l(4) =   1
                l(5) =   2
                l(6) =   2
     Q(r) pseudized with  8 coefficients,  rinner =    1.100   1.100   1.100
                                                       1.100   1.100

     atomic species   valence    mass     pseudopotential
     Zn               20.00    65.38000     Zn( 1.00)

     No symmetry found


                                    s                        frac. trans.

      isym =  1     identity                                     

 cryst.   s( 1) = (     1          0          0      )
                  (     0          1          0      )
                  (     0          0          1      )

 cart.    s( 1) = (  1.0000000  0.0000000  0.0000000 )
                  (  0.0000000  1.0000000  0.0000000 )
                  (  0.0000000  0.0000000  1.0000000 )


   Cartesian axes

     site n.     atom                  positions (alat units)
         1        Zn     tau(   1) = (  -0.0970639   0.0980210   0.1082939  )
         2        Zn     tau(   2) = (  -0.2088085   0.5573710   0.1082939  )
         3        Zn     tau(   3) = (  -0.4853192   0.0035714   0.2939406  )
         4        Zn     tau(   4) = (  -0.5970639   0.4629214   0.2939406  )
         5        Zn     tau(   5) = (  -0.8778168  -0.0917986   0.5024637  )
         6        Zn     tau(   6) = (  -0.9895264   0.3675466   0.5024137  )
         7        Zn     tau(   7) = (  -1.2406027  -0.1798552   0.6910406  )
         8        Zn     tau(   8) = (  -1.3522669   0.2794611   0.6910199  )
         9        Zn     tau(   9) = (  -0.1529362   0.3276960   0.1082939  )
        10        Zn     tau(  10) = (  -0.2646808   0.7870460   0.1082939  )
        11        Zn     tau(  11) = (  -0.5411915   0.2332464   0.2939406  )
        12        Zn     tau(  12) = (  -0.6529362   0.6925964   0.2939406  )
        13        Zn     tau(  13) = (  -0.9336469   0.1378867   0.5024624  )
        14        Zn     tau(  14) = (  -1.0454415   0.5972109   0.5024147  )
        15        Zn     tau(  15) = (  -1.2963824   0.0498229   0.6909782  )
        16        Zn     tau(  16) = (  -1.4082339   0.5091311   0.6910822  )
        17        Zn     tau(  17) = (   0.4029361   0.0980210   0.1082939  )
        18        Zn     tau(  18) = (   0.2911915   0.5573710   0.1082939  )
        19        Zn     tau(  19) = (   0.0146808   0.0035714   0.2939406  )
        20        Zn     tau(  20) = (  -0.0970639   0.4629214   0.2939406  )
        21        Zn     tau(  21) = (  -0.3778584  -0.0918024   0.5025944  )
        22        Zn     tau(  22) = (  -0.4896087   0.3675192   0.5025659  )
        23        Zn     tau(  23) = (  -0.7409254  -0.1799822   0.6911262  )
        24        Zn     tau(  24) = (  -0.8527216   0.2793980   0.6911899  )
        25        Zn     tau(  25) = (   0.3470638   0.3276960   0.1082939  )
        26        Zn     tau(  26) = (   0.2353192   0.7870460   0.1082939  )
        27        Zn     tau(  27) = (  -0.0411915   0.2332464   0.2939406  )
        28        Zn     tau(  28) = (  -0.1529362   0.6925964   0.2939406  )
        29        Zn     tau(  29) = (  -0.4337391   0.1378295   0.5025928  )
        30        Zn     tau(  30) = (  -0.5454721   0.5972380   0.5025679  )
        31        Zn     tau(  31) = (  -0.7968526   0.0496773   0.6911857  )
        32        Zn     tau(  32) = (  -0.9085381   0.5090884   0.6911313  )
        33        Zn     tau(  33) = (   0.1529362   0.0372043   0.0773528  )
        34        Zn     tau(  34) = (   0.0411915   0.4965543   0.0773528  )
        35        Zn     tau(  35) = (  -0.2353192  -0.0572454   0.2629995  )
        36        Zn     tau(  36) = (  -0.3470638   0.4021046   0.2629995  )
        37        Zn     tau(  37) = (  -0.6280951  -0.1529585   0.4553783  )
        38        Zn     tau(  38) = (  -0.7398296   0.3064181   0.4553934  )
        39        Zn     tau(  39) = (  -1.0052352  -0.2442836   0.6603749  )
        40        Zn     tau(  40) = (  -1.1168712   0.2151081   0.6603799  )
        41        Zn     tau(  41) = (   0.0970639   0.2668793   0.0773528  )
        42        Zn     tau(  42) = (  -0.0146808   0.7262293   0.0773528  )
        43        Zn     tau(  43) = (  -0.2911915   0.1724296   0.2629995  )
        44        Zn     tau(  44) = (  -0.4029361   0.6317796   0.2629995  )
        45        Zn     tau(  45) = (  -0.6839755   0.0767104   0.4553893  )
        46        Zn     tau(  46) = (  -0.7956904   0.5360988   0.4553814  )
        47        Zn     tau(  47) = (  -1.0610488  -0.0145857   0.6603978  )
        48        Zn     tau(  48) = (  -1.1728037   0.4447627   0.6603571  )
        49        Zn     tau(  49) = (   0.6529362   0.0372043   0.0773528  )
        50        Zn     tau(  50) = (   0.5411915   0.4965543   0.0773528  )
        51        Zn     tau(  51) = (   0.2646808  -0.0572454   0.2629995  )
        52        Zn     tau(  52) = (   0.1529362   0.4021046   0.2629995  )
        53        Zn     tau(  53) = (  -0.1280445  -0.1528982   0.4553743  )
        54        Zn     tau(  54) = (  -0.2397657   0.3063891   0.4553297  )
        55        Zn     tau(  55) = (  -0.5055002  -0.2443167   0.6603316  )
        56        Zn     tau(  56) = (  -0.6173111   0.2149623   0.6603566  )
        57        Zn     tau(  57) = (   0.5970639   0.2668793   0.0773528  )
        58        Zn     tau(  58) = (   0.4853192   0.7262293   0.0773528  )
        59        Zn     tau(  59) = (   0.2088085   0.1724296   0.2629995  )
        60        Zn     tau(  60) = (   0.0970639   0.6317796   0.2629995  )
        61        Zn     tau(  61) = (  -0.1838756   0.0767547   0.4553744  )
        62        Zn     tau(  62) = (  -0.2956772   0.5360837   0.4553280  )
        63        Zn     tau(  63) = (  -0.5614277  -0.0146977   0.6603020  )
        64        Zn     tau(  64) = (  -0.6731294   0.4446946   0.6603871  )

   Crystallographic axes

     site n.     atom                  positions (cryst. coord.)
         1        Zn     tau(   1) = (  0.1666667  0.1666667  0.0539212  )
         2        Zn     tau(   2) = (  0.1666667  0.6666667  0.0539212  )
         3        Zn     tau(   3) = (  0.1666667  0.1666667  0.1463574  )
         4        Zn     tau(   4) = (  0.1666667  0.6666667  0.1463574  )
         5        Zn     tau(   5) = (  0.2128747  0.1783335  0.2501842  )
         6        Zn     tau(   6) = (  0.2127978  0.6783005  0.2501593  )
         7        Zn     tau(   7) = (  0.2463902  0.1869149  0.3440795  )
         8        Zn     tau(   8) = (  0.2464166  0.6868668  0.3440692  )
         9        Zn     tau(   9) = (  0.1666667  0.4166667  0.0539212  )
        10        Zn     tau(  10) = (  0.1666667  0.9166667  0.0539212  )
        11        Zn     tau(  11) = (  0.1666667  0.4166667  0.1463574  )
        12        Zn     tau(  12) = (  0.1666667  0.9166667  0.1463574  )
        13        Zn     tau(  13) = (  0.2129167  0.4283440  0.2501836  )
        14        Zn     tau(  14) = (  0.2127547  0.9282895  0.2501598  )
        15        Zn     tau(  15) = (  0.2463452  0.4368838  0.3440484  )
        16        Zn     tau(  16) = (  0.2464587  0.9368959  0.3441002  )
        17        Zn     tau(  17) = (  0.6666667  0.1666667  0.0539212  )
        18        Zn     tau(  18) = (  0.6666667  0.6666667  0.0539212  )
        19        Zn     tau(  19) = (  0.6666667  0.1666667  0.1463574  )
        20        Zn     tau(  20) = (  0.6666667  0.6666667  0.1463574  )
        21        Zn     tau(  21) = (  0.7131217  0.1784017  0.2502493  )
        22        Zn     tau(  22) = (  0.7130461  0.6783550  0.2502351  )
        23        Zn     tau(  23) = (  0.7462263  0.1868242  0.3441221  )
        24        Zn     tau(  24) = (  0.7463231  0.6868923  0.3441538  )
        25        Zn     tau(  25) = (  0.6666667  0.4166667  0.0539212  )
        26        Zn     tau(  26) = (  0.6666667  0.9166667  0.0539212  )
        27        Zn     tau(  27) = (  0.6666667  0.4166667  0.1463574  )
        28        Zn     tau(  28) = (  0.6666667  0.9166667  0.1463574  )
        29        Zn     tau(  29) = (  0.7130994  0.4283539  0.2502485  )
        30        Zn     tau(  30) = (  0.7130701  0.9284039  0.2502361  )
        31        Zn     tau(  31) = (  0.7462994  0.4368403  0.3441517  )
        32        Zn     tau(  32) = (  0.7462528  0.9368766  0.3441246  )
        33        Zn     tau(  33) = (  0.3333333  0.0833333  0.0385151  )
        34        Zn     tau(  34) = (  0.3333333  0.5833333  0.0385151  )
        35        Zn     tau(  35) = (  0.3333333  0.0833333  0.1309514  )
        36        Zn     tau(  36) = (  0.3333333  0.5833333  0.1309514  )
        37        Zn     tau(  37) = (  0.3434179  0.0856861  0.2267397  )
        38        Zn     tau(  38) = (  0.3434679  0.5857235  0.2267472  )
        39        Zn     tau(  39) = (  0.3981557  0.0998028  0.3288105  )
        40        Zn     tau(  40) = (  0.3982858  0.5998511  0.3288131  )
        41        Zn     tau(  41) = (  0.3333333  0.3333333  0.0385151  )
        42        Zn     tau(  42) = (  0.3333333  0.8333333  0.0385151  )
        43        Zn     tau(  43) = (  0.3333333  0.3333333  0.1309514  )
        44        Zn     tau(  44) = (  0.3333333  0.8333333  0.1309514  )
        45        Zn     tau(  45) = (  0.3434327  0.3356857  0.2267452  )
        46        Zn     tau(  46) = (  0.3434542  0.8357230  0.2267412  )
        47        Zn     tau(  47) = (  0.3982709  0.3498405  0.3288220  )
        48        Zn     tau(  48) = (  0.3981701  0.8498162  0.3288017  )
        49        Zn     tau(  49) = (  0.8333333  0.0833333  0.0385151  )
        50        Zn     tau(  50) = (  0.8333333  0.5833333  0.0385151  )
        51        Zn     tau(  51) = (  0.8333333  0.0833333  0.1309514  )
        52        Zn     tau(  52) = (  0.8333333  0.5833333  0.1309514  )
        53        Zn     tau(  53) = (  0.8434743  0.0857495  0.2267377  )
        54        Zn     tau(  54) = (  0.8433836  0.5856566  0.2267155  )
        55        Zn     tau(  55) = (  0.8977868  0.0997428  0.3287890  )
        56        Zn     tau(  56) = (  0.8977586  0.5996794  0.3288014  )
        57        Zn     tau(  57) = (  0.8333333  0.3333333  0.0385151  )
        58        Zn     tau(  58) = (  0.8333333  0.8333333  0.0385151  )
        59        Zn     tau(  59) = (  0.8333333  0.3333333  0.1309514  )
        60        Zn     tau(  60) = (  0.8333333  0.8333333  0.1309514  )
        61        Zn     tau(  61) = (  0.8435104  0.3357256  0.2267377  )
        62        Zn     tau(  62) = (  0.8433456  0.8356770  0.2267147  )
        63        Zn     tau(  63) = (  0.8976524  0.3496655  0.3287743  )
        64        Zn     tau(  64) = (  0.8978942  0.8497587  0.3288166  )

     number of k points=     5  Marzari-Vanderbilt smearing, width (Ry)=  0.0200
                       cart. coord. in units 2pi/alat
        k(    1) = (   0.0000000   0.0000000   0.0000000), wk =   0.2222222
        k(    2) = (   0.0000000   0.3628315   0.1845943), wk =   0.4444444
        k(    3) = (   0.3333333   0.0810890   0.7383771), wk =   0.4444444
        k(    4) = (   0.3333333   0.4439205   0.9229714), wk =   0.4444444
        k(    5) = (   0.3333333  -0.2817426   0.5537829), wk =   0.4444444

                       cryst. coord.
        k(    1) = (   0.0000000   0.0000000   0.0000000), wk =   0.2222222
        k(    2) = (   0.0000000   0.3333333   0.0000000), wk =   0.4444444
        k(    3) = (   0.3333333   0.0000000   0.0000000), wk =   0.4444444
        k(    4) = (   0.3333333   0.3333333   0.0000000), wk =   0.4444444
        k(    5) = (   0.3333333  -0.3333333   0.0000000), wk =   0.4444444

     Dense  grid:   804589 G-vectors     FFT dimensions: (  96,  90, 450)

     Dynamical RAM for                 wfc:      39.28 MB

     Dynamical RAM for     wfc (w. buffer):     235.69 MB

     Dynamical RAM for           str. fact:       0.41 MB

     Dynamical RAM for           local pot:       0.00 MB

     Dynamical RAM for          nlocal pot:      58.92 MB

     Dynamical RAM for                qrad:       1.14 MB

     Dynamical RAM for          rho,v,vnew:       4.19 MB

     Dynamical RAM for               rhoin:       1.40 MB

     Dynamical RAM for            rho*nmix:       6.55 MB

     Dynamical RAM for           G-vectors:       1.74 MB

     Dynamical RAM for          h,s,v(r/c):       4.31 MB

     Dynamical RAM for          <psi|beta>:      13.50 MB

     Dynamical RAM for                 psi:      78.56 MB

     Dynamical RAM for                hpsi:      78.56 MB

     Dynamical RAM for                spsi:      78.56 MB

     Dynamical RAM for      wfcinit/wfcrot:     100.96 MB

     Dynamical RAM for           addusdens:     102.32 MB

     Dynamical RAM for          addusforce:     154.35 MB

     Dynamical RAM for         addusstress:      82.27 MB

     Estimated static dynamical RAM per process >     309.25 MB

     Estimated max dynamical RAM per process >     569.30 MB

     Estimated total dynamical RAM >      16.68 GB

     Initial potential from superposition of free atoms

     starting charge    1279.9910, renormalised to    1280.0000

     negative rho (up, down):  1.074E-02 0.000E+00
     Starting wfcs are  832 randomized atomic wfcs
[psid02:75046] 29 more processes have sent help message help-mpi-btl-openib.txt / ib port not selected
[psid02:75046] Set MCA parameter "orte_base_help_aggregate" to 0 to see all help / error messages
[psid02:75046] 29 more processes have sent help message help-mpi-btl-openib.txt / error in device init

     total cpu time spent up to now is      172.9 secs

     Self-consistent Calculation

     iteration #  1     ecut=    50.00 Ry     beta= 0.70
     Davidson diagonalization with overlap

---- Real-time Memory Report at c_bands before calling an iterative solver
           413 MiB given to the printing process from OS
             0 MiB allocation reported by mallinfo(arena+hblkhd)
         71388 MiB available memory on the node where the printing process lives
------------------
     ethr =  1.00E-02,  avg # of iterations =  8.0

     Threshold (ethr) on eigenvalues was too large:
     Diagonalizing with lowered threshold

     Davidson diagonalization with overlap

---- Real-time Memory Report at c_bands before calling an iterative solver
           606 MiB given to the printing process from OS
             0 MiB allocation reported by mallinfo(arena+hblkhd)
         71296 MiB available memory on the node where the printing process lives
------------------
     ethr =  1.39E-04,  avg # of iterations =  7.8

     negative rho (up, down):  9.116E-03 0.000E+00

     total cpu time spent up to now is     1454.5 secs

     total energy              =  -29537.79586364 Ry
     estimated scf accuracy    <       1.80822893 Ry

     iteration #  2     ecut=    50.00 Ry     beta= 0.70
     Davidson diagonalization with overlap

---- Real-time Memory Report at c_bands before calling an iterative solver
           608 MiB given to the printing process from OS
             0 MiB allocation reported by mallinfo(arena+hblkhd)
         71238 MiB available memory on the node where the printing process lives
------------------
     ethr =  1.41E-04,  avg # of iterations =  4.2

     negative rho (up, down):  8.945E-03 0.000E+00

     total cpu time spent up to now is     2242.7 secs

     total energy              =  -29537.89234158 Ry
     estimated scf accuracy    <       3.45291781 Ry

     iteration #  3     ecut=    50.00 Ry     beta= 0.70
     Davidson diagonalization with overlap

---- Real-time Memory Report at c_bands before calling an iterative solver
           610 MiB given to the printing process from OS
             0 MiB allocation reported by mallinfo(arena+hblkhd)
         71205 MiB available memory on the node where the printing process lives
------------------
     ethr =  1.41E-04,  avg # of iterations =  7.4

     negative rho (up, down):  8.919E-03 0.000E+00

     total cpu time spent up to now is     2991.4 secs

     total energy              =  -29537.74055064 Ry
     estimated scf accuracy    <      16.87970075 Ry

     iteration #  4     ecut=    50.00 Ry     beta= 0.70
     Davidson diagonalization with overlap

---- Real-time Memory Report at c_bands before calling an iterative solver
           611 MiB given to the printing process from OS
             0 MiB allocation reported by mallinfo(arena+hblkhd)
         71178 MiB available memory on the node where the printing process lives
------------------
     ethr =  1.41E-04,  avg # of iterations =  7.6

     negative rho (up, down):  8.873E-03 0.000E+00

     total cpu time spent up to now is     3602.7 secs

     total energy              =  -29538.54265635 Ry
     estimated scf accuracy    <       0.57413567 Ry

     iteration #  5     ecut=    50.00 Ry     beta= 0.70
     Davidson diagonalization with overlap

---- Real-time Memory Report at c_bands before calling an iterative solver
           612 MiB given to the printing process from OS
             0 MiB allocation reported by mallinfo(arena+hblkhd)
         71150 MiB available memory on the node where the printing process lives
------------------
     ethr =  4.49E-05,  avg # of iterations = 12.6

     negative rho (up, down):  8.578E-03 0.000E+00

     total cpu time spent up to now is     4227.9 secs

     total energy              =  -29538.57903208 Ry
     estimated scf accuracy    <       0.72299025 Ry

     iteration #  6     ecut=    50.00 Ry     beta= 0.70
     Davidson diagonalization with overlap

---- Real-time Memory Report at c_bands before calling an iterative solver
           613 MiB given to the printing process from OS
             0 MiB allocation reported by mallinfo(arena+hblkhd)
         71125 MiB available memory on the node where the printing process lives
------------------
     ethr =  4.49E-05,  avg # of iterations =  4.4

     negative rho (up, down):  8.595E-03 0.000E+00

     total cpu time spent up to now is     4804.8 secs

     total energy              =  -29538.64316385 Ry
     estimated scf accuracy    <       0.00390702 Ry

     iteration #  7     ecut=    50.00 Ry     beta= 0.70
     Davidson diagonalization with overlap

---- Real-time Memory Report at c_bands before calling an iterative solver
           614 MiB given to the printing process from OS
             0 MiB allocation reported by mallinfo(arena+hblkhd)
         71100 MiB available memory on the node where the printing process lives
------------------
     ethr =  3.05E-07,  avg # of iterations = 14.0

     negative rho (up, down):  8.596E-03 0.000E+00

     total cpu time spent up to now is     5570.8 secs

     total energy              =  -29538.64405391 Ry
     estimated scf accuracy    <       0.00020957 Ry

     iteration #  8     ecut=    50.00 Ry     beta= 0.70
     Davidson diagonalization with overlap

---- Real-time Memory Report at c_bands before calling an iterative solver
           614 MiB given to the printing process from OS
             0 MiB allocation reported by mallinfo(arena+hblkhd)
         71071 MiB available memory on the node where the printing process lives
------------------
     ethr =  1.64E-08,  avg # of iterations =  2.0

     negative rho (up, down):  8.597E-03 0.000E+00

     total cpu time spent up to now is     6246.5 secs

     total energy              =  -29538.64407324 Ry
     estimated scf accuracy    <       0.00011176 Ry

     iteration #  9     ecut=    50.00 Ry     beta= 0.70
     Davidson diagonalization with overlap

---- Real-time Memory Report at c_bands before calling an iterative solver
           615 MiB given to the printing process from OS
             0 MiB allocation reported by mallinfo(arena+hblkhd)
         71045 MiB available memory on the node where the printing process lives
------------------
     ethr =  8.73E-09,  avg # of iterations =  2.6

     negative rho (up, down):  8.597E-03 0.000E+00

     total cpu time spent up to now is     6809.7 secs

     total energy              =  -29538.64406880 Ry
     estimated scf accuracy    <       0.00029932 Ry

     iteration # 10     ecut=    50.00 Ry     beta= 0.70
     Davidson diagonalization with overlap

---- Real-time Memory Report at c_bands before calling an iterative solver
           616 MiB given to the printing process from OS
             0 MiB allocation reported by mallinfo(arena+hblkhd)
         71018 MiB available memory on the node where the printing process lives
------------------
     ethr =  8.73E-09,  avg # of iterations =  2.4

     negative rho (up, down):  8.597E-03 0.000E+00

     total cpu time spent up to now is     7358.2 secs

     total energy              =  -29538.64410180 Ry
     estimated scf accuracy    <       0.00002055 Ry

     iteration # 11     ecut=    50.00 Ry     beta= 0.70
     Davidson diagonalization with overlap

---- Real-time Memory Report at c_bands before calling an iterative solver
           617 MiB given to the printing process from OS
             0 MiB allocation reported by mallinfo(arena+hblkhd)
         70996 MiB available memory on the node where the printing process lives
------------------
     ethr =  1.61E-09,  avg # of iterations =  2.0

     negative rho (up, down):  8.598E-03 0.000E+00

     total cpu time spent up to now is     7910.4 secs

     total energy              =  -29538.64410334 Ry
     estimated scf accuracy    <       0.00001482 Ry

     iteration # 12     ecut=    50.00 Ry     beta= 0.70
     Davidson diagonalization with overlap

---- Real-time Memory Report at c_bands before calling an iterative solver
           617 MiB given to the printing process from OS
             0 MiB allocation reported by mallinfo(arena+hblkhd)
         70996 MiB available memory on the node where the printing process lives
------------------
     ethr =  1.16E-09,  avg # of iterations =  2.0

     negative rho (up, down):  8.598E-03 0.000E+00

     total cpu time spent up to now is     8457.8 secs

     total energy              =  -29538.64410520 Ry
     estimated scf accuracy    <       0.00000104 Ry

     iteration # 13     ecut=    50.00 Ry     beta= 0.70
     Davidson diagonalization with overlap

---- Real-time Memory Report at c_bands before calling an iterative solver
           617 MiB given to the printing process from OS
             0 MiB allocation reported by mallinfo(arena+hblkhd)
         70994 MiB available memory on the node where the printing process lives
------------------
     ethr =  8.13E-11,  avg # of iterations =  2.4

     negative rho (up, down):  8.598E-03 0.000E+00

     total cpu time spent up to now is     9010.7 secs

     total energy              =  -29538.64410522 Ry
     estimated scf accuracy    <       0.00000279 Ry

     iteration # 14     ecut=    50.00 Ry     beta= 0.70
     Davidson diagonalization with overlap

---- Real-time Memory Report at c_bands before calling an iterative solver
           617 MiB given to the printing process from OS
             0 MiB allocation reported by mallinfo(arena+hblkhd)
         70992 MiB available memory on the node where the printing process lives
------------------
     ethr =  8.13E-11,  avg # of iterations =  2.0

     negative rho (up, down):  8.598E-03 0.000E+00

     total cpu time spent up to now is     9557.9 secs

     End of self-consistent calculation

          k = 0.0000 0.0000 0.0000 (100565 PWs)   bands (ev):

  -123.9507-123.9504-123.9498-123.9498-123.9495-123.9495-123.9489-123.9486
  -123.9083-123.9078-123.9074-123.9074-123.9069-123.9069-123.9065-123.9060
  -123.8462-123.8456-123.8453-123.8453-123.8447-123.8447-123.8444-123.8438
  -123.8027-123.8020-123.8018-123.8018-123.8011-123.8011-123.8009-123.8001
  -123.7723-123.7721-123.7714-123.7714-123.7713-123.7713-123.7705-123.7704
  -123.6759-123.6757-123.6750-123.6750-123.6748-123.6745-123.6741-123.6736
  -123.6453-123.6452-123.6444-123.6444-123.6443-123.6443-123.6436-123.6434
  -123.5614-123.5613-123.5605-123.5604-123.5604-123.5604-123.5595-123.5594
   -78.1137 -78.1133 -78.1048 -78.1045 -78.1036 -78.1036 -78.1033 -78.1033
   -78.1024 -78.1021 -78.1014 -78.1014 -78.1011 -78.1011 -78.0984 -78.0979
   -78.0972 -78.0972 -78.0969 -78.0969 -78.0962 -78.0959 -78.0889 -78.0886
   -78.0729 -78.0725 -78.0624 -78.0618 -78.0612 -78.0612 -78.0608 -78.0608
   -78.0607 -78.0607 -78.0603 -78.0603 -78.0600 -78.0596 -78.0566 -78.0562
   -78.0556 -78.0556 -78.0552 -78.0551 -78.0546 -78.0542 -78.0484 -78.0480
   -78.0087 -78.0081 -77.9994 -77.9988 -77.9985 -77.9985 -77.9979 -77.9979
   -77.9977 -77.9972 -77.9970 -77.9968 -77.9968 -77.9966 -77.9962 -77.9962
   -77.9961 -77.9961 -77.9955 -77.9955 -77.9952 -77.9947 -77.9846 -77.9839
   -77.9639 -77.9633 -77.9569 -77.9562 -77.9559 -77.9559 -77.9552 -77.9552
   -77.9550 -77.9543 -77.9524 -77.9520 -77.9520 -77.9517 -77.9513 -77.9513
   -77.9513 -77.9513 -77.9506 -77.9506 -77.9505 -77.9497 -77.9396 -77.9389
   -77.9372 -77.9371 -77.9364 -77.9364 -77.9363 -77.9363 -77.9357 -77.9355
   -77.9294 -77.9292 -77.9197 -77.9195 -77.9187 -77.9187 -77.9185 -77.9185
   -77.9177 -77.9175 -77.9174 -77.9174 -77.9172 -77.9172 -77.9052 -77.9051
   -77.8373 -77.8372 -77.8364 -77.8363 -77.8362 -77.8360 -77.8356 -77.8354
   -77.8351 -77.8350 -77.8253 -77.8250 -77.8243 -77.8243 -77.8240 -77.8238
   -77.8235 -77.8235 -77.8232 -77.8230 -77.8230 -77.8227 -77.8112 -77.8108
   -77.8091 -77.8090 -77.8082 -77.8082 -77.8080 -77.8080 -77.8073 -77.8071
   -77.8021 -77.8020 -77.7955 -77.7952 -77.7945 -77.7945 -77.7944 -77.7944
   -77.7936 -77.7934 -77.7901 -77.7901 -77.7899 -77.7899 -77.7779 -77.7777
   -77.7292 -77.7290 -77.7282 -77.7281 -77.7281 -77.7280 -77.7271 -77.7271
   -77.7154 -77.7154 -77.7112 -77.7111 -77.7103 -77.7103 -77.7102 -77.7102
   -77.7093 -77.7092 -77.7034 -77.7034 -77.7033 -77.7033 -77.6912 -77.6911
    -7.2935  -6.2664  -6.2147  -6.1574  -5.9570  -5.9570  -5.7252  -5.6960
    -5.6370  -5.6160  -5.6160  -5.6157  -5.5951  -5.5825  -5.5823  -5.5789
    -5.5284  -5.5282  -5.4884  -5.4881  -5.4560  -5.4467  -5.4342  -5.4342
    -5.4318  -5.4317  -5.4128  -5.4005  -5.4001  -5.3964  -5.3860  -5.3860
    -5.3584  -5.3584  -5.3450  -5.3416  -5.3416  -5.3267  -5.3192  -5.3191
    -5.2975  -5.2975  -5.2891  -5.2891  -5.2728  -5.2724  -5.2723  -5.2696
    -5.2696  -5.2539  -5.2539  -5.2489  -5.2345  -5.2287  -5.2287  -5.2173
    -5.2173  -5.2111  -5.2109  -5.1988  -5.1988  -5.1819  -5.1812  -5.1790
    -5.1790  -5.1456  -5.1456  -5.1454  -5.1454  -5.1403  -5.1400  -5.1242
    -5.1233  -5.1230  -5.1015  -5.1003  -5.1003  -5.0821  -5.0821  -5.0773
    -5.0772  -5.0769  -5.0769  -5.0612  -5.0612  -5.0551  -5.0429  -5.0390
    -5.0390  -5.0333  -5.0333  -5.0295  -5.0165  -5.0128  -5.0128  -5.0020
    -4.9970  -4.9966  -4.9898  -4.9898  -4.9787  -4.9677  -4.9677  -4.9636
    -4.9630  -4.9537  -4.9537  -4.9504  -4.9458  -4.9316  -4.9316  -4.9174
    -4.9174  -4.9159  -4.9159  -4.9060  -4.8987  -4.8980  -4.8896  -4.8896
    -4.8624  -4.8587  -4.8587  -4.8573  -4.8571  -4.8536  -4.8458  -4.8432
    -4.8432  -4.8219  -4.8094  -4.8044  -4.8042  -4.8001  -4.8001  -4.7995
    -4.7995  -4.7980  -4.7747  -4.7740  -4.7693  -4.7693  -4.7663  -4.7574
    -4.7550  -4.7550  -4.7511  -4.7511  -4.7412  -4.7412  -4.7385  -4.7229
    -4.7228  -4.7228  -4.7214  -4.7214  -4.7053  -4.7018  -4.7012  -4.7012
    -4.6900  -4.6900  -4.6870  -4.6869  -4.6722  -4.6722  -4.6717  -4.6717
    -4.6686  -4.6685  -4.6547  -4.6547  -4.6436  -4.6436  -4.6410  -4.6410
    -4.6342  -4.6335  -4.6243  -4.6243  -4.6203  -4.6060  -4.6059  -4.5993
    -4.5990  -4.5990  -4.5926  -4.5926  -4.5733  -4.5728  -4.5728  -4.5703
    -4.5660  -4.5655  -4.5473  -4.5436  -4.5436  -4.5373  -4.5373  -4.5339
    -4.5323  -4.5323  -4.5195  -4.5195  -4.5192  -4.5190  -4.5188  -4.5188
    -4.5079  -4.4986  -4.4982  -4.4982  -4.4942  -4.4942  -4.4838  -4.4834
    -4.4807  -4.4800  -4.4768  -4.4766  -4.4766  -4.4743  -4.4739  -4.4725
    -4.4725  -4.4619  -4.4619  -4.4546  -4.4518  -4.4514  -4.4427  -4.4425
    -4.4373  -4.4373  -4.4368  -4.4368  -4.4291  -4.4291  -4.4154  -4.4154
    -4.4153  -4.4131  -4.4115  -4.4114  -4.4050  -4.4044  -4.3985  -4.3837
    -4.3831  -4.3804  -4.3804  -4.3789  -4.3744  -4.3695  -4.3673  -4.3670
    -4.3513  -4.3513  -4.3497  -4.3497  -4.3484  -4.3460  -4.3450  -4.3406
    -4.3404  -4.3401  -4.3158  -4.3158  -4.3146  -4.3146  -4.3135  -4.3135
    -4.3104  -4.3101  -4.3002  -4.2999  -4.2954  -4.2946  -4.2946  -4.2930
    -4.2857  -4.2847  -4.2847  -4.2639  -4.2637  -4.2629  -4.2589  -4.2589
    -4.2489  -4.2467  -4.2467  -4.2450  -4.2450  -4.2353  -4.2232  -4.2214
    -4.2214  -4.2184  -4.2183  -4.2182  -4.2180  -4.2175  -4.2084  -4.1961
    -4.1961  -4.1945  -4.1943  -4.1833  -4.1833  -4.1685  -4.1632  -4.1630
    -4.1492  -4.1488  -4.1261  -4.1235  -4.1164  -4.1067  -4.0933  -4.0933
    -4.0805  -4.0800  -4.0575  -4.0402  -4.0401  -4.0361  -3.9786  -3.9683
    -3.9679  -3.8440  -3.8375  -3.8374  -3.3912  -3.2663  -3.2663  -3.0339
    -3.0339  -2.2519  -1.9817  -1.9817  -1.9744  -1.9744  -1.9207  -1.2895
    -1.2832  -1.2832  -1.1994  -1.0924  -1.0924  -0.7245  -0.6734  -0.6727
    -0.5527  -0.5519  -0.1761  -0.0722   0.0328   0.0328   0.0426   0.0426
     0.3659   0.3856   0.3868   0.4722   0.4744   0.6149   0.6165   0.6165
     1.2923   1.2923   1.3699   1.3956   1.3968   1.4777   1.4777   1.8159
     2.0683   2.0696   2.2041   2.2061   2.2550   2.2550   2.2817   2.5763
     2.5763   2.6197   2.6212   2.7091   2.7091   2.7839   3.2284   3.3043
     3.3043   3.4283   3.4310   3.7576   3.7597   3.9206   3.9206   3.9580
     4.5624   4.5624   4.8173   4.8173   4.8476   4.8504   4.8890   4.8890
     4.9490   4.9781   4.9803   4.9815   5.0213   5.0214   5.3880   5.4226
     5.4227   5.4959   5.6419   5.7629   5.7668   6.1181   6.1181   6.1510
     6.1653   6.2909   6.2909   6.3979   6.3979   6.6544   6.7143   6.7794
     6.7823   6.8064   6.8064   7.0175   7.0175   7.0629   7.0834   7.2299
     7.2300   7.3587   7.3927   7.3927   7.4991   7.4998   7.5384   7.5384
     7.5757   7.5774   7.6289   7.6303   7.7062   7.7298   7.7339   7.7342
     7.7534   7.9361   7.9454   7.9473   7.9762   8.0151   8.0151   8.2125
     8.2125   8.2792   8.2792   8.3181   8.3207   8.3599   8.3600   8.4088
     8.4089   8.4301   8.4302   8.7680   8.7749   8.7751   8.7834   8.7881
     8.8104   8.8108   8.8693   8.8694   9.1017   9.2025   9.2139   9.2914
     9.4403   9.4403   9.4947   9.4947   9.5485   9.5827   9.5852   9.6356
     9.7279   9.7495   9.7495   9.8335   9.8552   9.8556   9.9303   9.9304
    10.0025  10.0034  10.0317  10.0317  10.0537  10.0537  10.1626  10.1626

     occupation numbers 
     1.0000   1.0000   1.0000   1.0000   1.0000   1.0000   1.0000   1.0000
     1.0000   1.0000   1.0000   1.0000   1.0000   1.0000   1.0000   1.0000
     1.0000   1.0000   1.0000   1.0000   1.0000   1.0000   1.0000   1.0000
     1.0000   1.0000   1.0000   1.0000   1.0000   1.0000   1.0000   1.0000
     1.0000   1.0000   1.0000   1.0000   1.0000   1.0000   1.0000   1.0000
     1.0000   1.0000   1.0000   1.0000   1.0000   1.0000   1.0000   1.0000
     1.0000   1.0000   1.0000   1.0000   1.0000   1.0000   1.0000   1.0000
     1.0000   1.0000   1.0000   1.0000   1.0000   1.0000   1.0000   1.0000
     1.0000   1.0000   1.0000   1.0000   1.0000   1.0000   1.0000   1.0000
     1.0000   1.0000   1.0000   1.0000   1.0000   1.0000   1.0000   1.0000
     1.0000   1.0000   1.0000   1.0000   1.0000   1.0000   1.0000   1.0000
     1.0000   1.0000   1.0000   1.0000   1.0000   1.0000   1.0000   1.0000
     1.0000   1.0000   1.0000   1.0000   1.0000   1.0000   1.0000   1.0000
     1.0000   1.0000   1.0000   1.0000   1.0000   1.0000   1.0000   1.0000
     1.0000   1.0000   1.0000   1.0000   1.0000   1.0000   1.0000   1.0000
     1.0000   1.0000   1.0000   1.0000   1.0000   1.0000   1.0000   1.0000
     1.0000   1.0000   1.0000   1.0000   1.0000   1.0000   1.0000   1.0000
     1.0000   1.0000   1.0000   1.0000   1.0000   1.0000   1.0000   1.0000
     1.0000   1.0000   1.0000   1.0000   1.0000   1.0000   1.0000   1.0000
     1.0000   1.0000   1.0000   1.0000   1.0000   1.0000   1.0000   1.0000
     1.0000   1.0000   1.0000   1.0000   1.0000   1.0000   1.0000   1.0000
     1.0000   1.0000   1.0000   1.0000   1.0000   1.0000   1.0000   1.0000
     1.0000   1.0000   1.0000   1.0000   1.0000   1.0000   1.0000   1.0000
     1.0000   1.0000   1.0000   1.0000   1.0000   1.0000   1.0000   1.0000
     1.0000   1.0000   1.0000   1.0000   1.0000   1.0000   1.0000   1.0000
     1.0000   1.0000   1.0000   1.0000   1.0000   1.0000   1.0000   1.0000
     1.0000   1.0000   1.0000   1.0000   1.0000   1.0000   1.0000   1.0000
     1.0000   1.0000   1.0000   1.0000   1.0000   1.0000   1.0000   1.0000
     1.0000   1.0000   1.0000   1.0000   1.0000   1.0000   1.0000   1.0000
     1.0000   1.0000   1.0000   1.0000   1.0000   1.0000   1.0000   1.0000
     1.0000   1.0000   1.0000   1.0000   1.0000   1.0000   1.0000   1.0000
     1.0000   1.0000   1.0000   1.0000   1.0000   1.0000   1.0000   1.0000
     1.0000   1.0000   1.0000   1.0000   1.0000   1.0000   1.0000   1.0000
     1.0000   1.0000   1.0000   1.0000   1.0000   1.0000   1.0000   1.0000
     1.0000   1.0000   1.0000   1.0000   1.0000   1.0000   1.0000   1.0000
     1.0000   1.0000   1.0000   1.0000   1.0000   1.0000   1.0000   1.0000
     1.0000   1.0000   1.0000   1.0000   1.0000   1.0000   1.0000   1.0000
     1.0000   1.0000   1.0000   1.0000   1.0000   1.0000   1.0000   1.0000
     1.0000   1.0000   1.0000   1.0000   1.0000   1.0000   1.0000   1.0000
     1.0000   1.0000   1.0000   1.0000   1.0000   1.0000   1.0000   1.0000
     1.0000   1.0000   1.0000   1.0000   1.0000   1.0000   1.0000   1.0000
     1.0000   1.0000   1.0000   1.0000   1.0000   1.0000   1.0000   1.0000
     1.0000   1.0000   1.0000   1.0000   1.0000   1.0000   1.0000   1.0000
     1.0000   1.0000   1.0000   1.0000   1.0000   1.0000   1.0000   1.0000
     1.0000   1.0000   1.0000   1.0000   1.0000   1.0000   1.0000   1.0000
     1.0000   1.0000   1.0000   1.0000   1.0000   1.0000   1.0000   1.0000
     1.0000   1.0000   1.0000   1.0000   1.0000   1.0000   1.0000   1.0000
     1.0000   1.0000   1.0000   1.0000   1.0000   1.0000   1.0000   1.0000
     1.0000   1.0000   1.0000   1.0000   1.0000   1.0000   1.0000   1.0000
     1.0000   1.0000   1.0000   1.0000   1.0000   1.0000   1.0000   1.0000
     1.0000   1.0000   1.0000   1.0000   1.0000   1.0000   1.0000   1.0000
     1.0000   1.0000   1.0000   1.0000   1.0000   1.0000   1.0000   1.0000
     1.0000   1.0000   1.0000   1.0000   1.0000   1.0000   1.0000   1.0000
     1.0000   1.0000   1.0000   1.0000   1.0000   1.0000   1.0000   1.0000
     1.0000   1.0000   1.0000   1.0000   1.0000   1.0000   1.0000   1.0000
     1.0000   1.0000   1.0000   1.0000   1.0000   1.0000   1.0000   1.0000
     1.0000   1.0000   1.0000   1.0000   1.0000   1.0000   1.0000   1.0000
     1.0000   1.0000   1.0000   1.0000   1.0000   1.0000   1.0000   1.0000
     1.0000   1.0000   1.0000   1.0000   1.0000   1.0000   1.0000   1.0000
     1.0000   1.0000   1.0000   1.0000   1.0000   1.0000   1.0000   1.0000
     1.0000   1.0000   1.0000   1.0000   1.0000   1.0000   1.0000   1.0000
     1.0000   1.0000   1.0000   1.0000   1.0000   1.0000   1.0000   1.0000
     1.0000   1.0000   1.0000   1.0000   1.0000   1.0000   1.0000   1.0000
     1.0000   1.0000   1.0000   1.0000   1.0000   1.0000   1.0000   1.0000
     1.0000   1.0000   1.0000   1.0000   1.0000   1.0000   1.0000   1.0000
     1.0000   1.0000   1.0000   1.0000   1.0000   1.0000   1.0000   1.0000
     1.0000   1.0000   1.0000   1.0000   1.0000   1.0000   1.0000   1.0000
     1.0000   1.0000   1.0000   1.0000   1.0000   1.0000   1.0000   1.0000
     1.0000   1.0000   1.0000   1.0000   1.0000   1.0000   1.0000   1.0000
     1.0000   1.0000   1.0000   1.0000   1.0000   1.0000   1.0000   1.0000
     1.0000   1.0000   1.0000   1.0000   1.0000   1.0000   1.0000   1.0000
     1.0000   1.0000   1.0000   1.0000   1.0000   1.0000   1.0000   1.0000
     1.0000   1.0000   1.0000   1.0000   1.0000   1.0000   1.0000   1.0000
     1.0000   1.0000   1.0000   1.0000   1.0000   1.0000   1.0000   1.0000
     1.0000   1.0000   1.0000   1.0000   1.0000   1.0000   1.0000   1.0000
     1.0000   1.0000   1.0000   1.0000   1.0000   1.0000   1.0000   1.0000
     1.0000   1.0000   1.0000   1.0000   1.0000   1.0000   1.0000   1.0000
     1.0000   1.0000   1.0000   1.0000   1.0000   1.0000   1.0000   1.0000
     1.0000   1.0000   1.0000   1.0000   1.0000   1.0000   1.0000   1.0023
     1.0434   1.0438   1.0824   1.0826   1.0791   1.0791   1.0688   0.4777
     0.4777   0.3666   0.3630   0.1847   0.1847   0.0896   0.0001   0.0000
     0.0000   0.0000   0.0000   0.0000   0.0000   0.0000   0.0000   0.0000
     0.0000   0.0000   0.0000   0.0000   0.0000   0.0000   0.0000   0.0000
     0.0000   0.0000   0.0000   0.0000   0.0000   0.0000   0.0000   0.0000
     0.0000   0.0000   0.0000   0.0000   0.0000   0.0000   0.0000   0.0000
     0.0000   0.0000   0.0000   0.0000   0.0000   0.0000   0.0000   0.0000
     0.0000   0.0000   0.0000   0.0000   0.0000   0.0000   0.0000   0.0000
     0.0000   0.0000   0.0000   0.0000   0.0000   0.0000   0.0000   0.0000
     0.0000   0.0000   0.0000   0.0000   0.0000   0.0000   0.0000   0.0000
     0.0000   0.0000   0.0000   0.0000   0.0000   0.0000   0.0000   0.0000
     0.0000   0.0000   0.0000   0.0000   0.0000   0.0000   0.0000   0.0000
     0.0000   0.0000   0.0000   0.0000   0.0000   0.0000   0.0000   0.0000
     0.0000   0.0000   0.0000   0.0000   0.0000   0.0000   0.0000   0.0000
     0.0000   0.0000   0.0000   0.0000   0.0000   0.0000   0.0000   0.0000
     0.0000   0.0000   0.0000   0.0000   0.0000   0.0000   0.0000   0.0000
     0.0000   0.0000   0.0000   0.0000   0.0000   0.0000   0.0000   0.0000

          k = 0.0000 0.3628 0.1846 (100618 PWs)   bands (ev):

  -123.9506-123.9503-123.9502-123.9499-123.9494-123.9491-123.9490-123.9487
  -123.9081-123.9078-123.9077-123.9074-123.9069-123.9066-123.9065-123.9061
  -123.8461-123.8458-123.8455-123.8452-123.8449-123.8445-123.8443-123.8440
  -123.8025-123.8022-123.8019-123.8015-123.8013-123.8010-123.8007-123.8002
  -123.7722-123.7720-123.7719-123.7717-123.7710-123.7708-123.7706-123.7705
  -123.6758-123.6756-123.6754-123.6750-123.6746-123.6743-123.6742-123.6737
  -123.6452-123.6451-123.6449-123.6447-123.6440-123.6438-123.6437-123.6435
  -123.5613-123.5612-123.5608-123.5608-123.5601-123.5600-123.5596-123.5595
   -78.1120 -78.1117 -78.1076 -78.1072 -78.1047 -78.1043 -78.1042 -78.1039
   -78.1030 -78.1027 -78.1026 -78.1022 -78.0982 -78.0978 -78.0978 -78.0974
   -78.0967 -78.0964 -78.0963 -78.0960 -78.0952 -78.0948 -78.0906 -78.0903
   -78.0713 -78.0709 -78.0669 -78.0665 -78.0622 -78.0617 -78.0617 -78.0613
   -78.0606 -78.0602 -78.0602 -78.0598 -78.0565 -78.0561 -78.0561 -78.0557
   -78.0551 -78.0547 -78.0547 -78.0545 -78.0543 -78.0541 -78.0501 -78.0496
   -78.0072 -78.0065 -78.0028 -78.0022 -77.9993 -77.9990 -77.9987 -77.9983
   -77.9981 -77.9978 -77.9975 -77.9972 -77.9971 -77.9967 -77.9965 -77.9961
   -77.9957 -77.9953 -77.9952 -77.9948 -77.9907 -77.9900 -77.9862 -77.9856
   -77.9623 -77.9617 -77.9579 -77.9573 -77.9568 -77.9564 -77.9561 -77.9556
   -77.9554 -77.9551 -77.9548 -77.9544 -77.9523 -77.9519 -77.9516 -77.9511
   -77.9509 -77.9506 -77.9502 -77.9498 -77.9457 -77.9451 -77.9413 -77.9406
   -77.9371 -77.9370 -77.9368 -77.9367 -77.9361 -77.9359 -77.9358 -77.9356
   -77.9278 -77.9276 -77.9234 -77.9233 -77.9196 -77.9194 -77.9192 -77.9190
   -77.9182 -77.9180 -77.9178 -77.9177 -77.9113 -77.9112 -77.9069 -77.9067
   -77.8372 -77.8371 -77.8368 -77.8365 -77.8359 -77.8357 -77.8355 -77.8351
   -77.8340 -77.8335 -77.8296 -77.8291 -77.8252 -77.8249 -77.8248 -77.8243
   -77.8238 -77.8234 -77.8234 -77.8228 -77.8174 -77.8169 -77.8129 -77.8124
   -77.8090 -77.8088 -77.8086 -77.8085 -77.8077 -77.8076 -77.8074 -77.8072
   -77.8005 -77.8004 -77.7961 -77.7960 -77.7953 -77.7951 -77.7950 -77.7948
   -77.7941 -77.7939 -77.7937 -77.7936 -77.7840 -77.7838 -77.7795 -77.7794
   -77.7291 -77.7289 -77.7285 -77.7285 -77.7278 -77.7276 -77.7272 -77.7272
   -77.7138 -77.7138 -77.7111 -77.7110 -77.7107 -77.7106 -77.7099 -77.7098
   -77.7095 -77.7094 -77.7094 -77.7093 -77.6973 -77.6973 -77.6929 -77.6928
    -7.1262  -6.6433  -6.2179  -6.0634  -5.9551  -5.9498  -5.6750  -5.6540
    -5.6181  -5.5751  -5.5547  -5.5541  -5.5525  -5.5476  -5.5313  -5.5233
    -5.5081  -5.5079  -5.5033  -5.4997  -5.4846  -5.4746  -5.4643  -5.4609
    -5.4548  -5.4235  -5.4220  -5.4144  -5.4047  -5.3972  -5.3930  -5.3827
    -5.3797  -5.3780  -5.3779  -5.3697  -5.3694  -5.3656  -5.3624  -5.3603
    -5.3391  -5.3302  -5.2996  -5.2983  -5.2949  -5.2934  -5.2898  -5.2796
    -5.2730  -5.2573  -5.2555  -5.2544  -5.2370  -5.2358  -5.2333  -5.2299
    -5.2167  -5.2145  -5.2131  -5.2105  -5.1932  -5.1856  -5.1837  -5.1771
    -5.1727  -5.1719  -5.1708  -5.1677  -5.1629  -5.1519  -5.1282  -5.1244
    -5.1180  -5.1176  -5.1158  -5.1112  -5.1049  -5.1023  -5.0977  -5.0874
    -5.0834  -5.0826  -5.0735  -5.0674  -5.0659  -5.0641  -5.0641  -5.0594
    -5.0531  -5.0501  -5.0499  -5.0444  -5.0317  -5.0251  -5.0183  -5.0181
    -5.0089  -4.9858  -4.9839  -4.9836  -4.9815  -4.9745  -4.9743  -4.9654
    -4.9579  -4.9556  -4.9555  -4.9552  -4.9541  -4.9345  -4.9325  -4.9304
    -4.9298  -4.9179  -4.9132  -4.9124  -4.9080  -4.9052  -4.9032  -4.9002
    -4.8834  -4.8829  -4.8820  -4.8797  -4.8780  -4.8494  -4.8494  -4.8487
    -4.8420  -4.8399  -4.8349  -4.8335  -4.8196  -4.8063  -4.8024  -4.8009
    -4.8005  -4.7988  -4.7968  -4.7911  -4.7849  -4.7810  -4.7714  -4.7639
    -4.7628  -4.7614  -4.7564  -4.7560  -4.7495  -4.7491  -4.7473  -4.7461
    -4.7366  -4.7317  -4.7230  -4.7193  -4.7172  -4.7112  -4.7089  -4.6959
    -4.6950  -4.6927  -4.6860  -4.6786  -4.6730  -4.6712  -4.6637  -4.6579
    -4.6551  -4.6542  -4.6446  -4.6421  -4.6386  -4.6376  -4.6326  -4.6237
    -4.6216  -4.6209  -4.6183  -4.6124  -4.6111  -4.6055  -4.6048  -4.6013
    -4.5903  -4.5896  -4.5894  -4.5767  -4.5743  -4.5731  -4.5727  -4.5713
    -4.5664  -4.5638  -4.5611  -4.5502  -4.5448  -4.5436  -4.5428  -4.5385
    -4.5331  -4.5310  -4.5270  -4.5253  -4.5229  -4.5196  -4.5182  -4.5126
    -4.5009  -4.5009  -4.5004  -4.5000  -4.4950  -4.4887  -4.4854  -4.4807
    -4.4785  -4.4771  -4.4687  -4.4659  -4.4654  -4.4628  -4.4594  -4.4547
    -4.4511  -4.4410  -4.4408  -4.4355  -4.4339  -4.4263  -4.4158  -4.4155
    -4.4127  -4.4120  -4.4118  -4.4109  -4.4014  -4.4008  -4.4007  -4.3943
    -4.3886  -4.3870  -4.3826  -4.3819  -4.3797  -4.3694  -4.3691  -4.3681
    -4.3664  -4.3633  -4.3627  -4.3592  -4.3516  -4.3513  -4.3471  -4.3461
    -4.3362  -4.3361  -4.3336  -4.3333  -4.3309  -4.3275  -4.3240  -4.3234
    -4.3224  -4.3115  -4.3100  -4.3088  -4.3069  -4.3057  -4.3045  -4.3006
    -4.2979  -4.2942  -4.2921  -4.2880  -4.2831  -4.2821  -4.2720  -4.2699
    -4.2690  -4.2611  -4.2595  -4.2570  -4.2535  -4.2508  -4.2504  -4.2476
    -4.2473  -4.2455  -4.2406  -4.2393  -4.2317  -4.2301  -4.2296  -4.2259
    -4.2255  -4.2240  -4.2194  -4.2189  -4.2093  -4.2091  -4.2080  -4.2077
    -4.2020  -4.1922  -4.1891  -4.1886  -4.1849  -4.1824  -4.1798  -4.1784
    -4.1718  -4.1627  -4.1558  -4.1485  -4.1429  -4.1386  -4.1285  -4.1255
    -4.1221  -4.1131  -4.1005  -4.0952  -4.0827  -4.0324  -4.0185  -3.8765
    -3.8204  -3.8030  -3.6573  -3.5702  -3.4875  -3.2087  -2.9371  -2.8827
    -2.7335  -2.4426  -2.4405  -2.2504  -2.1791  -1.8722  -1.7907  -1.6476
    -1.4935  -1.4318  -1.3959  -1.1803  -0.9662  -0.8792  -0.7476  -0.7003
    -0.4922  -0.4557  -0.3694  -0.3526  -0.3375  -0.1461  -0.1007   0.3541
     0.4153   0.4697   0.4706   0.5614   0.7060   0.7078   0.7095   0.8933
     1.0555   1.3212   1.3749   1.3960   1.5110   1.5458   1.5726   1.6398
     1.6459   1.7873   1.8426   2.1742   2.3494   2.4428   2.5328   2.5970
     2.6760   2.8366   2.8769   2.9836   3.2452   3.3340   3.5061   3.5626
     3.6275   3.6742   3.7713   3.8854   3.8908   3.9777   4.1508   4.2006
     4.2695   4.5348   4.5993   4.6290   4.6944   4.7457   4.7986   4.9047
     5.0053   5.0301   5.0689   5.0753   5.2774   5.3143   5.3412   5.3805
     5.4696   5.5272   5.5486   5.7521   5.9055   5.9179   5.9387   6.0045
     6.0353   6.0955   6.1130   6.1744   6.2128   6.3184   6.3699   6.3809
     6.4192   6.5098   6.5352   6.6992   6.7908   6.8009   6.8172   6.8501
     6.9010   6.9708   6.9793   7.0924   7.1091   7.2223   7.2492   7.2781
     7.3674   7.3886   7.4382   7.4450   7.5241   7.5257   7.6124   7.7082
     7.8148   7.8363   7.9071   7.9755   8.0238   8.2182   8.2454   8.2504
     8.2515   8.2711   8.2787   8.3675   8.3870   8.4858   8.5571   8.6077
     8.6634   8.6653   8.6796   8.6975   8.7318   8.9456   8.9519   9.0119
     9.0325   9.0849   9.1053   9.1317   9.1913   9.2019   9.2097   9.2729
     9.2767   9.2901   9.3856   9.4208   9.5542   9.6107   9.6926   9.7206
     9.7754   9.8341   9.8454   9.8874   9.9447  10.0516  10.0691  10.1274
    10.1342  10.1926  10.2265  10.2318  10.2921  10.3027  10.3802  10.4262

     occupation numbers 
     1.0000   1.0000   1.0000   1.0000   1.0000   1.0000   1.0000   1.0000
     1.0000   1.0000   1.0000   1.0000   1.0000   1.0000   1.0000   1.0000
     1.0000   1.0000   1.0000   1.0000   1.0000   1.0000   1.0000   1.0000
     1.0000   1.0000   1.0000   1.0000   1.0000   1.0000   1.0000   1.0000
     1.0000   1.0000   1.0000   1.0000   1.0000   1.0000   1.0000   1.0000
     1.0000   1.0000   1.0000   1.0000   1.0000   1.0000   1.0000   1.0000
     1.0000   1.0000   1.0000   1.0000   1.0000   1.0000   1.0000   1.0000
     1.0000   1.0000   1.0000   1.0000   1.0000   1.0000   1.0000   1.0000
     1.0000   1.0000   1.0000   1.0000   1.0000   1.0000   1.0000   1.0000
     1.0000   1.0000   1.0000   1.0000   1.0000   1.0000   1.0000   1.0000
     1.0000   1.0000   1.0000   1.0000   1.0000   1.0000   1.0000   1.0000
     1.0000   1.0000   1.0000   1.0000   1.0000   1.0000   1.0000   1.0000
     1.0000   1.0000   1.0000   1.0000   1.0000   1.0000   1.0000   1.0000
     1.0000   1.0000   1.0000   1.0000   1.0000   1.0000   1.0000   1.0000
     1.0000   1.0000   1.0000   1.0000   1.0000   1.0000   1.0000   1.0000
     1.0000   1.0000   1.0000   1.0000   1.0000   1.0000   1.0000   1.0000
     1.0000   1.0000   1.0000   1.0000   1.0000   1.0000   1.0000   1.0000
     1.0000   1.0000   1.0000   1.0000   1.0000   1.0000   1.0000   1.0000
     1.0000   1.0000   1.0000   1.0000   1.0000   1.0000   1.0000   1.0000
     1.0000   1.0000   1.0000   1.0000   1.0000   1.0000   1.0000   1.0000
     1.0000   1.0000   1.0000   1.0000   1.0000   1.0000   1.0000   1.0000
     1.0000   1.0000   1.0000   1.0000   1.0000   1.0000   1.0000   1.0000
     1.0000   1.0000   1.0000   1.0000   1.0000   1.0000   1.0000   1.0000
     1.0000   1.0000   1.0000   1.0000   1.0000   1.0000   1.0000   1.0000
     1.0000   1.0000   1.0000   1.0000   1.0000   1.0000   1.0000   1.0000
     1.0000   1.0000   1.0000   1.0000   1.0000   1.0000   1.0000   1.0000
     1.0000   1.0000   1.0000   1.0000   1.0000   1.0000   1.0000   1.0000
     1.0000   1.0000   1.0000   1.0000   1.0000   1.0000   1.0000   1.0000
     1.0000   1.0000   1.0000   1.0000   1.0000   1.0000   1.0000   1.0000
     1.0000   1.0000   1.0000   1.0000   1.0000   1.0000   1.0000   1.0000
     1.0000   1.0000   1.0000   1.0000   1.0000   1.0000   1.0000   1.0000
     1.0000   1.0000   1.0000   1.0000   1.0000   1.0000   1.0000   1.0000
     1.0000   1.0000   1.0000   1.0000   1.0000   1.0000   1.0000   1.0000
     1.0000   1.0000   1.0000   1.0000   1.0000   1.0000   1.0000   1.0000
     1.0000   1.0000   1.0000   1.0000   1.0000   1.0000   1.0000   1.0000
     1.0000   1.0000   1.0000   1.0000   1.0000   1.0000   1.0000   1.0000
     1.0000   1.0000   1.0000   1.0000   1.0000   1.0000   1.0000   1.0000
     1.0000   1.0000   1.0000   1.0000   1.0000   1.0000   1.0000   1.0000
     1.0000   1.0000   1.0000   1.0000   1.0000   1.0000   1.0000   1.0000
     1.0000   1.0000   1.0000   1.0000   1.0000   1.0000   1.0000   1.0000
     1.0000   1.0000   1.0000   1.0000   1.0000   1.0000   1.0000   1.0000
     1.0000   1.0000   1.0000   1.0000   1.0000   1.0000   1.0000   1.0000
     1.0000   1.0000   1.0000   1.0000   1.0000   1.0000   1.0000   1.0000
     1.0000   1.0000   1.0000   1.0000   1.0000   1.0000   1.0000   1.0000
     1.0000   1.0000   1.0000   1.0000   1.0000   1.0000   1.0000   1.0000
     1.0000   1.0000   1.0000   1.0000   1.0000   1.0000   1.0000   1.0000
     1.0000   1.0000   1.0000   1.0000   1.0000   1.0000   1.0000   1.0000
     1.0000   1.0000   1.0000   1.0000   1.0000   1.0000   1.0000   1.0000
     1.0000   1.0000   1.0000   1.0000   1.0000   1.0000   1.0000   1.0000
     1.0000   1.0000   1.0000   1.0000   1.0000   1.0000   1.0000   1.0000
     1.0000   1.0000   1.0000   1.0000   1.0000   1.0000   1.0000   1.0000
     1.0000   1.0000   1.0000   1.0000   1.0000   1.0000   1.0000   1.0000
     1.0000   1.0000   1.0000   1.0000   1.0000   1.0000   1.0000   1.0000
     1.0000   1.0000   1.0000   1.0000   1.0000   1.0000   1.0000   1.0000
     1.0000   1.0000   1.0000   1.0000   1.0000   1.0000   1.0000   1.0000
     1.0000   1.0000   1.0000   1.0000   1.0000   1.0000   1.0000   1.0000
     1.0000   1.0000   1.0000   1.0000   1.0000   1.0000   1.0000   1.0000
     1.0000   1.0000   1.0000   1.0000   1.0000   1.0000   1.0000   1.0000
     1.0000   1.0000   1.0000   1.0000   1.0000   1.0000   1.0000   1.0000
     1.0000   1.0000   1.0000   1.0000   1.0000   1.0000   1.0000   1.0000
     1.0000   1.0000   1.0000   1.0000   1.0000   1.0000   1.0000   1.0000
     1.0000   1.0000   1.0000   1.0000   1.0000   1.0000   1.0000   1.0000
     1.0000   1.0000   1.0000   1.0000   1.0000   1.0000   1.0000   1.0000
     1.0000   1.0000   1.0000   1.0000   1.0000   1.0000   1.0000   1.0000
     1.0000   1.0000   1.0000   1.0000   1.0000   1.0000   1.0000   1.0000
     1.0000   1.0000   1.0000   1.0000   1.0000   1.0000   1.0000   1.0000
     1.0000   1.0000   1.0000   1.0000   1.0000   1.0000   1.0000   1.0000
     1.0000   1.0000   1.0000   1.0000   1.0000   1.0000   1.0000   1.0000
     1.0000   1.0000   1.0000   1.0000   1.0000   1.0000   1.0000   1.0000
     1.0000   1.0000   1.0000   1.0000   1.0000   1.0000   1.0000   1.0000
     1.0000   1.0000   1.0000   1.0000   1.0000   1.0000   1.0000   1.0000
     1.0000   1.0000   1.0000   1.0000   1.0000   1.0000   1.0000   1.0000
     1.0000   1.0000   1.0000   1.0000   1.0000   1.0000   1.0000   1.0000
     1.0000   1.0000   1.0000   1.0000   1.0000   1.0000   1.0000   1.0000
     1.0000   1.0000   1.0000   1.0000   1.0000   1.0000   1.0000   1.0000
     1.0000   1.0000   1.0000   1.0000   1.0000   1.0000   1.0000   1.0000
     1.0000   1.0000   1.0000   1.0000   1.0000   1.0000   1.0000   1.0000
     1.0000   1.0000   1.0000   1.0000   1.0000   1.0000   1.0000   1.0000
     1.0000   1.0000   1.0000   1.0000   1.0000   1.0000   1.0000   1.0001
     1.0001   1.0014   1.0034   1.0773   1.0078   0.8337   0.5968   0.4232
     0.2435   0.0495   0.0299   0.0065   0.0000   0.0000   0.0000   0.0000
     0.0000   0.0000   0.0000   0.0000   0.0000   0.0000   0.0000   0.0000
     0.0000   0.0000   0.0000   0.0000   0.0000   0.0000   0.0000   0.0000
     0.0000   0.0000   0.0000   0.0000   0.0000   0.0000   0.0000   0.0000
     0.0000   0.0000   0.0000   0.0000   0.0000   0.0000   0.0000   0.0000
     0.0000   0.0000   0.0000   0.0000   0.0000   0.0000   0.0000   0.0000
     0.0000   0.0000   0.0000   0.0000   0.0000   0.0000   0.0000   0.0000
     0.0000   0.0000   0.0000   0.0000   0.0000   0.0000   0.0000   0.0000
     0.0000   0.0000   0.0000   0.0000   0.0000   0.0000   0.0000   0.0000
     0.0000   0.0000   0.0000   0.0000   0.0000   0.0000   0.0000   0.0000
     0.0000   0.0000   0.0000   0.0000   0.0000   0.0000   0.0000   0.0000
     0.0000   0.0000   0.0000   0.0000   0.0000   0.0000   0.0000   0.0000
     0.0000   0.0000   0.0000   0.0000   0.0000   0.0000   0.0000   0.0000
     0.0000   0.0000   0.0000   0.0000   0.0000   0.0000   0.0000   0.0000
     0.0000   0.0000   0.0000   0.0000   0.0000   0.0000   0.0000   0.0000
     0.0000   0.0000   0.0000   0.0000   0.0000   0.0000   0.0000   0.0000

          k = 0.3333 0.0811 0.7384 (100560 PWs)   bands (ev):

  -123.9507-123.9504-123.9498-123.9498-123.9495-123.9495-123.9489-123.9486
  -123.9083-123.9078-123.9074-123.9074-123.9069-123.9069-123.9065-123.9060
  -123.8462-123.8456-123.8453-123.8453-123.8447-123.8447-123.8444-123.8438
  -123.8027-123.8020-123.8018-123.8018-123.8011-123.8011-123.8009-123.8001
  -123.7723-123.7721-123.7714-123.7714-123.7713-123.7712-123.7705-123.7704
  -123.6759-123.6757-123.6750-123.6750-123.6748-123.6745-123.6741-123.6736
  -123.6453-123.6452-123.6444-123.6444-123.6443-123.6443-123.6436-123.6434
  -123.5614-123.5613-123.5605-123.5604-123.5604-123.5604-123.5595-123.5594
   -78.1137 -78.1134 -78.1048 -78.1045 -78.1036 -78.1036 -78.1033 -78.1033
   -78.1024 -78.1021 -78.1014 -78.1014 -78.1011 -78.1011 -78.0983 -78.0980
   -78.0972 -78.0972 -78.0969 -78.0968 -78.0962 -78.0959 -78.0890 -78.0886
   -78.0729 -78.0725 -78.0623 -78.0619 -78.0612 -78.0612 -78.0608 -78.0608
   -78.0607 -78.0607 -78.0603 -78.0603 -78.0600 -78.0596 -78.0566 -78.0562
   -78.0556 -78.0556 -78.0552 -78.0551 -78.0546 -78.0542 -78.0484 -78.0480
   -78.0088 -78.0081 -77.9994 -77.9988 -77.9985 -77.9985 -77.9979 -77.9979
   -77.9977 -77.9972 -77.9970 -77.9968 -77.9968 -77.9966 -77.9962 -77.9962
   -77.9961 -77.9961 -77.9956 -77.9955 -77.9952 -77.9947 -77.9846 -77.9840
   -77.9639 -77.9633 -77.9569 -77.9562 -77.9559 -77.9559 -77.9553 -77.9552
   -77.9550 -77.9542 -77.9524 -77.9520 -77.9520 -77.9517 -77.9513 -77.9513
   -77.9513 -77.9513 -77.9506 -77.9506 -77.9504 -77.9496 -77.9396 -77.9390
   -77.9372 -77.9371 -77.9364 -77.9364 -77.9363 -77.9363 -77.9357 -77.9355
   -77.9294 -77.9292 -77.9197 -77.9195 -77.9187 -77.9187 -77.9185 -77.9185
   -77.9177 -77.9175 -77.9174 -77.9174 -77.9172 -77.9172 -77.9053 -77.9051
   -77.8373 -77.8372 -77.8364 -77.8363 -77.8362 -77.8360 -77.8356 -77.8354
   -77.8352 -77.8350 -77.8253 -77.8250 -77.8243 -77.8243 -77.8240 -77.8237
   -77.8235 -77.8235 -77.8232 -77.8230 -77.8230 -77.8227 -77.8112 -77.8108
   -77.8091 -77.8090 -77.8082 -77.8082 -77.8080 -77.8080 -77.8073 -77.8071
   -77.8021 -77.8020 -77.7954 -77.7953 -77.7945 -77.7945 -77.7944 -77.7943
   -77.7936 -77.7934 -77.7901 -77.7901 -77.7899 -77.7899 -77.7779 -77.7777
   -77.7292 -77.7290 -77.7282 -77.7281 -77.7281 -77.7280 -77.7271 -77.7271
   -77.7154 -77.7154 -77.7112 -77.7111 -77.7103 -77.7102 -77.7102 -77.7102
   -77.7093 -77.7092 -77.7034 -77.7034 -77.7033 -77.7033 -77.6912 -77.6912
    -7.1541  -6.7582  -6.1062  -6.0073  -5.8634  -5.8577  -5.8299  -5.7417
    -5.7410  -5.6209  -5.6125  -5.5970  -5.5891  -5.5889  -5.5870  -5.5251
    -5.5250  -5.5155  -5.5035  -5.5031  -5.4605  -5.4604  -5.4498  -5.4461
    -5.4416  -5.4232  -5.4082  -5.3967  -5.3905  -5.3818  -5.3610  -5.3537
    -5.3511  -5.3446  -5.3446  -5.3385  -5.3328  -5.3283  -5.3068  -5.3057
    -5.3055  -5.2998  -5.2834  -5.2811  -5.2719  -5.2701  -5.2698  -5.2661
    -5.2645  -5.2589  -5.2517  -5.2515  -5.2312  -5.2212  -5.2210  -5.2155
    -5.2153  -5.2128  -5.2128  -5.2046  -5.1922  -5.1847  -5.1836  -5.1771
    -5.1770  -5.1542  -5.1539  -5.1528  -5.1497  -5.1442  -5.1328  -5.1313
    -5.1143  -5.1141  -5.1086  -5.1079  -5.0980  -5.0863  -5.0863  -5.0859
    -5.0849  -5.0808  -5.0758  -5.0749  -5.0740  -5.0652  -5.0613  -5.0556
    -5.0550  -5.0442  -5.0363  -5.0251  -5.0247  -5.0196  -5.0146  -5.0004
    -4.9926  -4.9885  -4.9819  -4.9797  -4.9771  -4.9666  -4.9611  -4.9519
    -4.9518  -4.9487  -4.9480  -4.9452  -4.9441  -4.9439  -4.9288  -4.9225
    -4.9167  -4.9133  -4.9106  -4.9094  -4.9068  -4.9048  -4.9043  -4.8881
    -4.8788  -4.8693  -4.8578  -4.8467  -4.8451  -4.8398  -4.8395  -4.8207
    -4.8202  -4.8198  -4.8069  -4.8036  -4.8013  -4.7981  -4.7978  -4.7943
    -4.7814  -4.7740  -4.7740  -4.7735  -4.7733  -4.7600  -4.7543  -4.7505
    -4.7501  -4.7476  -4.7475  -4.7473  -4.7471  -4.7448  -4.7362  -4.7298
    -4.7250  -4.7230  -4.7218  -4.7141  -4.7140  -4.7124  -4.7076  -4.6919
    -4.6913  -4.6913  -4.6848  -4.6845  -4.6769  -4.6748  -4.6740  -4.6721
    -4.6677  -4.6670  -4.6631  -4.6628  -4.6596  -4.6578  -4.6569  -4.6542
    -4.6526  -4.6507  -4.6376  -4.6321  -4.6260  -4.6254  -4.6153  -4.6152
    -4.6037  -4.5953  -4.5907  -4.5800  -4.5798  -4.5766  -4.5739  -4.5707
    -4.5646  -4.5605  -4.5589  -4.5447  -4.5419  -4.5390  -4.5371  -4.5331
    -4.5328  -4.5314  -4.5311  -4.5300  -4.5205  -4.5201  -4.5134  -4.5118
    -4.5116  -4.5110  -4.5094  -4.5047  -4.5030  -4.4972  -4.4968  -4.4960
    -4.4896  -4.4850  -4.4831  -4.4800  -4.4773  -4.4762  -4.4733  -4.4695
    -4.4620  -4.4618  -4.4607  -4.4560  -4.4470  -4.4426  -4.4424  -4.4413
    -4.4343  -4.4338  -4.4280  -4.4257  -4.4254  -4.4227  -4.4181  -4.4146
    -4.4145  -4.4138  -4.4086  -4.4070  -4.4065  -4.4058  -4.4042  -4.4040
    -4.3872  -4.3804  -4.3800  -4.3799  -4.3677  -4.3675  -4.3656  -4.3588
    -4.3565  -4.3563  -4.3546  -4.3516  -4.3488  -4.3444  -4.3423  -4.3390
    -4.3178  -4.3176  -4.3162  -4.3159  -4.3154  -4.3079  -4.3045  -4.2993
    -4.2983  -4.2968  -4.2954  -4.2937  -4.2934  -4.2927  -4.2909  -4.2811
    -4.2811  -4.2781  -4.2686  -4.2611  -4.2599  -4.2598  -4.2587  -4.2467
    -4.2437  -4.2411  -4.2379  -4.2364  -4.2338  -4.2298  -4.2291  -4.2262
    -4.2216  -4.2183  -4.2169  -4.2169  -4.2167  -4.2148  -4.2143  -4.2027
    -4.2025  -4.1981  -4.1971  -4.1844  -4.1813  -4.1800  -4.1775  -4.1649
    -4.1648  -4.1441  -4.1439  -4.1259  -4.1247  -4.1130  -4.1084  -4.0842
    -4.0837  -4.0531  -4.0422  -4.0355  -4.0354  -3.9617  -3.9614  -3.9311
    -3.8931  -3.8616  -3.7173  -3.5263  -3.5072  -3.2624  -3.1440  -2.9090
    -2.8060  -2.7316  -2.4818  -2.4708  -2.0431  -1.8774  -1.7865  -1.7522
    -1.6683  -1.2891  -1.0939  -0.9718  -0.8755  -0.8754  -0.6742  -0.6416
    -0.4283  -0.2917  -0.1630  -0.1045  -0.1044   0.1858   0.1862   0.2282
     0.4347   0.5345   0.6559   0.6947   0.7178   0.7183   0.7730   0.9335
     0.9431   0.9437   1.0988   1.3565   1.3618   1.4291   1.5730   1.6730
     1.6732   1.8277   2.0609   2.1511   2.2429   2.2434   2.2546   2.7142
     2.8308   2.8596   2.9443   3.0594   3.1296   3.1306   3.2416   3.2698
     3.5368   3.5392   3.6029   3.7333   3.8441   3.8892   3.9221   3.9501
     4.1011   4.2324   4.2649   4.2670   4.3445   4.6692   4.6715   4.8333
     4.8342   4.8845   4.9494   5.0287   5.2240   5.3545   5.3590   5.3597
     5.6001   5.6015   5.6842   5.7005   5.9154   6.1720   6.1844   6.2256
     6.3127   6.3619   6.3624   6.3656   6.4093   6.4568   6.4930   6.5745
     6.5755   6.5967   6.6228   6.6884   6.7551   6.7705   6.8391   6.9837
     7.0745   7.0771   7.1130   7.1914   7.2219   7.3986   7.4695   7.5266
     7.6149   7.6152   7.6530   7.6604   7.6879   7.7981   7.8185   7.8527
     7.8710   7.9425   7.9708   8.0676   8.0868   8.1424   8.1953   8.3065
     8.3633   8.3867   8.4989   8.5230   8.5433   8.5817   8.5832   8.5880
     8.6981   8.7003   8.7253   8.7301   8.7449   8.8682   8.9309   8.9702
     8.9708   9.1052   9.1338   9.1369   9.2122   9.3200   9.3213   9.3495
     9.3575   9.3854   9.4598   9.5049   9.5108   9.5233   9.5494   9.5513
     9.6526   9.6844   9.7220   9.7524   9.7854   9.8473   9.8725   9.8816
     9.9034   9.9890  10.0709  10.0727  10.1613  10.1643  10.1724  10.1726

     occupation numbers 
     1.0000   1.0000   1.0000   1.0000   1.0000   1.0000   1.0000   1.0000
     1.0000   1.0000   1.0000   1.0000   1.0000   1.0000   1.0000   1.0000
     1.0000   1.0000   1.0000   1.0000   1.0000   1.0000   1.0000   1.0000
     1.0000   1.0000   1.0000   1.0000   1.0000   1.0000   1.0000   1.0000
     1.0000   1.0000   1.0000   1.0000   1.0000   1.0000   1.0000   1.0000
     1.0000   1.0000   1.0000   1.0000   1.0000   1.0000   1.0000   1.0000
     1.0000   1.0000   1.0000   1.0000   1.0000   1.0000   1.0000   1.0000
     1.0000   1.0000   1.0000   1.0000   1.0000   1.0000   1.0000   1.0000
     1.0000   1.0000   1.0000   1.0000   1.0000   1.0000   1.0000   1.0000
     1.0000   1.0000   1.0000   1.0000   1.0000   1.0000   1.0000   1.0000
     1.0000   1.0000   1.0000   1.0000   1.0000   1.0000   1.0000   1.0000
     1.0000   1.0000   1.0000   1.0000   1.0000   1.0000   1.0000   1.0000
     1.0000   1.0000   1.0000   1.0000   1.0000   1.0000   1.0000   1.0000
     1.0000   1.0000   1.0000   1.0000   1.0000   1.0000   1.0000   1.0000
     1.0000   1.0000   1.0000   1.0000   1.0000   1.0000   1.0000   1.0000
     1.0000   1.0000   1.0000   1.0000   1.0000   1.0000   1.0000   1.0000
     1.0000   1.0000   1.0000   1.0000   1.0000   1.0000   1.0000   1.0000
     1.0000   1.0000   1.0000   1.0000   1.0000   1.0000   1.0000   1.0000
     1.0000   1.0000   1.0000   1.0000   1.0000   1.0000   1.0000   1.0000
     1.0000   1.0000   1.0000   1.0000   1.0000   1.0000   1.0000   1.0000
     1.0000   1.0000   1.0000   1.0000   1.0000   1.0000   1.0000   1.0000
     1.0000   1.0000   1.0000   1.0000   1.0000   1.0000   1.0000   1.0000
     1.0000   1.0000   1.0000   1.0000   1.0000   1.0000   1.0000   1.0000
     1.0000   1.0000   1.0000   1.0000   1.0000   1.0000   1.0000   1.0000
     1.0000   1.0000   1.0000   1.0000   1.0000   1.0000   1.0000   1.0000
     1.0000   1.0000   1.0000   1.0000   1.0000   1.0000   1.0000   1.0000
     1.0000   1.0000   1.0000   1.0000   1.0000   1.0000   1.0000   1.0000
     1.0000   1.0000   1.0000   1.0000   1.0000   1.0000   1.0000   1.0000
     1.0000   1.0000   1.0000   1.0000   1.0000   1.0000   1.0000   1.0000
     1.0000   1.0000   1.0000   1.0000   1.0000   1.0000   1.0000   1.0000
     1.0000   1.0000   1.0000   1.0000   1.0000   1.0000   1.0000   1.0000
     1.0000   1.0000   1.0000   1.0000   1.0000   1.0000   1.0000   1.0000
     1.0000   1.0000   1.0000   1.0000   1.0000   1.0000   1.0000   1.0000
     1.0000   1.0000   1.0000   1.0000   1.0000   1.0000   1.0000   1.0000
     1.0000   1.0000   1.0000   1.0000   1.0000   1.0000   1.0000   1.0000
     1.0000   1.0000   1.0000   1.0000   1.0000   1.0000   1.0000   1.0000
     1.0000   1.0000   1.0000   1.0000   1.0000   1.0000   1.0000   1.0000
     1.0000   1.0000   1.0000   1.0000   1.0000   1.0000   1.0000   1.0000
     1.0000   1.0000   1.0000   1.0000   1.0000   1.0000   1.0000   1.0000
     1.0000   1.0000   1.0000   1.0000   1.0000   1.0000   1.0000   1.0000
     1.0000   1.0000   1.0000   1.0000   1.0000   1.0000   1.0000   1.0000
     1.0000   1.0000   1.0000   1.0000   1.0000   1.0000   1.0000   1.0000
     1.0000   1.0000   1.0000   1.0000   1.0000   1.0000   1.0000   1.0000
     1.0000   1.0000   1.0000   1.0000   1.0000   1.0000   1.0000   1.0000
     1.0000   1.0000   1.0000   1.0000   1.0000   1.0000   1.0000   1.0000
     1.0000   1.0000   1.0000   1.0000   1.0000   1.0000   1.0000   1.0000
     1.0000   1.0000   1.0000   1.0000   1.0000   1.0000   1.0000   1.0000
     1.0000   1.0000   1.0000   1.0000   1.0000   1.0000   1.0000   1.0000
     1.0000   1.0000   1.0000   1.0000   1.0000   1.0000   1.0000   1.0000
     1.0000   1.0000   1.0000   1.0000   1.0000   1.0000   1.0000   1.0000
     1.0000   1.0000   1.0000   1.0000   1.0000   1.0000   1.0000   1.0000
     1.0000   1.0000   1.0000   1.0000   1.0000   1.0000   1.0000   1.0000
     1.0000   1.0000   1.0000   1.0000   1.0000   1.0000   1.0000   1.0000
     1.0000   1.0000   1.0000   1.0000   1.0000   1.0000   1.0000   1.0000
     1.0000   1.0000   1.0000   1.0000   1.0000   1.0000   1.0000   1.0000
     1.0000   1.0000   1.0000   1.0000   1.0000   1.0000   1.0000   1.0000
     1.0000   1.0000   1.0000   1.0000   1.0000   1.0000   1.0000   1.0000
     1.0000   1.0000   1.0000   1.0000   1.0000   1.0000   1.0000   1.0000
     1.0000   1.0000   1.0000   1.0000   1.0000   1.0000   1.0000   1.0000
     1.0000   1.0000   1.0000   1.0000   1.0000   1.0000   1.0000   1.0000
     1.0000   1.0000   1.0000   1.0000   1.0000   1.0000   1.0000   1.0000
     1.0000   1.0000   1.0000   1.0000   1.0000   1.0000   1.0000   1.0000
     1.0000   1.0000   1.0000   1.0000   1.0000   1.0000   1.0000   1.0000
     1.0000   1.0000   1.0000   1.0000   1.0000   1.0000   1.0000   1.0000
     1.0000   1.0000   1.0000   1.0000   1.0000   1.0000   1.0000   1.0000
     1.0000   1.0000   1.0000   1.0000   1.0000   1.0000   1.0000   1.0000
     1.0000   1.0000   1.0000   1.0000   1.0000   1.0000   1.0000   1.0000
     1.0000   1.0000   1.0000   1.0000   1.0000   1.0000   1.0000   1.0000
     1.0000   1.0000   1.0000   1.0000   1.0000   1.0000   1.0000   1.0000
     1.0000   1.0000   1.0000   1.0000   1.0000   1.0000   1.0000   1.0000
     1.0000   1.0000   1.0000   1.0000   1.0000   1.0000   1.0000   1.0000
     1.0000   1.0000   1.0000   1.0000   1.0000   1.0000   1.0000   1.0000
     1.0000   1.0000   1.0000   1.0000   1.0000   1.0000   1.0000   1.0000
     1.0000   1.0000   1.0000   1.0000   1.0000   1.0000   1.0000   1.0000
     1.0000   1.0000   1.0000   1.0000   1.0000   1.0000   1.0000   1.0000
     1.0000   1.0000   1.0000   1.0000   1.0000   1.0000   1.0000   1.0000
     1.0000   1.0000   1.0000   1.0000   1.0000   1.0000   1.0000   1.0000
     1.0000   1.0000   1.0000   1.0000   1.0000   1.0000   1.0000   1.0000
     1.0000   1.0000   1.0000   1.0000   1.0000   1.0000   1.0000   1.0002
     1.0002   1.0027   1.0410   1.0711   1.0816   1.0816   1.0792   0.1766
     0.0530   0.0373   0.0118   0.0018   0.0005   0.0005   0.0000   0.0000
     0.0000   0.0000   0.0000   0.0000   0.0000   0.0000   0.0000   0.0000
     0.0000   0.0000   0.0000   0.0000   0.0000   0.0000   0.0000   0.0000
     0.0000   0.0000   0.0000   0.0000   0.0000   0.0000   0.0000   0.0000
     0.0000   0.0000   0.0000   0.0000   0.0000   0.0000   0.0000   0.0000
     0.0000   0.0000   0.0000   0.0000   0.0000   0.0000   0.0000   0.0000
     0.0000   0.0000   0.0000   0.0000   0.0000   0.0000   0.0000   0.0000
     0.0000   0.0000   0.0000   0.0000   0.0000   0.0000   0.0000   0.0000
     0.0000   0.0000   0.0000   0.0000   0.0000   0.0000   0.0000   0.0000
     0.0000   0.0000   0.0000   0.0000   0.0000   0.0000   0.0000   0.0000
     0.0000   0.0000   0.0000   0.0000   0.0000   0.0000   0.0000   0.0000
     0.0000   0.0000   0.0000   0.0000   0.0000   0.0000   0.0000   0.0000
     0.0000   0.0000   0.0000   0.0000   0.0000   0.0000   0.0000   0.0000
     0.0000   0.0000   0.0000   0.0000   0.0000   0.0000   0.0000   0.0000
     0.0000   0.0000   0.0000   0.0000   0.0000   0.0000   0.0000   0.0000
     0.0000   0.0000   0.0000   0.0000   0.0000   0.0000   0.0000   0.0000

          k = 0.3333 0.4439 0.9230 (100518 PWs)   bands (ev):

  -123.9506-123.9503-123.9502-123.9499-123.9494-123.9491-123.9490-123.9487
  -123.9081-123.9078-123.9077-123.9074-123.9069-123.9066-123.9065-123.9061
  -123.8461-123.8458-123.8455-123.8452-123.8449-123.8445-123.8443-123.8439
  -123.8025-123.8022-123.8019-123.8015-123.8013-123.8010-123.8007-123.8002
  -123.7722-123.7720-123.7719-123.7717-123.7710-123.7708-123.7706-123.7705
  -123.6758-123.6756-123.6754-123.6750-123.6746-123.6742-123.6742-123.6737
  -123.6452-123.6451-123.6449-123.6447-123.6440-123.6438-123.6437-123.6435
  -123.5613-123.5612-123.5608-123.5608-123.5601-123.5600-123.5596-123.5595
   -78.1120 -78.1117 -78.1076 -78.1072 -78.1047 -78.1043 -78.1042 -78.1039
   -78.1030 -78.1027 -78.1025 -78.1022 -78.0981 -78.0978 -78.0978 -78.0974
   -78.0967 -78.0964 -78.0963 -78.0960 -78.0952 -78.0948 -78.0906 -78.0903
   -78.0713 -78.0709 -78.0669 -78.0665 -78.0621 -78.0617 -78.0617 -78.0613
   -78.0606 -78.0602 -78.0602 -78.0597 -78.0565 -78.0562 -78.0561 -78.0557
   -78.0551 -78.0547 -78.0547 -78.0545 -78.0543 -78.0541 -78.0500 -78.0496
   -78.0071 -78.0065 -78.0028 -78.0022 -77.9993 -77.9990 -77.9987 -77.9983
   -77.9981 -77.9978 -77.9975 -77.9971 -77.9970 -77.9967 -77.9965 -77.9961
   -77.9957 -77.9953 -77.9952 -77.9948 -77.9907 -77.9900 -77.9862 -77.9856
   -77.9623 -77.9617 -77.9579 -77.9573 -77.9567 -77.9564 -77.9561 -77.9556
   -77.9554 -77.9551 -77.9548 -77.9543 -77.9523 -77.9519 -77.9516 -77.9511
   -77.9509 -77.9506 -77.9502 -77.9498 -77.9457 -77.9451 -77.9413 -77.9406
   -77.9371 -77.9369 -77.9368 -77.9367 -77.9361 -77.9359 -77.9358 -77.9356
   -77.9278 -77.9276 -77.9234 -77.9233 -77.9195 -77.9193 -77.9192 -77.9190
   -77.9182 -77.9180 -77.9178 -77.9177 -77.9113 -77.9112 -77.9069 -77.9067
   -77.8372 -77.8371 -77.8368 -77.8365 -77.8359 -77.8357 -77.8355 -77.8351
   -77.8340 -77.8335 -77.8296 -77.8291 -77.8252 -77.8249 -77.8248 -77.8243
   -77.8238 -77.8234 -77.8233 -77.8228 -77.8174 -77.8169 -77.8129 -77.8124
   -77.8090 -77.8088 -77.8086 -77.8085 -77.8077 -77.8076 -77.8074 -77.8072
   -77.8005 -77.8004 -77.7961 -77.7960 -77.7953 -77.7951 -77.7950 -77.7948
   -77.7941 -77.7939 -77.7937 -77.7935 -77.7840 -77.7838 -77.7795 -77.7794
   -77.7291 -77.7289 -77.7285 -77.7285 -77.7278 -77.7276 -77.7272 -77.7272
   -77.7138 -77.7138 -77.7111 -77.7110 -77.7107 -77.7106 -77.7099 -77.7098
   -77.7094 -77.7094 -77.7094 -77.7092 -77.6973 -77.6973 -77.6928 -77.6928
    -6.9207  -6.7239  -6.6433  -5.9551  -5.9114  -5.7887  -5.7059  -5.6751
    -5.6730  -5.5751  -5.5684  -5.5601  -5.5515  -5.5474  -5.5325  -5.5250
    -5.5233  -5.5064  -5.5033  -5.5003  -5.4846  -5.4798  -5.4770  -5.4746
    -5.4550  -5.4432  -5.4326  -5.4235  -5.4045  -5.3972  -5.3931  -5.3827
    -5.3778  -5.3694  -5.3677  -5.3672  -5.3658  -5.3302  -5.3277  -5.3247
    -5.3196  -5.3070  -5.2985  -5.2952  -5.2947  -5.2820  -5.2796  -5.2731
    -5.2728  -5.2598  -5.2554  -5.2371  -5.2357  -5.2333  -5.2297  -5.2198
    -5.2168  -5.2147  -5.2128  -5.2085  -5.1992  -5.1846  -5.1837  -5.1781
    -5.1726  -5.1720  -5.1705  -5.1656  -5.1653  -5.1519  -5.1492  -5.1376
    -5.1362  -5.1281  -5.1179  -5.1158  -5.1113  -5.0910  -5.0883  -5.0876
    -5.0872  -5.0868  -5.0833  -5.0827  -5.0734  -5.0673  -5.0664  -5.0650
    -5.0641  -5.0511  -5.0501  -5.0501  -5.0445  -5.0412  -5.0250  -5.0182
    -5.0092  -4.9963  -4.9857  -4.9841  -4.9795  -4.9744  -4.9628  -4.9577
    -4.9558  -4.9552  -4.9473  -4.9450  -4.9441  -4.9343  -4.9325  -4.9316
    -4.9268  -4.9262  -4.9188  -4.9127  -4.9052  -4.9000  -4.8930  -4.8868
    -4.8833  -4.8820  -4.8795  -4.8721  -4.8688  -4.8613  -4.8490  -4.8422
    -4.8401  -4.8390  -4.8347  -4.8195  -4.8155  -4.8039  -4.8026  -4.8021
    -4.7993  -4.7972  -4.7960  -4.7909  -4.7850  -4.7811  -4.7793  -4.7634
    -4.7565  -4.7561  -4.7492  -4.7475  -4.7472  -4.7462  -4.7358  -4.7311
    -4.7304  -4.7261  -4.7258  -4.7228  -4.7221  -4.7176  -4.7115  -4.7020
    -4.6921  -4.6858  -4.6855  -4.6822  -4.6781  -4.6779  -4.6732  -4.6638
    -4.6628  -4.6579  -4.6540  -4.6532  -4.6531  -4.6443  -4.6421  -4.6384
    -4.6375  -4.6286  -4.6218  -4.6209  -4.6205  -4.6126  -4.6123  -4.6072
    -4.6050  -4.6011  -4.5996  -4.5905  -4.5892  -4.5800  -4.5769  -4.5663
    -4.5661  -4.5659  -4.5634  -4.5539  -4.5502  -4.5436  -4.5425  -4.5385
    -4.5367  -4.5340  -4.5328  -4.5253  -4.5216  -4.5214  -4.5198  -4.5158
    -4.5010  -4.5005  -4.5002  -4.4889  -4.4820  -4.4810  -4.4797  -4.4786
    -4.4771  -4.4712  -4.4704  -4.4686  -4.4659  -4.4582  -4.4512  -4.4439
    -4.4420  -4.4410  -4.4408  -4.4356  -4.4266  -4.4266  -4.4235  -4.4219
    -4.4178  -4.4130  -4.4121  -4.4119  -4.4071  -4.4017  -4.4006  -4.3977
    -4.3943  -4.3904  -4.3844  -4.3825  -4.3796  -4.3730  -4.3691  -4.3665
    -4.3663  -4.3649  -4.3597  -4.3593  -4.3574  -4.3515  -4.3485  -4.3470
    -4.3363  -4.3336  -4.3334  -4.3274  -4.3243  -4.3241  -4.3224  -4.3123
    -4.3105  -4.3099  -4.3088  -4.3069  -4.3033  -4.2979  -4.2940  -4.2921
    -4.2912  -4.2893  -4.2882  -4.2880  -4.2859  -4.2832  -4.2628  -4.2609
    -4.2599  -4.2596  -4.2571  -4.2560  -4.2534  -4.2519  -4.2476  -4.2473
    -4.2465  -4.2431  -4.2406  -4.2392  -4.2316  -4.2292  -4.2259  -4.2256
    -4.2242  -4.2218  -4.2195  -4.2162  -4.2131  -4.2086  -4.2078  -4.2018
    -4.1991  -4.1921  -4.1917  -4.1887  -4.1886  -4.1821  -4.1798  -4.1785
    -4.1638  -4.1559  -4.1556  -4.1430  -4.1410  -4.1385  -4.1367  -4.1259
    -4.1254  -4.1017  -4.0987  -4.0863  -4.0792  -4.0402  -3.9903  -3.8203
    -3.8030  -3.6577  -3.5544  -3.4875  -3.0500  -2.9456  -2.9369  -2.8826
    -2.8729  -2.7334  -2.6213  -2.4972  -2.4427  -1.9202  -1.8724  -1.7906
    -1.6467  -1.6097  -1.4316  -1.2147  -0.9661  -0.8792  -0.7000  -0.6687
    -0.5256  -0.4557  -0.4520  -0.3695  -0.3527  -0.1017  -0.1006  -0.0825
     0.1166   0.3448   0.3539   0.7060   0.7093   1.1772   1.3212   1.3473
     1.3960   1.4363   1.5727   1.6461   1.7116   1.7444   1.7872   1.8116
     1.8390   1.9965   2.1739   2.3492   2.3497   2.3792   2.5046   2.5329
     2.5820   2.6347   2.6912   2.7559   2.9247   3.2451   3.3340   3.5625
     3.6274   3.6941   3.6961   3.8861   3.8911   3.8926   3.9902   4.1480
     4.1508   4.2007   4.3230   4.4164   4.5206   4.5345   4.5896   4.6279
     4.7553   4.7975   4.9049   5.0761   5.2496   5.2774   5.3346   5.4032
     5.4098   5.4697   5.5272   5.5497   5.6152   5.7794   5.8992   5.9179
     6.0157   6.0356   6.1129   6.1744   6.2047   6.3698   6.5228   6.5350
     6.5680   6.5977   6.7638   6.7915   6.8008   6.8207   6.9233   6.9792
     7.0381   7.0924   7.1087   7.1705   7.2226   7.2491   7.2779   7.2838
     7.2925   7.3674   7.4381   7.4686   7.5257   7.5601   7.5768   7.7076
     7.7597   7.8363   8.0238   8.0525   8.1773   8.2182   8.2295   8.2464
     8.2515   8.3536   8.3875   8.4915   8.5177   8.6077   8.6612   8.7303
     8.9046   8.9273   8.9520   8.9874   9.0120   9.0208   9.0325   9.0678
     9.0851   9.1051   9.1323   9.1913   9.2104   9.2328   9.2807   9.2916
     9.3142   9.3857   9.4209   9.4513   9.5393   9.6153   9.7203   9.7331
     9.8341   9.8455   9.8808   9.9440   9.9687  10.0516  10.0690  10.1149
    10.1342  10.1362  10.2321  10.2458  10.2928  10.3022  10.3268  10.3889

     occupation numbers 
     1.0000   1.0000   1.0000   1.0000   1.0000   1.0000   1.0000   1.0000
     1.0000   1.0000   1.0000   1.0000   1.0000   1.0000   1.0000   1.0000
     1.0000   1.0000   1.0000   1.0000   1.0000   1.0000   1.0000   1.0000
     1.0000   1.0000   1.0000   1.0000   1.0000   1.0000   1.0000   1.0000
     1.0000   1.0000   1.0000   1.0000   1.0000   1.0000   1.0000   1.0000
     1.0000   1.0000   1.0000   1.0000   1.0000   1.0000   1.0000   1.0000
     1.0000   1.0000   1.0000   1.0000   1.0000   1.0000   1.0000   1.0000
     1.0000   1.0000   1.0000   1.0000   1.0000   1.0000   1.0000   1.0000
     1.0000   1.0000   1.0000   1.0000   1.0000   1.0000   1.0000   1.0000
     1.0000   1.0000   1.0000   1.0000   1.0000   1.0000   1.0000   1.0000
     1.0000   1.0000   1.0000   1.0000   1.0000   1.0000   1.0000   1.0000
     1.0000   1.0000   1.0000   1.0000   1.0000   1.0000   1.0000   1.0000
     1.0000   1.0000   1.0000   1.0000   1.0000   1.0000   1.0000   1.0000
     1.0000   1.0000   1.0000   1.0000   1.0000   1.0000   1.0000   1.0000
     1.0000   1.0000   1.0000   1.0000   1.0000   1.0000   1.0000   1.0000
     1.0000   1.0000   1.0000   1.0000   1.0000   1.0000   1.0000   1.0000
     1.0000   1.0000   1.0000   1.0000   1.0000   1.0000   1.0000   1.0000
     1.0000   1.0000   1.0000   1.0000   1.0000   1.0000   1.0000   1.0000
     1.0000   1.0000   1.0000   1.0000   1.0000   1.0000   1.0000   1.0000
     1.0000   1.0000   1.0000   1.0000   1.0000   1.0000   1.0000   1.0000
[...]
     atom   30 type  1   force =     0.00000000    0.00000000    0.00000000
     atom   31 type  1   force =     0.00000000    0.00000000    0.00000000
     atom   32 type  1   force =     0.00000000    0.00000000    0.00000000
     atom   33 type  1   force =     0.00000000    0.00000000    0.00000000
     atom   34 type  1   force =     0.00000000    0.00000000    0.00000000
     atom   35 type  1   force =     0.00000000    0.00000000    0.00000000
     atom   36 type  1   force =     0.00000000    0.00000000    0.00000000
     atom   37 type  1   force =     0.00000000    0.00000000    0.00000000
     atom   38 type  1   force =     0.00000000    0.00000000    0.00000000
     atom   39 type  1   force =     0.00000000    0.00000000    0.00000000
     atom   40 type  1   force =     0.00000000    0.00000000    0.00000000
     atom   41 type  1   force =     0.00000000    0.00000000    0.00000000
     atom   42 type  1   force =     0.00000000    0.00000000    0.00000000
     atom   43 type  1   force =     0.00000000    0.00000000    0.00000000
     atom   44 type  1   force =     0.00000000    0.00000000    0.00000000
     atom   45 type  1   force =     0.00000000    0.00000000    0.00000000
     atom   46 type  1   force =     0.00000000    0.00000000    0.00000000
     atom   47 type  1   force =     0.00000000    0.00000000    0.00000000
     atom   48 type  1   force =     0.00000000    0.00000000    0.00000000
     atom   49 type  1   force =     0.00000000    0.00000000    0.00000000
     atom   50 type  1   force =     0.00000000    0.00000000    0.00000000
     atom   51 type  1   force =     0.00000000    0.00000000    0.00000000
     atom   52 type  1   force =     0.00000000    0.00000000    0.00000000
     atom   53 type  1   force =     0.00000000    0.00000000    0.00000000
     atom   54 type  1   force =     0.00000000    0.00000000    0.00000000
     atom   55 type  1   force =     0.00000000    0.00000000    0.00000000
     atom   56 type  1   force =     0.00000000    0.00000000    0.00000000
     atom   57 type  1   force =     0.00000000    0.00000000    0.00000000
     atom   58 type  1   force =     0.00000000    0.00000000    0.00000000
     atom   59 type  1   force =     0.00000000    0.00000000    0.00000000
     atom   60 type  1   force =     0.00000000    0.00000000    0.00000000
     atom   61 type  1   force =     0.00000000    0.00000000    0.00000000
     atom   62 type  1   force =     0.00000000    0.00000000    0.00000000
     atom   63 type  1   force =     0.00000000    0.00000000    0.00000000
     atom   64 type  1   force =     0.00000000    0.00000000    0.00000000
     The Hubbard contrib.    to forces
     atom    1 type  1   force =     0.00000000    0.00000000    0.00000000
     atom    2 type  1   force =     0.00000000    0.00000000    0.00000000
     atom    3 type  1   force =     0.00000000    0.00000000    0.00000000
     atom    4 type  1   force =     0.00000000    0.00000000    0.00000000
     atom    5 type  1   force =     0.00000000    0.00000000    0.00000000
     atom    6 type  1   force =     0.00000000    0.00000000    0.00000000
     atom    7 type  1   force =     0.00000000    0.00000000    0.00000000
     atom    8 type  1   force =     0.00000000    0.00000000    0.00000000
     atom    9 type  1   force =     0.00000000    0.00000000    0.00000000
     atom   10 type  1   force =     0.00000000    0.00000000    0.00000000
     atom   11 type  1   force =     0.00000000    0.00000000    0.00000000
     atom   12 type  1   force =     0.00000000    0.00000000    0.00000000
     atom   13 type  1   force =     0.00000000    0.00000000    0.00000000
     atom   14 type  1   force =     0.00000000    0.00000000    0.00000000
     atom   15 type  1   force =     0.00000000    0.00000000    0.00000000
     atom   16 type  1   force =     0.00000000    0.00000000    0.00000000
     atom   17 type  1   force =     0.00000000    0.00000000    0.00000000
     atom   18 type  1   force =     0.00000000    0.00000000    0.00000000
     atom   19 type  1   force =     0.00000000    0.00000000    0.00000000
     atom   20 type  1   force =     0.00000000    0.00000000    0.00000000
     atom   21 type  1   force =     0.00000000    0.00000000    0.00000000
     atom   22 type  1   force =     0.00000000    0.00000000    0.00000000
     atom   23 type  1   force =     0.00000000    0.00000000    0.00000000
     atom   24 type  1   force =     0.00000000    0.00000000    0.00000000
     atom   25 type  1   force =     0.00000000    0.00000000    0.00000000
     atom   26 type  1   force =     0.00000000    0.00000000    0.00000000
     atom   27 type  1   force =     0.00000000    0.00000000    0.00000000
     atom   28 type  1   force =     0.00000000    0.00000000    0.00000000
     atom   29 type  1   force =     0.00000000    0.00000000    0.00000000
     atom   30 type  1   force =     0.00000000    0.00000000    0.00000000
     atom   31 type  1   force =     0.00000000    0.00000000    0.00000000
     atom   32 type  1   force =     0.00000000    0.00000000    0.00000000
     atom   33 type  1   force =     0.00000000    0.00000000    0.00000000
     atom   34 type  1   force =     0.00000000    0.00000000    0.00000000
     atom   35 type  1   force =     0.00000000    0.00000000    0.00000000
     atom   36 type  1   force =     0.00000000    0.00000000    0.00000000
     atom   37 type  1   force =     0.00000000    0.00000000    0.00000000
     atom   38 type  1   force =     0.00000000    0.00000000    0.00000000
     atom   39 type  1   force =     0.00000000    0.00000000    0.00000000
     atom   40 type  1   force =     0.00000000    0.00000000    0.00000000
     atom   41 type  1   force =     0.00000000    0.00000000    0.00000000
     atom   42 type  1   force =     0.00000000    0.00000000    0.00000000
     atom   43 type  1   force =     0.00000000    0.00000000    0.00000000
     atom   44 type  1   force =     0.00000000    0.00000000    0.00000000
     atom   45 type  1   force =     0.00000000    0.00000000    0.00000000
     atom   46 type  1   force =     0.00000000    0.00000000    0.00000000
     atom   47 type  1   force =     0.00000000    0.00000000    0.00000000
     atom   48 type  1   force =     0.00000000    0.00000000    0.00000000
     atom   49 type  1   force =     0.00000000    0.00000000    0.00000000
     atom   50 type  1   force =     0.00000000    0.00000000    0.00000000
     atom   51 type  1   force =     0.00000000    0.00000000    0.00000000
     atom   52 type  1   force =     0.00000000    0.00000000    0.00000000
     atom   53 type  1   force =     0.00000000    0.00000000    0.00000000
     atom   54 type  1   force =     0.00000000    0.00000000    0.00000000
     atom   55 type  1   force =     0.00000000    0.00000000    0.00000000
     atom   56 type  1   force =     0.00000000    0.00000000    0.00000000
     atom   57 type  1   force =     0.00000000    0.00000000    0.00000000
     atom   58 type  1   force =     0.00000000    0.00000000    0.00000000
     atom   59 type  1   force =     0.00000000    0.00000000    0.00000000
     atom   60 type  1   force =     0.00000000    0.00000000    0.00000000
     atom   61 type  1   force =     0.00000000    0.00000000    0.00000000
     atom   62 type  1   force =     0.00000000    0.00000000    0.00000000
     atom   63 type  1   force =     0.00000000    0.00000000    0.00000000
     atom   64 type  1   force =     0.00000000    0.00000000    0.00000000
     The SCF correction term to forces
     atom    1 type  1   force =    -0.00004571    0.00004211   -0.00004007
     atom    2 type  1   force =     0.00008758   -0.00002977   -0.00006866
     atom    3 type  1   force =    -0.00036758   -0.00010852   -0.00057243
     atom    4 type  1   force =    -0.00037470   -0.00007308   -0.00051895
     atom    5 type  1   force =    -0.00016211    0.00008313   -0.00019622
     atom    6 type  1   force =    -0.00006125   -0.00013836   -0.00028267
     atom    7 type  1   force =     0.00042082    0.00011811    0.00025246
     atom    8 type  1   force =     0.00032151    0.00005838    0.00030213
     atom    9 type  1   force =     0.00001048   -0.00005154   -0.00007792
     atom   10 type  1   force =     0.00003103    0.00006341   -0.00003172
     atom   11 type  1   force =    -0.00033437   -0.00015999   -0.00053461
     atom   12 type  1   force =    -0.00040443   -0.00002375   -0.00056708
     atom   13 type  1   force =    -0.00008825   -0.00016608   -0.00018878
     atom   14 type  1   force =    -0.00013666    0.00011391   -0.00029201
     atom   15 type  1   force =     0.00042493    0.00003360    0.00026946
     atom   16 type  1   force =     0.00032001    0.00014464    0.00028524
     atom   17 type  1   force =     0.00011047   -0.00005999   -0.00020127
     atom   18 type  1   force =    -0.00001163    0.00008519   -0.00020801
     atom   19 type  1   force =    -0.00022211   -0.00004063   -0.00026666
     atom   20 type  1   force =    -0.00020878   -0.00006506   -0.00043326
     atom   21 type  1   force =    -0.00022821   -0.00005515   -0.00050613
     atom   22 type  1   force =    -0.00033148   -0.00007344   -0.00045740
     atom   23 type  1   force =    -0.00029245    0.00010663    0.00003109
     atom   24 type  1   force =    -0.00016266   -0.00021661    0.00003775
     atom   25 type  1   force =     0.00006260   -0.00000563   -0.00021479
     atom   26 type  1   force =     0.00003645    0.00002643   -0.00019534
     atom   27 type  1   force =    -0.00023959   -0.00013073   -0.00038199
     atom   28 type  1   force =    -0.00019012    0.00002147   -0.00031959
     atom   29 type  1   force =    -0.00031042   -0.00010500   -0.00051070
     atom   30 type  1   force =    -0.00024294   -0.00003384   -0.00045297
     atom   31 type  1   force =    -0.00026734   -0.00005109   -0.00000627
     atom   32 type  1   force =    -0.00018052   -0.00006064    0.00007362
     atom   33 type  1   force =    -0.00026253   -0.00009356   -0.00013653
     atom   34 type  1   force =    -0.00028345   -0.00003651   -0.00016855
     atom   35 type  1   force =     0.00047666    0.00018184   -0.00064241
     atom   36 type  1   force =     0.00051561    0.00005719   -0.00069333
     atom   37 type  1   force =    -0.00026892    0.00002958   -0.00038298
     atom   38 type  1   force =    -0.00022057   -0.00014378   -0.00027661
     atom   39 type  1   force =     0.00038558    0.00027549   -0.00006859
     atom   40 type  1   force =     0.00051321   -0.00005926   -0.00004958
     atom   41 type  1   force =    -0.00034242   -0.00005780   -0.00015827
     atom   42 type  1   force =    -0.00020121   -0.00007084   -0.00014616
     atom   43 type  1   force =     0.00050979    0.00006800   -0.00072832
     atom   44 type  1   force =     0.00048195    0.00017176   -0.00060793
     atom   45 type  1   force =    -0.00029833   -0.00008356   -0.00027673
     atom   46 type  1   force =    -0.00018518   -0.00003545   -0.00038308
     atom   47 type  1   force =     0.00051986    0.00008812   -0.00010098
     atom   48 type  1   force =     0.00038166    0.00013010   -0.00001873
     atom   49 type  1   force =     0.00009823    0.00005818   -0.00037554
     atom   50 type  1   force =     0.00010849   -0.00000635   -0.00040391
     atom   51 type  1   force =     0.00000299   -0.00002099   -0.00015669
     atom   52 type  1   force =    -0.00005506    0.00000603   -0.00021471
     atom   53 type  1   force =     0.00081799    0.00027377   -0.00048699
     atom   54 type  1   force =     0.00076966    0.00011634   -0.00060768
     atom   55 type  1   force =    -0.00051569   -0.00009583    0.00000750
     atom   56 type  1   force =    -0.00062392   -0.00017966    0.00000217
     atom   57 type  1   force =     0.00017046   -0.00006383   -0.00039385
     atom   58 type  1   force =     0.00003466    0.00011596   -0.00038429
     atom   59 type  1   force =    -0.00004790   -0.00007636   -0.00012478
     atom   60 type  1   force =    -0.00000468    0.00006553   -0.00024564
     atom   61 type  1   force =     0.00084739    0.00011698   -0.00055554
     atom   62 type  1   force =     0.00074077    0.00027162   -0.00054343
     atom   63 type  1   force =    -0.00063313   -0.00008393   -0.00000151
     atom   64 type  1   force =    -0.00050457   -0.00019071    0.00000946

     Total force =     0.103711     Total SCF correction =     0.004083


     Computing stress (Cartesian axis) and pressure

          total   stress  (Ry/bohr**3)                   (kbar)     P=       -7.50
  -0.00012495  -0.00002359   0.00002403          -18.38       -3.47        3.53
  -0.00002359  -0.00005942   0.00000633           -3.47       -8.74        0.93
   0.00002403   0.00000633   0.00003145            3.53        0.93        4.63

     kinetic stress (kbar)  14990.54      6.66     -6.13
                                6.66  14960.15     -1.42
                               -6.13     -1.42  15016.24

     local   stress (kbar)**********   3424.02  -2315.94
                             3424.02**********   -558.82
                            -2315.94   -558.821207988.40

     nonloc. stress (kbar)  -1611.65     -7.18      4.37
                               -7.18  -1584.44      1.19
                                4.37      1.19  -1619.86

     hartree stress (kbar) 630474.79  -1471.17    970.73
                            -1471.17 636163.78    234.27
                              970.73    234.27-562336.37

     exc-cor stress (kbar)  -7547.35     -0.94      0.67
                               -0.94  -7543.75      0.16
                                0.67      0.16  -7550.60

     corecor stress (kbar)      0.00      0.00      0.00
                                0.00      0.00      0.00
                                0.00      0.00      0.00

     ewald   stress (kbar) 557232.83  -1954.86   1349.83
                            -1954.86 564795.07    325.54
                             1349.83    325.54-651493.18

     hubbard stress (kbar)      0.00      0.00      0.00
                                0.00      0.00      0.00
                                0.00      0.00      0.00

     DFT-D   stress (kbar)      0.00      0.00      0.00
                                0.00      0.00      0.00
                                0.00      0.00      0.00

     XDM     stress (kbar)      0.00      0.00      0.00
                                0.00      0.00      0.00
                                0.00      0.00      0.00

     dft-nl  stress (kbar)      0.00      0.00      0.00
                                0.00      0.00      0.00
                                0.00      0.00      0.00

     TS-vdW  stress (kbar)      0.00      0.00      0.00
                                0.00      0.00      0.00
                                0.00      0.00      0.00

     MDB     stress (kbar)      0.00      0.00      0.00
                                0.00      0.00      0.00
                                0.00      0.00      0.00

     3D-RISM stress (kbar)      0.00      0.00      0.00
                                0.00      0.00      0.00
                                0.00      0.00      0.00


     Writing all to output data dir ./tmp/Zn002_2x2x4_scf.save/ :
     XML data file, charge density, pseudopotentials, collected wavefunctions

     init_run     :    170.57s CPU    172.71s WALL (       1 calls)
     electrons    :   9279.06s CPU   9385.04s WALL (       1 calls)
     forces       :    131.50s CPU    132.08s WALL (       1 calls)
     stress       :    387.15s CPU    388.48s WALL (       1 calls)

     Called by init_run:
     wfcinit      :    169.45s CPU    171.53s WALL (       1 calls)
     wfcinit:atom :      0.09s CPU      0.15s WALL (       5 calls)
     wfcinit:wfcr :    168.16s CPU    170.11s WALL (       5 calls)
     potinit      :      0.11s CPU      0.12s WALL (       1 calls)
     hinit0       :      0.04s CPU      0.04s WALL (       1 calls)

     Called by electrons:
     c_bands      :   8646.25s CPU   8739.72s WALL (      15 calls)
     sum_band     :    619.76s CPU    631.86s WALL (      15 calls)
     v_of_rho     :      1.52s CPU      1.59s WALL (      15 calls)
     v_h          :      0.09s CPU      0.10s WALL (      15 calls)
     v_xc         :      1.43s CPU      1.50s WALL (      15 calls)
     newd         :     12.18s CPU     12.48s WALL (      15 calls)
     mix_rho      :      0.17s CPU      0.18s WALL (      15 calls)

     Called by c_bands:
     init_us_2    :      6.08s CPU      6.10s WALL (     165 calls)
     cegterg      :   8633.15s CPU   8726.52s WALL (      75 calls)

     Called by sum_band:
     sum_band:wei :      0.04s CPU      0.04s WALL (      15 calls)
     sum_band:loo :    608.51s CPU    620.29s WALL (      15 calls)
     sum_band:buf :      1.29s CPU      1.30s WALL (      75 calls)
     sum_band:ini :      2.79s CPU      2.79s WALL (      75 calls)
     sum_band:cal :    478.26s CPU    480.14s WALL (      75 calls)
     sum_band:bec :      2.79s CPU      2.80s WALL (      75 calls)
     addusdens    :     10.80s CPU     11.09s WALL (      15 calls)
                                        0.00s GPU  (      15 calls)
     addusd:skk   :      0.11s CPU      0.13s WALL (      15 calls)
                                        0.00s GPU  (      15 calls)

     Called by *egterg:
     cdiaghg      :    490.66s CPU    510.90s WALL (     477 calls)
     cegterg:over :   1327.57s CPU   1331.66s WALL (     407 calls)
     cegterg:upda :    713.60s CPU    716.27s WALL (     407 calls)
     cegterg:last :   2097.07s CPU   2103.65s WALL (     150 calls)
     cdiaghg:chol :     33.50s CPU     33.58s WALL (     477 calls)
     cdiaghg:inve :      5.29s CPU      5.30s WALL (     477 calls)
     cdiaghg:para :    149.51s CPU    151.65s WALL (     954 calls)
     h_psi        :   2691.46s CPU   2747.01s WALL (     487 calls)
     s_psi        :   1024.34s CPU   1026.81s WALL (     487 calls)
     g_psi        :      0.90s CPU      0.90s WALL (     407 calls)

     Called by h_psi:
     h_psi:calbec :   1125.47s CPU   1129.94s WALL (     487 calls)
     vloc_psi     :    537.96s CPU    585.15s WALL (     487 calls)
     add_vuspsi   :   1025.75s CPU   1028.28s WALL (     487 calls)

     General routines
     calbec       :   1763.59s CPU   1770.60s WALL (     587 calls)
     fft          :      0.96s CPU      1.09s WALL (     174 calls)
     ffts         :      0.07s CPU      0.08s WALL (      15 calls)
     fftw         :    593.86s CPU    646.97s WALL (  328512 calls)

     Parallel routines

     PWSCF        :      2h46m CPU      2h48m WALL


   This run was terminated on:  17:55:55  19Mar2025            

=------------------------------------------------------------------------------=
   JOB DONE.
=------------------------------------------------------------------------------=
Note: The following floating-point exceptions are signalling: IEEE_DENORMAL
Note: The following floating-point exceptions are signalling: IEEE_DENORMAL
Note: The following floating-point exceptions are signalling: IEEE_DENORMAL
Note: The following floating-point exceptions are signalling: IEEE_DENORMAL
Note: The following floating-point exceptions are signalling: IEEE_DENORMAL
Note: The following floating-point exceptions are signalling: IEEE_DENORMAL
Note: The following floating-point exceptions are signalling: IEEE_DENORMAL
Note: The following floating-point exceptions are signalling: IEEE_DENORMAL
Note: The following floating-point exceptions are signalling: IEEE_DENORMAL
Note: The following floating-point exceptions are signalling: IEEE_DENORMAL
Note: The following floating-point exceptions are signalling: IEEE_DENORMAL
Note: The following floating-point exceptions are signalling: IEEE_DENORMAL
