--------------------------------------------------------------------------
By default, for Open MPI 4.0 and later, infiniband ports on a device
are not used by default.  The intent is to use UCX for these devices.
You can override this policy by setting the btl_openib_allow_ib MCA parameter
to true.

  Local host:              psid01
  Local adapter:           mlx5_0
  Local port:              1

--------------------------------------------------------------------------
--------------------------------------------------------------------------
WARNING: There was an error initializing an OpenFabrics device.

  Local host:   psid01
  Local device: mlx5_0
--------------------------------------------------------------------------

     Program PWSCF v.7.3.1 starts on 19Mar2025 at 15:21:30 

     This program is part of the open-source Quantum ESPRESSO suite
     for quantum simulation of materials; please cite
         "P. Giannozzi et al., J. Phys.:Condens. Matter 21 395502 (2009);
         "P. Giannozzi et al., J. Phys.:Condens. Matter 29 465901 (2017);
         "P. Giannozzi et al., J. Chem. Phys. 152 154105 (2020);
          URL http://www.quantum-espresso.org", 
     in publications or presentations arising from this work. More details at
     http://www.quantum-espresso.org/quote

     Parallel version (MPI), running on    30 processors

     MPI processes distributed on     1 nodes
     62940 MiB available memory on the printing compute node when the environment starts

     Waiting for input...
     Reading input from standard input

     Current dimensions of program PWSCF are:
     Max number of different atomic species (ntypx) = 10
     Max number of k-points (npk) =  40000
     Max angular momentum in pseudopotentials (lmaxx) =  4

     R & G space division:  proc/nbgrp/npool/nimage =      30
     Subspace diagonalization in iterative solution of the eigenvalue problem:
     one sub-group per band group will be used
     custom distributed-memory algorithm (size of sub-group:  5*  5 procs)


     Parallelization info
     --------------------
     sticks:   dense  smooth     PW     G-vecs:    dense   smooth      PW
     Min         193     193     50                25247    25247    3382
     Max         194     194     51                25256    25256    3385
     Sum        5799    5799   1523               757545   757545  101509

     Using Slab Decomposition



     bravais-lattice index     =            0
     lattice parameter (alat)  =      18.4179  a.u.
     unit-cell volume          =   15858.2170 (a.u.)^3
     number of atoms/cell      =           64
     number of atomic types    =            1
     number of electrons       =      1280.00
     number of Kohn-Sham states=          768
     kinetic-energy cutoff     =      50.0000  Ry
     charge density cutoff     =     200.0000  Ry
     scf convergence threshold =      7.3E-07
     mixing beta               =       0.7000
     number of iterations used =            8  plain     mixing
     Exchange-correlation= SLA  PW   PBE  PBE
                           (   1   4   3   4   0   0   0)

     celldm(1)=  18.417879  celldm(2)=   0.000000  celldm(3)=   0.000000
     celldm(4)=   0.000000  celldm(5)=   0.000000  celldm(6)=   0.000000

     crystal axes: (cart. coord. in units of alat)
               a(1) = (   1.000000   0.000000   0.000000 )  
               a(2) = (   0.000000   1.072963   0.000000 )  
               a(3) = (   0.000000  -1.365810   2.365652 )  

     reciprocal axes: (cart. coord. in units 2 pi/alat)
               b(1) = (  1.000000  0.000000 -0.000000 )  
               b(2) = ( -0.000000  0.931999  0.538090 )  
               b(3) = (  0.000000  0.000000  0.422716 )  


     PseudoPot. # 1 for Zn read from file:
     /home/ys/qepseudo/SSSP_1.3.0_PBE_efficiency/Zn_pbe_v1.uspp.F.UPF
     MD5 check sum: df62231357ef9e81f77b2b3087fa5675
     Pseudo is Ultrasoft, Zval = 20.0
     Generated by new atomic code, or converted to UPF format
     Using radial grid of  943 points,  6 beta functions with: 
                l(1) =   0
                l(2) =   0
                l(3) =   1
                l(4) =   1
                l(5) =   2
                l(6) =   2
     Q(r) pseudized with  8 coefficients,  rinner =    1.100   1.100   1.100
                                                       1.100   1.100

     atomic species   valence    mass     pseudopotential
     Zn               20.00    65.38000     Zn( 1.00)

     No symmetry found


                                    s                        frac. trans.

      isym =  1     identity                                     

 cryst.   s( 1) = (     1          0          0      )
                  (     0          1          0      )
                  (     0          0          1      )

 cart.    s( 1) = (  1.0000000  0.0000000  0.0000000 )
                  (  0.0000000  1.0000000 -0.0000000 )
                  (  0.0000000  0.0000000  1.0000000 )


   Cartesian axes

     site n.     atom                  positions (alat units)
         1        Zn     tau(   1) = (   0.1250000   0.1341203   0.0774344  )
         2        Zn     tau(   2) = (   0.1250000   0.6706017   0.0774344  )
         3        Zn     tau(   3) = (   0.1250000   0.0000000   0.3097376  )
         4        Zn     tau(   4) = (   0.1250000   0.5364813   0.3097376  )
         5        Zn     tau(   5) = (   0.1250290  -0.1341417   0.5820584  )
         6        Zn     tau(   6) = (   0.1250405   0.4023616   0.5819647  )
         7        Zn     tau(   7) = (   0.1250408  -0.2682706   0.8528810  )
         8        Zn     tau(   8) = (   0.1250466   0.2682807   0.8528293  )
         9        Zn     tau(   9) = (   0.1250000   0.4023610   0.0774344  )
        10        Zn     tau(  10) = (   0.1250000   0.9388423   0.0774344  )
        11        Zn     tau(  11) = (   0.1250000   0.2682407   0.3097376  )
        12        Zn     tau(  12) = (   0.1250000   0.8047220   0.3097376  )
        13        Zn     tau(  13) = (   0.1250408   0.1341312   0.5819983  )
        14        Zn     tau(  14) = (   0.1250279   0.6705889   0.5820360  )
        15        Zn     tau(  15) = (   0.1250442  -0.0000368   0.8528823  )
        16        Zn     tau(  16) = (   0.1250426   0.5365266   0.8528201  )
        17        Zn     tau(  17) = (   0.6250000   0.1341203   0.0774344  )
        18        Zn     tau(  18) = (   0.6250000   0.6706017   0.0774344  )
        19        Zn     tau(  19) = (   0.6250000   0.0000000   0.3097376  )
        20        Zn     tau(  20) = (   0.6250000   0.5364813   0.3097376  )
        21        Zn     tau(  21) = (   0.6249675  -0.1341249   0.5822560  )
        22        Zn     tau(  22) = (   0.6249625   0.4023466   0.5821830  )
        23        Zn     tau(  23) = (   0.6249647  -0.2682775   0.8528614  )
        24        Zn     tau(  24) = (   0.6249499   0.2682885   0.8528196  )
        25        Zn     tau(  25) = (   0.6250000   0.4023610   0.0774344  )
        26        Zn     tau(  26) = (   0.6250000   0.9388423   0.0774344  )
        27        Zn     tau(  27) = (   0.6250000   0.2682407   0.3097376  )
        28        Zn     tau(  28) = (   0.6250000   0.8047220   0.3097376  )
        29        Zn     tau(  29) = (   0.6249643   0.1341641   0.5822135  )
        30        Zn     tau(  30) = (   0.6249672   0.6705553   0.5822335  )
        31        Zn     tau(  31) = (   0.6249591  -0.0000159   0.8528717  )
        32        Zn     tau(  32) = (   0.6249573   0.5365055   0.8528056  )
        33        Zn     tau(  33) = (   0.3750000  -0.0000000   0.1548688  )
        34        Zn     tau(  34) = (   0.3750000   0.5364813   0.1548688  )
        35        Zn     tau(  35) = (   0.3750000  -0.1341203   0.3871721  )
        36        Zn     tau(  36) = (   0.3750000   0.4023610   0.3871721  )
        37        Zn     tau(  37) = (   0.3749795  -0.2682828   0.6236034  )
        38        Zn     tau(  38) = (   0.3749869   0.2682730   0.6235323  )
        39        Zn     tau(  39) = (   0.3751136  -0.4023763   0.8687437  )
        40        Zn     tau(  40) = (   0.3751189   0.1341221   0.8687719  )
        41        Zn     tau(  41) = (   0.3750000   0.2682407   0.1548688  )
        42        Zn     tau(  42) = (   0.3750000   0.8047220   0.1548688  )
        43        Zn     tau(  43) = (   0.3750000   0.1341203   0.3871721  )
        44        Zn     tau(  44) = (   0.3750000   0.6706017   0.3871721  )
        45        Zn     tau(  45) = (   0.3749870   0.0000171   0.6235532  )
        46        Zn     tau(  46) = (   0.3749914   0.5364504   0.6235764  )
        47        Zn     tau(  47) = (   0.3751105  -0.1341730   0.8687759  )
        48        Zn     tau(  48) = (   0.3751210   0.4023978   0.8687386  )
        49        Zn     tau(  49) = (   0.8750000  -0.0000000   0.1548688  )
        50        Zn     tau(  50) = (   0.8750000   0.5364813   0.1548688  )
        51        Zn     tau(  51) = (   0.8750000  -0.1341203   0.3871721  )
        52        Zn     tau(  52) = (   0.8750000   0.4023610   0.3871721  )
        53        Zn     tau(  53) = (   0.8750137  -0.2682816   0.6236127  )
        54        Zn     tau(  54) = (   0.8750145   0.2682702   0.6235379  )
        55        Zn     tau(  55) = (   0.8748930  -0.4023645   0.8688529  )
        56        Zn     tau(  56) = (   0.8748831   0.1341076   0.8688814  )
        57        Zn     tau(  57) = (   0.8750000   0.2682407   0.1548688  )
        58        Zn     tau(  58) = (   0.8750000   0.8047220   0.1548688  )
        59        Zn     tau(  59) = (   0.8750000   0.1341203   0.3871721  )
        60        Zn     tau(  60) = (   0.8750000   0.6706017   0.3871721  )
        61        Zn     tau(  61) = (   0.8750191  -0.0000014   0.6235616  )
        62        Zn     tau(  62) = (   0.8750146   0.5364705   0.6235843  )
        63        Zn     tau(  63) = (   0.8748974  -0.1341803   0.8688835  )
        64        Zn     tau(  64) = (   0.8748800   0.4024084   0.8688483  )

   Crystallographic axes

     site n.     atom                  positions (cryst. coord.)
         1        Zn     tau(   1) = (  0.1250000  0.1666667  0.0327328  )
         2        Zn     tau(   2) = (  0.1250000  0.6666667  0.0327328  )
         3        Zn     tau(   3) = (  0.1250000  0.1666667  0.1309312  )
         4        Zn     tau(   4) = (  0.1250000  0.6666667  0.1309312  )
         5        Zn     tau(   5) = (  0.1250290  0.1881798  0.2460456  )
         6        Zn     tau(   6) = (  0.1250405  0.6881498  0.2460060  )
         7        Zn     tau(   7) = (  0.1250408  0.2088987  0.3605268  )
         8        Zn     tau(   8) = (  0.1250466  0.7089361  0.3605049  )
         9        Zn     tau(   9) = (  0.1250000  0.4166667  0.0327328  )
        10        Zn     tau(  10) = (  0.1250000  0.9166667  0.0327328  )
        11        Zn     tau(  11) = (  0.1250000  0.4166667  0.1309312  )
        12        Zn     tau(  12) = (  0.1250000  0.9166667  0.1309312  )
        13        Zn     tau(  13) = (  0.1250408  0.4381774  0.2460202  )
        14        Zn     tau(  14) = (  0.1250279  0.9381757  0.2460362  )
        15        Zn     tau(  15) = (  0.1250442  0.4588930  0.3605273  )
        16        Zn     tau(  16) = (  0.1250426  0.9589360  0.3605011  )
        17        Zn     tau(  17) = (  0.6250000  0.1666667  0.0327328  )
        18        Zn     tau(  18) = (  0.6250000  0.6666667  0.0327328  )
        19        Zn     tau(  19) = (  0.6250000  0.1666667  0.1309312  )
        20        Zn     tau(  20) = (  0.6250000  0.6666667  0.1309312  )
        21        Zn     tau(  21) = (  0.6249675  0.1883018  0.2461292  )
        22        Zn     tau(  22) = (  0.6249625  0.6882533  0.2460983  )
        23        Zn     tau(  23) = (  0.6249647  0.2088817  0.3605185  )
        24        Zn     tau(  24) = (  0.6249499  0.7089381  0.3605008  )
        25        Zn     tau(  25) = (  0.6250000  0.4166667  0.0327328  )
        26        Zn     tau(  26) = (  0.6250000  0.9166667  0.0327328  )
        27        Zn     tau(  27) = (  0.6250000  0.4166667  0.1309312  )
        28        Zn     tau(  28) = (  0.6250000  0.9166667  0.1309312  )
        29        Zn     tau(  29) = (  0.6249643  0.4383239  0.2461112  )
        30        Zn     tau(  30) = (  0.6249672  0.9382507  0.2461196  )
        31        Zn     tau(  31) = (  0.6249591  0.4589067  0.3605228  )
        32        Zn     tau(  32) = (  0.6249573  0.9589085  0.3604949  )
        33        Zn     tau(  33) = (  0.3750000  0.0833333  0.0654656  )
        34        Zn     tau(  34) = (  0.3750000  0.5833333  0.0654656  )
        35        Zn     tau(  35) = (  0.3750000  0.0833333  0.1636640  )
        36        Zn     tau(  36) = (  0.3750000  0.5833333  0.1636640  )
        37        Zn     tau(  37) = (  0.3749795  0.0855154  0.2636074  )
        38        Zn     tau(  38) = (  0.3749869  0.5855465  0.2635773  )
        39        Zn     tau(  39) = (  0.3751136  0.0924479  0.3672322  )
        40        Zn     tau(  40) = (  0.3751189  0.5924790  0.3672441  )
        41        Zn     tau(  41) = (  0.3750000  0.3333333  0.0654656  )
        42        Zn     tau(  42) = (  0.3750000  0.8333333  0.0654656  )
        43        Zn     tau(  43) = (  0.3750000  0.3333333  0.1636640  )
        44        Zn     tau(  44) = (  0.3750000  0.8333333  0.1636640  )
        45        Zn     tau(  45) = (  0.3749870  0.3355436  0.2635862  )
        46        Zn     tau(  46) = (  0.3749914  0.8355113  0.2635959  )
        47        Zn     tau(  47) = (  0.3751105  0.3424304  0.3672458  )
        48        Zn     tau(  48) = (  0.3751210  0.8424936  0.3672300  )
        49        Zn     tau(  49) = (  0.8750000  0.0833333  0.0654656  )
        50        Zn     tau(  50) = (  0.8750000  0.5833333  0.0654656  )
        51        Zn     tau(  51) = (  0.8750000  0.0833333  0.1636640  )
        52        Zn     tau(  52) = (  0.8750000  0.5833333  0.1636640  )
        53        Zn     tau(  53) = (  0.8750137  0.0855215  0.2636113  )
        54        Zn     tau(  54) = (  0.8750145  0.5855469  0.2635797  )
        55        Zn     tau(  55) = (  0.8748930  0.0925177  0.3672784  )
        56        Zn     tau(  56) = (  0.8748831  0.5925243  0.3672904  )
        57        Zn     tau(  57) = (  0.8750000  0.3333333  0.0654656  )
        58        Zn     tau(  58) = (  0.8750000  0.8333333  0.0654656  )
        59        Zn     tau(  59) = (  0.8750000  0.3333333  0.1636640  )
        60        Zn     tau(  60) = (  0.8750000  0.8333333  0.1636640  )
        61        Zn     tau(  61) = (  0.8750191  0.3355308  0.2635897  )
        62        Zn     tau(  62) = (  0.8750146  0.8355343  0.2635993  )
        63        Zn     tau(  63) = (  0.8748974  0.3424815  0.3672913  )
        64        Zn     tau(  64) = (  0.8748800  0.8425626  0.3672764  )

     number of k points=     5  Marzari-Vanderbilt smearing, width (Ry)=  0.0200
                       cart. coord. in units 2pi/alat
        k(    1) = (   0.0000000   0.0000000   0.0000000), wk =   0.2222222
        k(    2) = (   0.0000000   0.3106663   0.1793633), wk =   0.4444444
        k(    3) = (   0.3333333   0.0000000   0.0000000), wk =   0.4444444
        k(    4) = (   0.3333333   0.3106663   0.1793633), wk =   0.4444444
        k(    5) = (   0.3333333  -0.3106663  -0.1793633), wk =   0.4444444

                       cryst. coord.
        k(    1) = (   0.0000000   0.0000000   0.0000000), wk =   0.2222222
        k(    2) = (   0.0000000   0.3333333  -0.0000000), wk =   0.4444444
        k(    3) = (   0.3333333   0.0000000   0.0000000), wk =   0.4444444
        k(    4) = (   0.3333333   0.3333333  -0.0000000), wk =   0.4444444
        k(    5) = (   0.3333333  -0.3333333   0.0000000), wk =   0.4444444

     Dense  grid:   757545 G-vectors     FFT dimensions: (  90,  90, 240)

     Dynamical RAM for                 wfc:      36.98 MB

     Dynamical RAM for     wfc (w. buffer):     221.91 MB

     Dynamical RAM for           str. fact:       0.39 MB

     Dynamical RAM for           local pot:       0.00 MB

     Dynamical RAM for          nlocal pot:      55.48 MB

     Dynamical RAM for                qrad:       1.14 MB

     Dynamical RAM for          rho,v,vnew:       2.64 MB

     Dynamical RAM for               rhoin:       0.88 MB

     Dynamical RAM for            rho*nmix:       6.16 MB

     Dynamical RAM for           G-vectors:       1.64 MB

     Dynamical RAM for          h,s,v(r/c):       4.31 MB

     Dynamical RAM for          <psi|beta>:      13.50 MB

     Dynamical RAM for                 psi:      73.97 MB

     Dynamical RAM for                hpsi:      73.97 MB

     Dynamical RAM for                spsi:      73.97 MB

     Dynamical RAM for      wfcinit/wfcrot:      95.98 MB

     Dynamical RAM for           addusdens:      96.31 MB

     Dynamical RAM for          addusforce:     145.30 MB

     Dynamical RAM for         addusstress:      77.44 MB

     Estimated static dynamical RAM per process >     287.30 MB

     Estimated max dynamical RAM per process >     533.19 MB

     Estimated total dynamical RAM >      15.62 GB

     Initial potential from superposition of free atoms

     starting charge    1279.9910, renormalised to    1280.0000

     negative rho (up, down):  9.855E-03 0.000E+00
     Starting wfcs are  832 randomized atomic wfcs
[psid01:209100] 29 more processes have sent help message help-mpi-btl-openib.txt / ib port not selected
[psid01:209100] Set MCA parameter "orte_base_help_aggregate" to 0 to see all help / error messages
[psid01:209100] 29 more processes have sent help message help-mpi-btl-openib.txt / error in device init

     total cpu time spent up to now is      161.8 secs

     Self-consistent Calculation

     iteration #  1     ecut=    50.00 Ry     beta= 0.70
     Davidson diagonalization with overlap

---- Real-time Memory Report at c_bands before calling an iterative solver
           386 MiB given to the printing process from OS
             0 MiB allocation reported by mallinfo(arena+hblkhd)
         53094 MiB available memory on the node where the printing process lives
------------------
     ethr =  1.00E-02,  avg # of iterations =  7.8

     Threshold (ethr) on eigenvalues was too large:
     Diagonalizing with lowered threshold

     Davidson diagonalization with overlap

---- Real-time Memory Report at c_bands before calling an iterative solver
           565 MiB given to the printing process from OS
             0 MiB allocation reported by mallinfo(arena+hblkhd)
         53035 MiB available memory on the node where the printing process lives
------------------
     ethr =  1.40E-04,  avg # of iterations =  6.6

     negative rho (up, down):  8.681E-03 0.000E+00

     total cpu time spent up to now is     1323.9 secs

     total energy              =  -29537.99492915 Ry
     estimated scf accuracy    <       1.81459730 Ry

     iteration #  2     ecut=    50.00 Ry     beta= 0.70
     Davidson diagonalization with overlap

---- Real-time Memory Report at c_bands before calling an iterative solver
           567 MiB given to the printing process from OS
             0 MiB allocation reported by mallinfo(arena+hblkhd)
         52984 MiB available memory on the node where the printing process lives
------------------
     ethr =  1.42E-04,  avg # of iterations =  5.8

     negative rho (up, down):  8.560E-03 0.000E+00

     total cpu time spent up to now is     2065.5 secs

     total energy              =  -29537.73509585 Ry
     estimated scf accuracy    <       4.77396210 Ry

     iteration #  3     ecut=    50.00 Ry     beta= 0.70
     Davidson diagonalization with overlap

---- Real-time Memory Report at c_bands before calling an iterative solver
           572 MiB given to the printing process from OS
             0 MiB allocation reported by mallinfo(arena+hblkhd)
         52894 MiB available memory on the node where the printing process lives
------------------
     ethr =  1.42E-04,  avg # of iterations = 10.8

     negative rho (up, down):  8.479E-03 0.000E+00

     total cpu time spent up to now is     2817.2 secs

     total energy              =  -29536.49383250 Ry
     estimated scf accuracy    <      56.12037200 Ry

     iteration #  4     ecut=    50.00 Ry     beta= 0.70
     Davidson diagonalization with overlap

---- Real-time Memory Report at c_bands before calling an iterative solver
           573 MiB given to the printing process from OS
             0 MiB allocation reported by mallinfo(arena+hblkhd)
         52875 MiB available memory on the node where the printing process lives
------------------
     ethr =  1.42E-04,  avg # of iterations =  9.2

     negative rho (up, down):  8.427E-03 0.000E+00

     total cpu time spent up to now is     3399.4 secs

     total energy              =  -29538.77272755 Ry
     estimated scf accuracy    <       0.24395738 Ry

     iteration #  5     ecut=    50.00 Ry     beta= 0.70
     Davidson diagonalization with overlap

---- Real-time Memory Report at c_bands before calling an iterative solver
           573 MiB given to the printing process from OS
             0 MiB allocation reported by mallinfo(arena+hblkhd)
         52851 MiB available memory on the node where the printing process lives
------------------
     c_bands:  1 eigenvalues not converged
     ethr =  1.91E-05,  avg # of iterations = 15.2

     negative rho (up, down):  8.220E-03 0.000E+00

     total cpu time spent up to now is     4025.8 secs

     total energy              =  -29538.75486582 Ry
     estimated scf accuracy    <       1.12055557 Ry

     iteration #  6     ecut=    50.00 Ry     beta= 0.70
     Davidson diagonalization with overlap

---- Real-time Memory Report at c_bands before calling an iterative solver
           574 MiB given to the printing process from OS
             0 MiB allocation reported by mallinfo(arena+hblkhd)
         52827 MiB available memory on the node where the printing process lives
------------------
     ethr =  1.91E-05,  avg # of iterations = 10.6

     negative rho (up, down):  8.228E-03 0.000E+00

     total cpu time spent up to now is     4595.4 secs

     total energy              =  -29538.84827494 Ry
     estimated scf accuracy    <       0.00609967 Ry

     iteration #  7     ecut=    50.00 Ry     beta= 0.70
     Davidson diagonalization with overlap

---- Real-time Memory Report at c_bands before calling an iterative solver
           575 MiB given to the printing process from OS
             0 MiB allocation reported by mallinfo(arena+hblkhd)
         52804 MiB available memory on the node where the printing process lives
------------------
     c_bands:  2 eigenvalues not converged
     ethr =  4.77E-07,  avg # of iterations =  9.2

     negative rho (up, down):  8.235E-03 0.000E+00

     total cpu time spent up to now is     5246.9 secs

     total energy              =  -29538.84958551 Ry
     estimated scf accuracy    <       0.00092305 Ry

     iteration #  8     ecut=    50.00 Ry     beta= 0.70
     Davidson diagonalization with overlap

---- Real-time Memory Report at c_bands before calling an iterative solver
           576 MiB given to the printing process from OS
             0 MiB allocation reported by mallinfo(arena+hblkhd)
         52775 MiB available memory on the node where the printing process lives
------------------
     ethr =  7.21E-08,  avg # of iterations =  3.0

     negative rho (up, down):  8.238E-03 0.000E+00

     total cpu time spent up to now is     5751.0 secs

     total energy              =  -29538.84972882 Ry
     estimated scf accuracy    <       0.00018081 Ry

     iteration #  9     ecut=    50.00 Ry     beta= 0.70
     Davidson diagonalization with overlap

---- Real-time Memory Report at c_bands before calling an iterative solver
           577 MiB given to the printing process from OS
             0 MiB allocation reported by mallinfo(arena+hblkhd)
         52752 MiB available memory on the node where the printing process lives
------------------
     ethr =  1.41E-08,  avg # of iterations =  2.0

     negative rho (up, down):  8.240E-03 0.000E+00

     total cpu time spent up to now is     6312.6 secs

     total energy              =  -29538.84974480 Ry
     estimated scf accuracy    <       0.00007312 Ry

     iteration # 10     ecut=    50.00 Ry     beta= 0.70
     Davidson diagonalization with overlap

---- Real-time Memory Report at c_bands before calling an iterative solver
           577 MiB given to the printing process from OS
             0 MiB allocation reported by mallinfo(arena+hblkhd)
         52725 MiB available memory on the node where the printing process lives
------------------
     ethr =  5.71E-09,  avg # of iterations =  2.2

     negative rho (up, down):  8.242E-03 0.000E+00

     total cpu time spent up to now is     6808.5 secs

     total energy              =  -29538.84975147 Ry
     estimated scf accuracy    <       0.00014133 Ry

     iteration # 11     ecut=    50.00 Ry     beta= 0.70
     Davidson diagonalization with overlap

---- Real-time Memory Report at c_bands before calling an iterative solver
           578 MiB given to the printing process from OS
             0 MiB allocation reported by mallinfo(arena+hblkhd)
         52703 MiB available memory on the node where the printing process lives
------------------
     ethr =  5.71E-09,  avg # of iterations =  2.0

     negative rho (up, down):  8.242E-03 0.000E+00

     total cpu time spent up to now is     7299.8 secs

     total energy              =  -29538.84976569 Ry
     estimated scf accuracy    <       0.00000875 Ry

     iteration # 12     ecut=    50.00 Ry     beta= 0.70
     Davidson diagonalization with overlap

---- Real-time Memory Report at c_bands before calling an iterative solver
           578 MiB given to the printing process from OS
             0 MiB allocation reported by mallinfo(arena+hblkhd)
         52701 MiB available memory on the node where the printing process lives
------------------
     ethr =  6.84E-10,  avg # of iterations =  2.0

     negative rho (up, down):  8.243E-03 0.000E+00

     total cpu time spent up to now is     7800.3 secs

     total energy              =  -29538.84976665 Ry
     estimated scf accuracy    <       0.00000782 Ry

     iteration # 13     ecut=    50.00 Ry     beta= 0.70
     Davidson diagonalization with overlap

---- Real-time Memory Report at c_bands before calling an iterative solver
           578 MiB given to the printing process from OS
             0 MiB allocation reported by mallinfo(arena+hblkhd)
         52699 MiB available memory on the node where the printing process lives
------------------
     ethr =  6.11E-10,  avg # of iterations =  2.0

     negative rho (up, down):  8.243E-03 0.000E+00

     total cpu time spent up to now is     8291.2 secs

     total energy              =  -29538.84976748 Ry
     estimated scf accuracy    <       0.00000170 Ry

     iteration # 14     ecut=    50.00 Ry     beta= 0.70
     Davidson diagonalization with overlap

---- Real-time Memory Report at c_bands before calling an iterative solver
           578 MiB given to the printing process from OS
             0 MiB allocation reported by mallinfo(arena+hblkhd)
         52696 MiB available memory on the node where the printing process lives
------------------
     ethr =  1.33E-10,  avg # of iterations =  1.8

     negative rho (up, down):  8.243E-03 0.000E+00

     total cpu time spent up to now is     8762.6 secs

     total energy              =  -29538.84976751 Ry
     estimated scf accuracy    <       0.00000440 Ry

     iteration # 15     ecut=    50.00 Ry     beta= 0.70
     Davidson diagonalization with overlap

---- Real-time Memory Report at c_bands before calling an iterative solver
           578 MiB given to the printing process from OS
             0 MiB allocation reported by mallinfo(arena+hblkhd)
         52694 MiB available memory on the node where the printing process lives
------------------
     ethr =  1.33E-10,  avg # of iterations =  1.0

     negative rho (up, down):  8.244E-03 0.000E+00

     total cpu time spent up to now is     9160.5 secs

     End of self-consistent calculation

          k = 0.0000 0.0000 0.0000 ( 94725 PWs)   bands (ev):

  -123.4463-123.4460-123.4454-123.4454-123.4451-123.4451-123.4445-123.4442
  -123.3827-123.3818-123.3817-123.3816-123.3808-123.3807-123.3807-123.3798
  -123.3724-123.3721-123.3715-123.3715-123.3713-123.3712-123.3706-123.3704
  -123.2601-123.2600-123.2592-123.2591-123.2591-123.2590-123.2582-123.2581
  -123.2518-123.2518-123.2509-123.2509-123.2509-123.2508-123.2500-123.2499
  -123.2144-123.2141-123.2135-123.2135-123.2132-123.2132-123.2126-123.2123
  -123.1669-123.1660-123.1660-123.1659-123.1650-123.1649-123.1648-123.1639
  -123.0973-123.0964-123.0964-123.0957-123.0955-123.0948-123.0947-123.0938
   -77.6050 -77.6046 -77.6035 -77.6032 -77.6021 -77.6021 -77.6018 -77.6018
   -77.6007 -77.6004 -77.5950 -77.5945 -77.5939 -77.5938 -77.5935 -77.5935
   -77.5928 -77.5926 -77.5926 -77.5925 -77.5923 -77.5923 -77.5801 -77.5798
   -77.5399 -77.5388 -77.5377 -77.5369 -77.5368 -77.5367 -77.5361 -77.5358
   -77.5358 -77.5351 -77.5316 -77.5313 -77.5310 -77.5304 -77.5304 -77.5302
   -77.5302 -77.5298 -77.5298 -77.5297 -77.5293 -77.5290 -77.5288 -77.5287
   -77.5287 -77.5280 -77.5279 -77.5279 -77.5278 -77.5276 -77.5269 -77.5268
   -77.5260 -77.5256 -77.5250 -77.5250 -77.5248 -77.5247 -77.5241 -77.5239
   -77.5158 -77.5158 -77.5158 -77.5156 -77.5155 -77.5147 -77.5035 -77.5033
   -77.4192 -77.4192 -77.4190 -77.4187 -77.4181 -77.4181 -77.4179 -77.4179
   -77.4172 -77.4170 -77.4105 -77.4103 -77.4096 -77.4096 -77.4091 -77.4087
   -77.4087 -77.4086 -77.4086 -77.4086 -77.4078 -77.4078 -77.4077 -77.4077
   -77.4077 -77.4076 -77.4071 -77.4071 -77.4070 -77.4069 -77.4068 -77.4065
   -77.4031 -77.4031 -77.4023 -77.4022 -77.4022 -77.4022 -77.4014 -77.4013
   -77.3984 -77.3983 -77.3983 -77.3983 -77.3949 -77.3948 -77.3896 -77.3893
   -77.3888 -77.3888 -77.3885 -77.3885 -77.3880 -77.3877 -77.3862 -77.3861
   -77.3658 -77.3654 -77.3579 -77.3573 -77.3569 -77.3568 -77.3565 -77.3565
   -77.3560 -77.3557 -77.3538 -77.3538 -77.3535 -77.3535 -77.3417 -77.3414
   -77.3300 -77.3291 -77.3290 -77.3290 -77.3281 -77.3280 -77.3280 -77.3270
   -77.3245 -77.3234 -77.3146 -77.3131 -77.3131 -77.3129 -77.3124 -77.3123
   -77.3120 -77.3119 -77.3118 -77.3112 -77.3112 -77.3107 -77.3000 -77.2989
   -77.2576 -77.2567 -77.2566 -77.2561 -77.2557 -77.2551 -77.2551 -77.2541
   -77.2533 -77.2524 -77.2523 -77.2516 -77.2513 -77.2507 -77.2506 -77.2506
   -77.2499 -77.2489 -77.2386 -77.2386 -77.2369 -77.2369 -77.2265 -77.2248
    -6.7830  -5.8719  -5.7006  -5.5024  -5.5024  -5.4076  -5.2363  -5.1601
    -5.1571  -5.0903  -5.0818  -5.0623  -5.0570  -5.0552  -5.0500  -5.0458
    -5.0388  -4.9881  -4.9876  -4.9876  -4.9832  -4.9318  -4.9317  -4.9270
    -4.8988  -4.8916  -4.8879  -4.8879  -4.8848  -4.8793  -4.8571  -4.8571
    -4.8562  -4.8547  -4.8439  -4.8363  -4.8360  -4.8359  -4.8309  -4.8210
    -4.8177  -4.8117  -4.8116  -4.7937  -4.7855  -4.7855  -4.7718  -4.7718
    -4.7600  -4.7513  -4.7313  -4.7283  -4.7243  -4.7127  -4.7127  -4.7028
    -4.7028  -4.6857  -4.6834  -4.6665  -4.6665  -4.6640  -4.6640  -4.6265
    -4.6265  -4.6246  -4.6245  -4.6225  -4.6202  -4.6201  -4.6163  -4.6129
    -4.6100  -4.6100  -4.6000  -4.5941  -4.5912  -4.5903  -4.5903  -4.5829
    -4.5828  -4.5746  -4.5743  -4.5742  -4.5677  -4.5639  -4.5321  -4.5212
    -4.5158  -4.5157  -4.5040  -4.5021  -4.4960  -4.4960  -4.4887  -4.4792
    -4.4615  -4.4605  -4.4605  -4.4527  -4.4407  -4.4407  -4.4380  -4.4380
    -4.4361  -4.4251  -4.4144  -4.4144  -4.4140  -4.4140  -4.4046  -4.4035
    -4.4034  -4.3818  -4.3711  -4.3711  -4.3667  -4.3667  -4.3626  -4.3613
    -4.3613  -4.3523  -4.3509  -4.3509  -4.3427  -4.3386  -4.3380  -4.3350
    -4.3317  -4.3317  -4.3300  -4.3236  -4.3236  -4.3189  -4.3006  -4.2998
    -4.2998  -4.2960  -4.2919  -4.2884  -4.2884  -4.2843  -4.2843  -4.2792
    -4.2792  -4.2631  -4.2567  -4.2490  -4.2490  -4.2456  -4.2455  -4.2392
    -4.2383  -4.2322  -4.2291  -4.2189  -4.2159  -4.2159  -4.2063  -4.2063
    -4.2026  -4.1910  -4.1893  -4.1796  -4.1796  -4.1795  -4.1775  -4.1775
    -4.1590  -4.1564  -4.1564  -4.1540  -4.1493  -4.1433  -4.1432  -4.1386
    -4.1385  -4.1369  -4.1365  -4.1337  -4.1320  -4.1245  -4.1244  -4.1165
    -4.1165  -4.1144  -4.1143  -4.0868  -4.0868  -4.0843  -4.0765  -4.0757
    -4.0691  -4.0690  -4.0640  -4.0550  -4.0550  -4.0547  -4.0547  -4.0502
    -4.0498  -4.0498  -4.0467  -4.0270  -4.0228  -4.0204  -4.0111  -4.0111
    -4.0109  -4.0090  -4.0090  -4.0057  -4.0057  -4.0034  -4.0030  -4.0019
    -3.9997  -3.9948  -3.9922  -3.9922  -3.9901  -3.9841  -3.9840  -3.9777
    -3.9738  -3.9738  -3.9702  -3.9702  -3.9644  -3.9617  -3.9582  -3.9577
    -3.9516  -3.9478  -3.9423  -3.9423  -3.9417  -3.9365  -3.9364  -3.9338
    -3.9338  -3.9288  -3.9206  -3.9206  -3.9020  -3.9020  -3.8920  -3.8898
    -3.8898  -3.8874  -3.8857  -3.8856  -3.8825  -3.8806  -3.8790  -3.8767
    -3.8743  -3.8687  -3.8687  -3.8663  -3.8605  -3.8605  -3.8520  -3.8513
    -3.8461  -3.8340  -3.8326  -3.8309  -3.8309  -3.8279  -3.8236  -3.8191
    -3.8018  -3.8000  -3.8000  -3.7999  -3.7951  -3.7951  -3.7894  -3.7893
    -3.7810  -3.7780  -3.7780  -3.7777  -3.7753  -3.7686  -3.7686  -3.7645
    -3.7644  -3.7634  -3.7611  -3.7611  -3.7600  -3.7568  -3.7475  -3.7314
    -3.7082  -3.7079  -3.7079  -3.7064  -3.7023  -3.6967  -3.6941  -3.6941
    -3.6931  -3.6912  -3.6899  -3.6850  -3.6842  -3.6842  -3.6766  -3.6679
    -3.6565  -3.6542  -3.6525  -3.6491  -3.6398  -3.6363  -3.6129  -3.6066
    -3.6001  -3.5818  -3.5733  -3.4824  -3.4807  -3.4806  -3.4619  -3.4235
    -3.4081  -3.3763  -3.3109  -3.0367  -3.0366  -2.8730  -2.8729  -2.1844
    -2.1844  -2.0957  -2.0956  -2.0828  -2.0828  -2.0093  -1.9142  -1.2248
    -0.5819  -0.5818  -0.5289  -0.5288  -0.3957  -0.3927  -0.0129  -0.0129
     0.1613   0.2218   0.3061   0.3908   0.6254   0.7667   0.7960   0.8926
     0.9415   1.1359   1.2231   1.3405   1.4325   1.4326   1.5202   1.6690
     1.6811   1.6811   1.7168   1.7168   1.7273   1.8284   1.8317   2.0584
     2.1347   2.1348   2.2468   2.5063   2.5064   2.6533   2.6741   2.6742
     2.6977   2.9374   2.9459   3.1465   3.1466   3.7357   3.7689   4.0877
     4.1318   4.1469   4.1470   4.1766   4.2346   4.3070   4.3070   4.3146
     4.3482   4.3482   4.6720   4.6721   4.8077   5.0991   5.1972   5.1973
     5.2762   5.5048   5.6960   5.7645   5.8222   6.0226   6.0431   6.0548
     6.1339   6.2497   6.2498   6.3790   6.4424   6.4633   6.4634   6.6973
     6.6974   6.7018   6.8082   6.9033   6.9035   6.9039   7.0101   7.1025
     7.1281   7.3196   7.3196   7.3326   7.3430   7.4895   7.4897   7.7718
     7.7776   7.7777   7.8199   8.1266   8.1553   8.1598   8.1601   8.2750
     8.2751   8.3765   8.4554   8.4557   8.4870   8.5084   8.5085   8.5379
     8.5998   8.6544   8.6946   8.6995   8.7269   8.7653   8.8233   8.8276
     8.8650   8.9076   8.9538   8.9539   9.0667   9.0668   9.1299   9.1321
     9.1323   9.3309   9.3309   9.3701   9.3754   9.3756   9.4323   9.4424
     9.4425   9.5518   9.5601   9.5679   9.6667   9.7610   9.7614   9.7773
     9.7777   9.7905   9.7909   9.9152   9.9153   9.9691   9.9691  10.2456
    10.2498  10.3694  10.4266  10.4269  10.4792  10.4793  10.5924  10.6241
    10.6287  10.6409  10.6409  10.7603  10.7675  10.7808  10.8673  10.8674

     occupation numbers 
     1.0000   1.0000   1.0000   1.0000   1.0000   1.0000   1.0000   1.0000
     1.0000   1.0000   1.0000   1.0000   1.0000   1.0000   1.0000   1.0000
     1.0000   1.0000   1.0000   1.0000   1.0000   1.0000   1.0000   1.0000
     1.0000   1.0000   1.0000   1.0000   1.0000   1.0000   1.0000   1.0000
     1.0000   1.0000   1.0000   1.0000   1.0000   1.0000   1.0000   1.0000
     1.0000   1.0000   1.0000   1.0000   1.0000   1.0000   1.0000   1.0000
     1.0000   1.0000   1.0000   1.0000   1.0000   1.0000   1.0000   1.0000
     1.0000   1.0000   1.0000   1.0000   1.0000   1.0000   1.0000   1.0000
     1.0000   1.0000   1.0000   1.0000   1.0000   1.0000   1.0000   1.0000
     1.0000   1.0000   1.0000   1.0000   1.0000   1.0000   1.0000   1.0000
     1.0000   1.0000   1.0000   1.0000   1.0000   1.0000   1.0000   1.0000
     1.0000   1.0000   1.0000   1.0000   1.0000   1.0000   1.0000   1.0000
     1.0000   1.0000   1.0000   1.0000   1.0000   1.0000   1.0000   1.0000
     1.0000   1.0000   1.0000   1.0000   1.0000   1.0000   1.0000   1.0000
     1.0000   1.0000   1.0000   1.0000   1.0000   1.0000   1.0000   1.0000
     1.0000   1.0000   1.0000   1.0000   1.0000   1.0000   1.0000   1.0000
     1.0000   1.0000   1.0000   1.0000   1.0000   1.0000   1.0000   1.0000
     1.0000   1.0000   1.0000   1.0000   1.0000   1.0000   1.0000   1.0000
     1.0000   1.0000   1.0000   1.0000   1.0000   1.0000   1.0000   1.0000
     1.0000   1.0000   1.0000   1.0000   1.0000   1.0000   1.0000   1.0000
     1.0000   1.0000   1.0000   1.0000   1.0000   1.0000   1.0000   1.0000
     1.0000   1.0000   1.0000   1.0000   1.0000   1.0000   1.0000   1.0000
     1.0000   1.0000   1.0000   1.0000   1.0000   1.0000   1.0000   1.0000
     1.0000   1.0000   1.0000   1.0000   1.0000   1.0000   1.0000   1.0000
     1.0000   1.0000   1.0000   1.0000   1.0000   1.0000   1.0000   1.0000
     1.0000   1.0000   1.0000   1.0000   1.0000   1.0000   1.0000   1.0000
     1.0000   1.0000   1.0000   1.0000   1.0000   1.0000   1.0000   1.0000
     1.0000   1.0000   1.0000   1.0000   1.0000   1.0000   1.0000   1.0000
     1.0000   1.0000   1.0000   1.0000   1.0000   1.0000   1.0000   1.0000
     1.0000   1.0000   1.0000   1.0000   1.0000   1.0000   1.0000   1.0000
     1.0000   1.0000   1.0000   1.0000   1.0000   1.0000   1.0000   1.0000
     1.0000   1.0000   1.0000   1.0000   1.0000   1.0000   1.0000   1.0000
     1.0000   1.0000   1.0000   1.0000   1.0000   1.0000   1.0000   1.0000
     1.0000   1.0000   1.0000   1.0000   1.0000   1.0000   1.0000   1.0000
     1.0000   1.0000   1.0000   1.0000   1.0000   1.0000   1.0000   1.0000
     1.0000   1.0000   1.0000   1.0000   1.0000   1.0000   1.0000   1.0000
     1.0000   1.0000   1.0000   1.0000   1.0000   1.0000   1.0000   1.0000
     1.0000   1.0000   1.0000   1.0000   1.0000   1.0000   1.0000   1.0000
     1.0000   1.0000   1.0000   1.0000   1.0000   1.0000   1.0000   1.0000
     1.0000   1.0000   1.0000   1.0000   1.0000   1.0000   1.0000   1.0000
     1.0000   1.0000   1.0000   1.0000   1.0000   1.0000   1.0000   1.0000
     1.0000   1.0000   1.0000   1.0000   1.0000   1.0000   1.0000   1.0000
     1.0000   1.0000   1.0000   1.0000   1.0000   1.0000   1.0000   1.0000
     1.0000   1.0000   1.0000   1.0000   1.0000   1.0000   1.0000   1.0000
     1.0000   1.0000   1.0000   1.0000   1.0000   1.0000   1.0000   1.0000
     1.0000   1.0000   1.0000   1.0000   1.0000   1.0000   1.0000   1.0000
     1.0000   1.0000   1.0000   1.0000   1.0000   1.0000   1.0000   1.0000
     1.0000   1.0000   1.0000   1.0000   1.0000   1.0000   1.0000   1.0000
     1.0000   1.0000   1.0000   1.0000   1.0000   1.0000   1.0000   1.0000
     1.0000   1.0000   1.0000   1.0000   1.0000   1.0000   1.0000   1.0000
     1.0000   1.0000   1.0000   1.0000   1.0000   1.0000   1.0000   1.0000
     1.0000   1.0000   1.0000   1.0000   1.0000   1.0000   1.0000   1.0000
     1.0000   1.0000   1.0000   1.0000   1.0000   1.0000   1.0000   1.0000
     1.0000   1.0000   1.0000   1.0000   1.0000   1.0000   1.0000   1.0000
     1.0000   1.0000   1.0000   1.0000   1.0000   1.0000   1.0000   1.0000
     1.0000   1.0000   1.0000   1.0000   1.0000   1.0000   1.0000   1.0000
     1.0000   1.0000   1.0000   1.0000   1.0000   1.0000   1.0000   1.0000
     1.0000   1.0000   1.0000   1.0000   1.0000   1.0000   1.0000   1.0000
     1.0000   1.0000   1.0000   1.0000   1.0000   1.0000   1.0000   1.0000
     1.0000   1.0000   1.0000   1.0000   1.0000   1.0000   1.0000   1.0000
     1.0000   1.0000   1.0000   1.0000   1.0000   1.0000   1.0000   1.0000
     1.0000   1.0000   1.0000   1.0000   1.0000   1.0000   1.0000   1.0000
     1.0000   1.0000   1.0000   1.0000   1.0000   1.0000   1.0000   1.0000
     1.0000   1.0000   1.0000   1.0000   1.0000   1.0000   1.0000   1.0000
     1.0000   1.0000   1.0000   1.0000   1.0000   1.0000   1.0000   1.0000
     1.0000   1.0000   1.0000   1.0000   1.0000   1.0000   1.0000   1.0000
     1.0000   1.0000   1.0000   1.0000   1.0000   1.0000   1.0000   1.0000
     1.0000   1.0000   1.0000   1.0000   1.0000   1.0000   1.0000   1.0000
     1.0000   1.0000   1.0000   1.0000   1.0000   1.0000   1.0000   1.0000
     1.0000   1.0000   1.0000   1.0000   1.0000   1.0000   1.0000   1.0000
     1.0000   1.0000   1.0000   1.0000   1.0000   1.0000   1.0000   1.0000
     1.0000   1.0000   1.0000   1.0000   1.0000   1.0000   1.0000   1.0000
     1.0000   1.0000   1.0000   1.0000   1.0000   1.0000   1.0000   1.0000
     1.0000   1.0000   1.0000   1.0000   1.0000   1.0000   1.0000   1.0000
     1.0000   1.0000   1.0000   1.0000   1.0000   1.0000   1.0000   1.0000
     1.0000   1.0000   1.0000   1.0000   1.0000   1.0000   1.0000   1.0000
     1.0000   1.0000   1.0000   1.0000   1.0000   1.0000   1.0000   1.0000
     1.0000   1.0000   1.0000   1.0000   1.0000   1.0000   1.0000   1.0000
     1.0000   1.0000   1.0000   1.0000   1.0000   1.0000   1.0000   1.0000
     1.0001   1.0001   1.0011   1.0324   1.0324   1.0785   1.0820   1.0820
     1.0833   0.7825   0.7608   0.2496   0.2495   0.0000   0.0000   0.0000
     0.0000   0.0000   0.0000   0.0000   0.0000   0.0000   0.0000   0.0000
     0.0000   0.0000   0.0000   0.0000   0.0000   0.0000   0.0000   0.0000
     0.0000   0.0000   0.0000   0.0000   0.0000   0.0000   0.0000   0.0000
     0.0000   0.0000   0.0000   0.0000   0.0000   0.0000   0.0000   0.0000
     0.0000   0.0000   0.0000   0.0000   0.0000   0.0000   0.0000   0.0000
     0.0000   0.0000   0.0000   0.0000   0.0000   0.0000   0.0000   0.0000
     0.0000   0.0000   0.0000   0.0000   0.0000   0.0000   0.0000   0.0000
     0.0000   0.0000   0.0000   0.0000   0.0000   0.0000   0.0000   0.0000
     0.0000   0.0000   0.0000   0.0000   0.0000   0.0000   0.0000   0.0000
     0.0000   0.0000   0.0000   0.0000   0.0000   0.0000   0.0000   0.0000
     0.0000   0.0000   0.0000   0.0000   0.0000   0.0000   0.0000   0.0000
     0.0000   0.0000   0.0000   0.0000   0.0000   0.0000   0.0000   0.0000
     0.0000   0.0000   0.0000   0.0000   0.0000   0.0000   0.0000   0.0000
     0.0000   0.0000   0.0000   0.0000   0.0000   0.0000   0.0000   0.0000
     0.0000   0.0000   0.0000   0.0000   0.0000   0.0000   0.0000   0.0000

          k = 0.0000 0.3107 0.1794 ( 94659 PWs)   bands (ev):

  -123.4462-123.4459-123.4458-123.4455-123.4450-123.4447-123.4446-123.4443
  -123.3826-123.3822-123.3815-123.3814-123.3811-123.3809-123.3803-123.3799
  -123.3723-123.3720-123.3720-123.3717-123.3711-123.3708-123.3707-123.3705
  -123.2599-123.2599-123.2596-123.2595-123.2587-123.2587-123.2583-123.2582
  -123.2517-123.2516-123.2513-123.2513-123.2505-123.2504-123.2501-123.2501
  -123.2143-123.2140-123.2139-123.2136-123.2131-123.2128-123.2127-123.2124
  -123.1668-123.1664-123.1658-123.1656-123.1653-123.1651-123.1645-123.1640
  -123.0972-123.0968-123.0960-123.0956-123.0956-123.0952-123.0944-123.0939
   -77.6033 -77.6033 -77.6030 -77.6030 -77.6028 -77.6025 -77.6014 -77.6011
   -77.6009 -77.6006 -77.5988 -77.5985 -77.5948 -77.5944 -77.5944 -77.5940
   -77.5933 -77.5930 -77.5929 -77.5926 -77.5864 -77.5861 -77.5818 -77.5815
   -77.5383 -77.5376 -77.5373 -77.5372 -77.5366 -77.5366 -77.5362 -77.5361
   -77.5355 -77.5351 -77.5339 -77.5329 -77.5314 -77.5312 -77.5310 -77.5308
   -77.5307 -77.5303 -77.5299 -77.5297 -77.5296 -77.5294 -77.5293 -77.5292
   -77.5291 -77.5288 -77.5282 -77.5278 -77.5264 -77.5261 -77.5259 -77.5255
   -77.5255 -77.5252 -77.5246 -77.5243 -77.5243 -77.5240 -77.5220 -77.5219
   -77.5217 -77.5208 -77.5174 -77.5163 -77.5097 -77.5094 -77.5052 -77.5049
   -77.4191 -77.4187 -77.4186 -77.4183 -77.4176 -77.4176 -77.4176 -77.4174
   -77.4173 -77.4171 -77.4132 -77.4130 -77.4095 -77.4095 -77.4091 -77.4090
   -77.4089 -77.4088 -77.4087 -77.4086 -77.4084 -77.4082 -77.4082 -77.4082
   -77.4078 -77.4077 -77.4073 -77.4072 -77.4069 -77.4067 -77.4044 -77.4043
   -77.4030 -77.4029 -77.4027 -77.4026 -77.4018 -77.4018 -77.4015 -77.4014
   -77.4010 -77.4009 -77.3966 -77.3964 -77.3923 -77.3922 -77.3896 -77.3892
   -77.3891 -77.3888 -77.3885 -77.3881 -77.3881 -77.3878 -77.3878 -77.3877
   -77.3642 -77.3638 -77.3598 -77.3595 -77.3578 -77.3573 -77.3573 -77.3569
   -77.3565 -77.3561 -77.3561 -77.3558 -77.3478 -77.3474 -77.3433 -77.3430
   -77.3299 -77.3295 -77.3289 -77.3286 -77.3284 -77.3282 -77.3276 -77.3271
   -77.3229 -77.3218 -77.3184 -77.3173 -77.3144 -77.3138 -77.3129 -77.3125
   -77.3124 -77.3120 -77.3114 -77.3108 -77.3062 -77.3051 -77.3017 -77.3006
   -77.2575 -77.2571 -77.2562 -77.2560 -77.2558 -77.2555 -77.2547 -77.2542
   -77.2532 -77.2528 -77.2520 -77.2517 -77.2513 -77.2509 -77.2503 -77.2499
   -77.2490 -77.2473 -77.2446 -77.2430 -77.2325 -77.2309 -77.2281 -77.2265
    -6.6241  -6.1647  -5.7216  -5.5707  -5.3123  -5.2866  -5.2417  -5.1591
    -5.0853  -5.0816  -5.0646  -5.0552  -5.0385  -5.0269  -5.0187  -5.0081
    -4.9954  -4.9852  -4.9829  -4.9826  -4.9737  -4.9699  -4.9692  -4.9687
    -4.9572  -4.9422  -4.9228  -4.9220  -4.9085  -4.8862  -4.8680  -4.8592
    -4.8584  -4.8500  -4.8494  -4.8458  -4.8434  -4.8416  -4.8197  -4.8165
    -4.8152  -4.8112  -4.8071  -4.8015  -4.7907  -4.7855  -4.7758  -4.7705
    -4.7566  -4.7552  -4.7518  -4.7518  -4.7517  -4.7407  -4.7266  -4.7201
    -4.7117  -4.7050  -4.7030  -4.6977  -4.6924  -4.6920  -4.6880  -4.6747
    -4.6647  -4.6557  -4.6518  -4.6516  -4.6470  -4.6404  -4.6400  -4.6324
    -4.6160  -4.6053  -4.5985  -4.5842  -4.5808  -4.5767  -4.5741  -4.5739
    -4.5698  -4.5637  -4.5509  -4.5497  -4.5472  -4.5466  -4.5417  -4.5401
    -4.5355  -4.5333  -4.5312  -4.5288  -4.5204  -4.5148  -4.5015  -4.5006
    -4.4992  -4.4951  -4.4890  -4.4780  -4.4630  -4.4551  -4.4511  -4.4408
    -4.4389  -4.4354  -4.4277  -4.4258  -4.4128  -4.4090  -4.4043  -4.4010
    -4.3997  -4.3970  -4.3865  -4.3826  -4.3792  -4.3659  -4.3613  -4.3568
    -4.3504  -4.3470  -4.3461  -4.3440  -4.3424  -4.3414  -4.3412  -4.3399
    -4.3356  -4.3334  -4.3304  -4.3170  -4.3155  -4.3153  -4.3057  -4.2973
    -4.2941  -4.2919  -4.2915  -4.2831  -4.2808  -4.2799  -4.2792  -4.2728
    -4.2724  -4.2717  -4.2651  -4.2630  -4.2551  -4.2456  -4.2456  -4.2450
    -4.2429  -4.2419  -4.2360  -4.2309  -4.2270  -4.2257  -4.2253  -4.2253
    -4.2245  -4.2240  -4.2238  -4.2191  -4.2043  -4.1861  -4.1841  -4.1835
    -4.1813  -4.1726  -4.1699  -4.1661  -4.1590  -4.1498  -4.1426  -4.1414
    -4.1406  -4.1286  -4.1263  -4.1236  -4.1146  -4.1101  -4.1100  -4.1047
    -4.1034  -4.0996  -4.0840  -4.0816  -4.0798  -4.0784  -4.0751  -4.0750
    -4.0683  -4.0648  -4.0636  -4.0627  -4.0583  -4.0580  -4.0578  -4.0572
    -4.0528  -4.0527  -4.0522  -4.0472  -4.0418  -4.0403  -4.0359  -4.0293
    -4.0273  -4.0143  -4.0087  -4.0060  -4.0054  -4.0049  -3.9987  -3.9986
    -3.9912  -3.9825  -3.9809  -3.9677  -3.9672  -3.9668  -3.9636  -3.9562
    -3.9555  -3.9498  -3.9483  -3.9473  -3.9458  -3.9356  -3.9345  -3.9272
    -3.9237  -3.9234  -3.9200  -3.9198  -3.9060  -3.9021  -3.8976  -3.8944
    -3.8937  -3.8907  -3.8903  -3.8880  -3.8786  -3.8722  -3.8718  -3.8717
    -3.8669  -3.8658  -3.8647  -3.8642  -3.8571  -3.8553  -3.8549  -3.8526
    -3.8524  -3.8478  -3.8337  -3.8305  -3.8298  -3.8264  -3.8177  -3.8137
    -3.8122  -3.8111  -3.8093  -3.8091  -3.8059  -3.8042  -3.8016  -3.7985
    -3.7940  -3.7920  -3.7907  -3.7766  -3.7753  -3.7739  -3.7737  -3.7720
    -3.7713  -3.7658  -3.7656  -3.7655  -3.7648  -3.7646  -3.7606  -3.7584
    -3.7580  -3.7512  -3.7499  -3.7489  -3.7487  -3.7430  -3.7407  -3.7384
    -3.7340  -3.7334  -3.7290  -3.7287  -3.7275  -3.7204  -3.7175  -3.7158
    -3.7021  -3.7015  -3.7002  -3.6975  -3.6955  -3.6951  -3.6873  -3.6828
    -3.6795  -3.6640  -3.6634  -3.6626  -3.6625  -3.6620  -3.6506  -3.6310
    -3.6226  -3.6125  -3.6099  -3.5516  -3.5117  -3.4776  -3.4652  -3.3963
    -3.3827  -3.2426  -3.2014  -3.1373  -2.8420  -2.7810  -2.7334  -2.6585
    -2.1585  -2.1236  -1.9154  -1.8324  -1.7485  -1.3440  -1.2796  -1.2615
    -1.1801  -1.0898  -1.0803  -1.0637  -0.8058  -0.6891  -0.5283   0.1621
     0.2988   0.3047   0.3081   0.4559   0.4635   0.4677   0.5105   0.7299
     0.8637   0.9357   0.9726   1.1329   1.1359   1.1653   1.5610   1.6345
     1.6737   1.6800   1.6938   1.7507   1.9914   2.1862   2.2133   2.3948
     2.5727   2.6484   2.6574   2.7863   2.8526   2.8853   2.9272   3.0744
     3.1515   3.4065   3.4160   3.4318   3.4333   3.4804   3.7444   3.7502
     3.7802   3.9011   3.9289   4.1159   4.3689   4.3851   4.3945   4.5679
     4.6092   4.6512   4.7140   4.9118   5.0006   5.1541   5.2431   5.2997
     5.4367   5.4383   5.5234   5.5616   5.5644   5.6703   5.7571   5.8523
     5.8811   5.9190   5.9650   6.0002   6.0268   6.1683   6.2896   6.3122
     6.3221   6.5259   6.6056   6.7293   6.7358   6.7371   6.8239   6.8664
     6.8787   7.0191   7.1550   7.2740   7.4330   7.4577   7.6532   7.6817
     7.6938   7.7324   7.7609   7.8085   7.9655   8.0015   8.0242   8.0512
     8.0872   8.1645   8.2849   8.3714   8.4166   8.4193   8.4319   8.4572
     8.4826   8.5070   8.5076   8.6998   8.7055   8.8135   8.8191   8.8448
     8.9897   9.0954   9.1195   9.1196   9.1587   9.1897   9.2170   9.2693
     9.2868   9.4284   9.4360   9.4703   9.4836   9.5530   9.6033   9.6249
     9.6277   9.6954   9.7503   9.8356   9.9052   9.9184   9.9379   9.9707
    10.0102  10.0183  10.0708  10.1217  10.1487  10.1604  10.2197  10.2319
    10.3092  10.3859  10.4593  10.4777  10.6180  10.6226  10.6316  10.6606
    10.7205  10.7978  10.8106  10.8141  10.8204  10.8348  10.8368  10.8692

     occupation numbers 
     1.0000   1.0000   1.0000   1.0000   1.0000   1.0000   1.0000   1.0000
     1.0000   1.0000   1.0000   1.0000   1.0000   1.0000   1.0000   1.0000
     1.0000   1.0000   1.0000   1.0000   1.0000   1.0000   1.0000   1.0000
     1.0000   1.0000   1.0000   1.0000   1.0000   1.0000   1.0000   1.0000
     1.0000   1.0000   1.0000   1.0000   1.0000   1.0000   1.0000   1.0000
     1.0000   1.0000   1.0000   1.0000   1.0000   1.0000   1.0000   1.0000
     1.0000   1.0000   1.0000   1.0000   1.0000   1.0000   1.0000   1.0000
     1.0000   1.0000   1.0000   1.0000   1.0000   1.0000   1.0000   1.0000
     1.0000   1.0000   1.0000   1.0000   1.0000   1.0000   1.0000   1.0000
     1.0000   1.0000   1.0000   1.0000   1.0000   1.0000   1.0000   1.0000
     1.0000   1.0000   1.0000   1.0000   1.0000   1.0000   1.0000   1.0000
     1.0000   1.0000   1.0000   1.0000   1.0000   1.0000   1.0000   1.0000
     1.0000   1.0000   1.0000   1.0000   1.0000   1.0000   1.0000   1.0000
     1.0000   1.0000   1.0000   1.0000   1.0000   1.0000   1.0000   1.0000
     1.0000   1.0000   1.0000   1.0000   1.0000   1.0000   1.0000   1.0000
     1.0000   1.0000   1.0000   1.0000   1.0000   1.0000   1.0000   1.0000
     1.0000   1.0000   1.0000   1.0000   1.0000   1.0000   1.0000   1.0000
     1.0000   1.0000   1.0000   1.0000   1.0000   1.0000   1.0000   1.0000
     1.0000   1.0000   1.0000   1.0000   1.0000   1.0000   1.0000   1.0000
     1.0000   1.0000   1.0000   1.0000   1.0000   1.0000   1.0000   1.0000
     1.0000   1.0000   1.0000   1.0000   1.0000   1.0000   1.0000   1.0000
     1.0000   1.0000   1.0000   1.0000   1.0000   1.0000   1.0000   1.0000
     1.0000   1.0000   1.0000   1.0000   1.0000   1.0000   1.0000   1.0000
     1.0000   1.0000   1.0000   1.0000   1.0000   1.0000   1.0000   1.0000
     1.0000   1.0000   1.0000   1.0000   1.0000   1.0000   1.0000   1.0000
     1.0000   1.0000   1.0000   1.0000   1.0000   1.0000   1.0000   1.0000
     1.0000   1.0000   1.0000   1.0000   1.0000   1.0000   1.0000   1.0000
     1.0000   1.0000   1.0000   1.0000   1.0000   1.0000   1.0000   1.0000
     1.0000   1.0000   1.0000   1.0000   1.0000   1.0000   1.0000   1.0000
     1.0000   1.0000   1.0000   1.0000   1.0000   1.0000   1.0000   1.0000
     1.0000   1.0000   1.0000   1.0000   1.0000   1.0000   1.0000   1.0000
     1.0000   1.0000   1.0000   1.0000   1.0000   1.0000   1.0000   1.0000
     1.0000   1.0000   1.0000   1.0000   1.0000   1.0000   1.0000   1.0000
     1.0000   1.0000   1.0000   1.0000   1.0000   1.0000   1.0000   1.0000
     1.0000   1.0000   1.0000   1.0000   1.0000   1.0000   1.0000   1.0000
     1.0000   1.0000   1.0000   1.0000   1.0000   1.0000   1.0000   1.0000
     1.0000   1.0000   1.0000   1.0000   1.0000   1.0000   1.0000   1.0000
     1.0000   1.0000   1.0000   1.0000   1.0000   1.0000   1.0000   1.0000
     1.0000   1.0000   1.0000   1.0000   1.0000   1.0000   1.0000   1.0000
     1.0000   1.0000   1.0000   1.0000   1.0000   1.0000   1.0000   1.0000
     1.0000   1.0000   1.0000   1.0000   1.0000   1.0000   1.0000   1.0000
     1.0000   1.0000   1.0000   1.0000   1.0000   1.0000   1.0000   1.0000
     1.0000   1.0000   1.0000   1.0000   1.0000   1.0000   1.0000   1.0000
     1.0000   1.0000   1.0000   1.0000   1.0000   1.0000   1.0000   1.0000
     1.0000   1.0000   1.0000   1.0000   1.0000   1.0000   1.0000   1.0000
     1.0000   1.0000   1.0000   1.0000   1.0000   1.0000   1.0000   1.0000
     1.0000   1.0000   1.0000   1.0000   1.0000   1.0000   1.0000   1.0000
     1.0000   1.0000   1.0000   1.0000   1.0000   1.0000   1.0000   1.0000
     1.0000   1.0000   1.0000   1.0000   1.0000   1.0000   1.0000   1.0000
     1.0000   1.0000   1.0000   1.0000   1.0000   1.0000   1.0000   1.0000
     1.0000   1.0000   1.0000   1.0000   1.0000   1.0000   1.0000   1.0000
     1.0000   1.0000   1.0000   1.0000   1.0000   1.0000   1.0000   1.0000
     1.0000   1.0000   1.0000   1.0000   1.0000   1.0000   1.0000   1.0000
     1.0000   1.0000   1.0000   1.0000   1.0000   1.0000   1.0000   1.0000
     1.0000   1.0000   1.0000   1.0000   1.0000   1.0000   1.0000   1.0000
     1.0000   1.0000   1.0000   1.0000   1.0000   1.0000   1.0000   1.0000
     1.0000   1.0000   1.0000   1.0000   1.0000   1.0000   1.0000   1.0000
     1.0000   1.0000   1.0000   1.0000   1.0000   1.0000   1.0000   1.0000
     1.0000   1.0000   1.0000   1.0000   1.0000   1.0000   1.0000   1.0000
     1.0000   1.0000   1.0000   1.0000   1.0000   1.0000   1.0000   1.0000
     1.0000   1.0000   1.0000   1.0000   1.0000   1.0000   1.0000   1.0000
     1.0000   1.0000   1.0000   1.0000   1.0000   1.0000   1.0000   1.0000
     1.0000   1.0000   1.0000   1.0000   1.0000   1.0000   1.0000   1.0000
     1.0000   1.0000   1.0000   1.0000   1.0000   1.0000   1.0000   1.0000
     1.0000   1.0000   1.0000   1.0000   1.0000   1.0000   1.0000   1.0000
     1.0000   1.0000   1.0000   1.0000   1.0000   1.0000   1.0000   1.0000
     1.0000   1.0000   1.0000   1.0000   1.0000   1.0000   1.0000   1.0000
     1.0000   1.0000   1.0000   1.0000   1.0000   1.0000   1.0000   1.0000
     1.0000   1.0000   1.0000   1.0000   1.0000   1.0000   1.0000   1.0000
     1.0000   1.0000   1.0000   1.0000   1.0000   1.0000   1.0000   1.0000
     1.0000   1.0000   1.0000   1.0000   1.0000   1.0000   1.0000   1.0000
     1.0000   1.0000   1.0000   1.0000   1.0000   1.0000   1.0000   1.0000
     1.0000   1.0000   1.0000   1.0000   1.0000   1.0000   1.0000   1.0000
     1.0000   1.0000   1.0000   1.0000   1.0000   1.0000   1.0000   1.0000
     1.0000   1.0000   1.0000   1.0000   1.0000   1.0000   1.0000   1.0000
     1.0000   1.0000   1.0000   1.0000   1.0000   1.0000   1.0000   1.0000
     1.0000   1.0000   1.0000   1.0000   1.0000   1.0000   1.0000   1.0000
     1.0000   1.0000   1.0000   1.0000   1.0000   1.0000   1.0000   1.0000
     1.0000   1.0000   1.0000   1.0000   1.0000   1.0004   1.0006   1.0099
     1.0539   1.0774   1.0794   1.0476   0.9637   0.9026   0.8077   0.4135
     0.2399   0.0139   0.0121   0.0096   0.0094   0.0045   0.0000   0.0000
     0.0000   0.0000   0.0000   0.0000   0.0000   0.0000   0.0000   0.0000
     0.0000   0.0000   0.0000   0.0000   0.0000   0.0000   0.0000   0.0000
     0.0000   0.0000   0.0000   0.0000   0.0000   0.0000   0.0000   0.0000
     0.0000   0.0000   0.0000   0.0000   0.0000   0.0000   0.0000   0.0000
     0.0000   0.0000   0.0000   0.0000   0.0000   0.0000   0.0000   0.0000
     0.0000   0.0000   0.0000   0.0000   0.0000   0.0000   0.0000   0.0000
     0.0000   0.0000   0.0000   0.0000   0.0000   0.0000   0.0000   0.0000
     0.0000   0.0000   0.0000   0.0000   0.0000   0.0000   0.0000   0.0000
     0.0000   0.0000   0.0000   0.0000   0.0000   0.0000   0.0000   0.0000
     0.0000   0.0000   0.0000   0.0000   0.0000   0.0000   0.0000   0.0000
     0.0000   0.0000   0.0000   0.0000   0.0000   0.0000   0.0000   0.0000
     0.0000   0.0000   0.0000   0.0000   0.0000   0.0000   0.0000   0.0000
     0.0000   0.0000   0.0000   0.0000   0.0000   0.0000   0.0000   0.0000
     0.0000   0.0000   0.0000   0.0000   0.0000   0.0000   0.0000   0.0000
     0.0000   0.0000   0.0000   0.0000   0.0000   0.0000   0.0000   0.0000

          k = 0.3333 0.0000 0.0000 ( 94672 PWs)   bands (ev):

  -123.4463-123.4460-123.4454-123.4454-123.4451-123.4451-123.4445-123.4442
  -123.3827-123.3818-123.3817-123.3816-123.3808-123.3807-123.3807-123.3798
  -123.3724-123.3721-123.3715-123.3715-123.3713-123.3712-123.3706-123.3704
  -123.2601-123.2600-123.2592-123.2591-123.2591-123.2590-123.2582-123.2581
  -123.2518-123.2517-123.2509-123.2509-123.2509-123.2508-123.2500-123.2499
  -123.2144-123.2141-123.2135-123.2135-123.2132-123.2132-123.2126-123.2123
  -123.1669-123.1660-123.1660-123.1659-123.1650-123.1649-123.1648-123.1639
  -123.0973-123.0964-123.0964-123.0957-123.0955-123.0948-123.0947-123.0938
   -77.6050 -77.6046 -77.6035 -77.6032 -77.6021 -77.6021 -77.6018 -77.6018
   -77.6007 -77.6004 -77.5949 -77.5946 -77.5938 -77.5938 -77.5936 -77.5935
   -77.5928 -77.5926 -77.5926 -77.5925 -77.5923 -77.5923 -77.5801 -77.5798
   -77.5399 -77.5388 -77.5377 -77.5369 -77.5368 -77.5367 -77.5361 -77.5358
   -77.5358 -77.5351 -77.5316 -77.5313 -77.5309 -77.5304 -77.5304 -77.5302
   -77.5302 -77.5298 -77.5298 -77.5297 -77.5293 -77.5290 -77.5288 -77.5287
   -77.5287 -77.5280 -77.5279 -77.5279 -77.5278 -77.5277 -77.5269 -77.5268
   -77.5259 -77.5256 -77.5250 -77.5250 -77.5248 -77.5247 -77.5241 -77.5239
   -77.5158 -77.5158 -77.5157 -77.5156 -77.5155 -77.5147 -77.5035 -77.5032
   -77.4192 -77.4190 -77.4190 -77.4188 -77.4181 -77.4181 -77.4180 -77.4180
   -77.4172 -77.4170 -77.4104 -77.4103 -77.4096 -77.4096 -77.4090 -77.4088
   -77.4087 -77.4086 -77.4086 -77.4086 -77.4078 -77.4078 -77.4077 -77.4077
   -77.4077 -77.4076 -77.4071 -77.4071 -77.4070 -77.4070 -77.4067 -77.4066
   -77.4031 -77.4031 -77.4023 -77.4022 -77.4022 -77.4022 -77.4014 -77.4013
   -77.3984 -77.3983 -77.3983 -77.3983 -77.3949 -77.3948 -77.3896 -77.3893
   -77.3888 -77.3888 -77.3885 -77.3885 -77.3880 -77.3877 -77.3861 -77.3861
   -77.3658 -77.3654 -77.3578 -77.3574 -77.3569 -77.3569 -77.3566 -77.3565
   -77.3560 -77.3557 -77.3538 -77.3538 -77.3535 -77.3535 -77.3417 -77.3414
   -77.3300 -77.3291 -77.3290 -77.3290 -77.3281 -77.3280 -77.3280 -77.3270
   -77.3245 -77.3234 -77.3143 -77.3131 -77.3131 -77.3130 -77.3124 -77.3124
   -77.3119 -77.3119 -77.3118 -77.3112 -77.3112 -77.3107 -77.3000 -77.2989
   -77.2576 -77.2567 -77.2566 -77.2561 -77.2557 -77.2551 -77.2551 -77.2541
   -77.2532 -77.2524 -77.2523 -77.2516 -77.2514 -77.2507 -77.2506 -77.2506
   -77.2499 -77.2489 -77.2386 -77.2386 -77.2370 -77.2369 -77.2265 -77.2248
    -6.6151  -6.1513  -5.7258  -5.3939  -5.3939  -5.3912  -5.2266  -5.2137
    -5.1490  -5.1489  -5.1311  -5.1152  -5.0884  -5.0802  -5.0608  -5.0562
    -5.0434  -5.0432  -5.0408  -4.9718  -4.9576  -4.9543  -4.9328  -4.9305
    -4.9209  -4.9209  -4.9146  -4.9065  -4.8934  -4.8934  -4.8656  -4.8391
    -4.8390  -4.8262  -4.8210  -4.8206  -4.8206  -4.8039  -4.8019  -4.8019
    -4.8018  -4.7988  -4.7988  -4.7954  -4.7937  -4.7772  -4.7690  -4.7606
    -4.7571  -4.7571  -4.7517  -4.7340  -4.7340  -4.7066  -4.7065  -4.7001
    -4.6793  -4.6793  -4.6588  -4.6524  -4.6487  -4.6487  -4.6446  -4.6361
    -4.6283  -4.6283  -4.6182  -4.6176  -4.6176  -4.6148  -4.6148  -4.6117
    -4.6116  -4.6044  -4.6028  -4.5945  -4.5909  -4.5790  -4.5763  -4.5763
    -4.5731  -4.5558  -4.5553  -4.5538  -4.5537  -4.5379  -4.5379  -4.5275
    -4.5186  -4.5186  -4.5142  -4.5142  -4.5085  -4.5060  -4.5005  -4.5004
    -4.5003  -4.4939  -4.4895  -4.4850  -4.4830  -4.4815  -4.4815  -4.4726
    -4.4726  -4.4657  -4.4654  -4.4653  -4.4625  -4.4582  -4.4261  -4.4261
    -4.4148  -4.4133  -4.4133  -4.4024  -4.3869  -4.3869  -4.3855  -4.3692
    -4.3692  -4.3609  -4.3551  -4.3551  -4.3448  -4.3411  -4.3411  -4.3339
    -4.3339  -4.3298  -4.3283  -4.3230  -4.3215  -4.3215  -4.3162  -4.2819
    -4.2763  -4.2729  -4.2666  -4.2636  -4.2636  -4.2581  -4.2521  -4.2521
    -4.2474  -4.2473  -4.2433  -4.2395  -4.2394  -4.2269  -4.2269  -4.2213
    -4.2162  -4.2150  -4.2150  -4.2049  -4.2042  -4.2009  -4.2009  -4.1975
    -4.1947  -4.1947  -4.1891  -4.1861  -4.1760  -4.1760  -4.1663  -4.1658
    -4.1630  -4.1629  -4.1572  -4.1572  -4.1513  -4.1512  -4.1399  -4.1398
    -4.1380  -4.1315  -4.1263  -4.1191  -4.1139  -4.1004  -4.1003  -4.1002
    -4.0952  -4.0885  -4.0885  -4.0717  -4.0717  -4.0684  -4.0684  -4.0576
    -4.0573  -4.0573  -4.0557  -4.0556  -4.0441  -4.0441  -4.0361  -4.0303
    -4.0303  -4.0284  -4.0281  -4.0248  -4.0232  -4.0170  -4.0170  -4.0151
    -4.0116  -4.0107  -4.0107  -4.0029  -4.0029  -4.0029  -3.9961  -3.9896
    -3.9896  -3.9866  -3.9850  -3.9759  -3.9759  -3.9741  -3.9696  -3.9696
    -3.9674  -3.9667  -3.9601  -3.9590  -3.9540  -3.9524  -3.9447  -3.9447
    -3.9319  -3.9319  -3.9299  -3.9263  -3.9263  -3.9262  -3.9249  -3.9249
    -3.9239  -3.9205  -3.9205  -3.9099  -3.8937  -3.8934  -3.8923  -3.8923
    -3.8922  -3.8908  -3.8904  -3.8872  -3.8835  -3.8822  -3.8817  -3.8817
    -3.8794  -3.8749  -3.8749  -3.8711  -3.8704  -3.8555  -3.8555  -3.8552
    -3.8517  -3.8479  -3.8478  -3.8478  -3.8408  -3.8254  -3.8254  -3.8252
    -3.8207  -3.8204  -3.8204  -3.8120  -3.8064  -3.8064  -3.8042  -3.8039
    -3.8039  -3.8011  -3.7964  -3.7923  -3.7832  -3.7821  -3.7821  -3.7778
    -3.7721  -3.7721  -3.7709  -3.7612  -3.7549  -3.7549  -3.7523  -3.7415
    -3.7415  -3.7276  -3.7220  -3.7188  -3.7023  -3.7018  -3.6994  -3.6945
    -3.6891  -3.6792  -3.6792  -3.6763  -3.6712  -3.6615  -3.6597  -3.6597
    -3.6594  -3.6511  -3.6511  -3.6449  -3.6400  -3.6382  -3.6378  -3.6222
    -3.6090  -3.6012  -3.6012  -3.5855  -3.5528  -3.5180  -3.5173  -3.4760
    -3.4056  -3.4055  -3.2060  -3.1207  -3.0209  -3.0209  -2.7549  -2.2400
    -1.9440  -1.9440  -1.7971  -1.7971  -1.5491  -1.3996  -1.3995  -1.1047
    -0.8699  -0.8314  -0.8314  -0.5462  -0.4239  -0.2498  -0.2397  -0.1419
    -0.1418   0.1745   0.1745   0.1956   0.2378   0.5229   0.5229   0.5398
     0.7443   0.8174   0.8655   0.8655   0.8935   0.8936   0.9746   1.1114
     1.3183   1.3991   1.7972   1.8994   1.9089   2.2892   2.2892   2.3408
     2.3480   2.3592   2.5406   2.7386   2.7386   2.8314   2.9411   2.9411
     2.9861   3.4372   3.5099   3.5099   3.6194   3.7537   3.7688   3.9251
     3.9807   4.1641   4.2599   4.2599   4.4085   4.4085   4.7105   4.8783
     4.9891   4.9983   5.0072   5.0266   5.1873   5.1874   5.2071   5.2581
     5.2581   5.2804   5.2941   5.3092   5.4132   5.4133   5.6129   6.0930
     6.2974   6.3731   6.3731   6.4216   6.5271   6.5271   6.5825   6.6154
     6.7336   6.8187   6.9603   6.9603   6.9711   6.9711   7.0438   7.0817
     7.0997   7.2343   7.3063   7.4385   7.4386   7.4514   7.4940   7.4941
     7.5282   7.7314   7.7314   7.8102   7.8103   7.8192   7.8819   7.9585
     7.9585   7.9694   8.0410   8.0411   8.0816   8.1289   8.3603   8.3606
     8.4791   8.4791   8.5029   8.5150   8.6014   8.6072   8.6074   8.6474
     8.6476   8.7399   8.7562   8.9317   8.9320   9.1224   9.1225   9.1652
     9.2520   9.2791   9.2961   9.2962   9.3063   9.3802   9.4086   9.4895
     9.4895   9.6065   9.6260   9.6261   9.6617   9.7707   9.7707   9.7814
     9.8139   9.8205   9.8767   9.8769   9.9147  10.0457  10.1040  10.1041
    10.1124  10.2020  10.2022  10.3032  10.4474  10.4476  10.5095  10.5098
    10.5458  10.5636  10.6414  10.6414  10.7871  10.9752  11.0188  11.0192

     occupation numbers 
     1.0000   1.0000   1.0000   1.0000   1.0000   1.0000   1.0000   1.0000
     1.0000   1.0000   1.0000   1.0000   1.0000   1.0000   1.0000   1.0000
     1.0000   1.0000   1.0000   1.0000   1.0000   1.0000   1.0000   1.0000
     1.0000   1.0000   1.0000   1.0000   1.0000   1.0000   1.0000   1.0000
     1.0000   1.0000   1.0000   1.0000   1.0000   1.0000   1.0000   1.0000
     1.0000   1.0000   1.0000   1.0000   1.0000   1.0000   1.0000   1.0000
     1.0000   1.0000   1.0000   1.0000   1.0000   1.0000   1.0000   1.0000
     1.0000   1.0000   1.0000   1.0000   1.0000   1.0000   1.0000   1.0000
     1.0000   1.0000   1.0000   1.0000   1.0000   1.0000   1.0000   1.0000
     1.0000   1.0000   1.0000   1.0000   1.0000   1.0000   1.0000   1.0000
     1.0000   1.0000   1.0000   1.0000   1.0000   1.0000   1.0000   1.0000
     1.0000   1.0000   1.0000   1.0000   1.0000   1.0000   1.0000   1.0000
     1.0000   1.0000   1.0000   1.0000   1.0000   1.0000   1.0000   1.0000
     1.0000   1.0000   1.0000   1.0000   1.0000   1.0000   1.0000   1.0000
     1.0000   1.0000   1.0000   1.0000   1.0000   1.0000   1.0000   1.0000
     1.0000   1.0000   1.0000   1.0000   1.0000   1.0000   1.0000   1.0000
     1.0000   1.0000   1.0000   1.0000   1.0000   1.0000   1.0000   1.0000
     1.0000   1.0000   1.0000   1.0000   1.0000   1.0000   1.0000   1.0000
     1.0000   1.0000   1.0000   1.0000   1.0000   1.0000   1.0000   1.0000
     1.0000   1.0000   1.0000   1.0000   1.0000   1.0000   1.0000   1.0000
     1.0000   1.0000   1.0000   1.0000   1.0000   1.0000   1.0000   1.0000
     1.0000   1.0000   1.0000   1.0000   1.0000   1.0000   1.0000   1.0000
     1.0000   1.0000   1.0000   1.0000   1.0000   1.0000   1.0000   1.0000
     1.0000   1.0000   1.0000   1.0000   1.0000   1.0000   1.0000   1.0000
     1.0000   1.0000   1.0000   1.0000   1.0000   1.0000   1.0000   1.0000
     1.0000   1.0000   1.0000   1.0000   1.0000   1.0000   1.0000   1.0000
     1.0000   1.0000   1.0000   1.0000   1.0000   1.0000   1.0000   1.0000
     1.0000   1.0000   1.0000   1.0000   1.0000   1.0000   1.0000   1.0000
     1.0000   1.0000   1.0000   1.0000   1.0000   1.0000   1.0000   1.0000
     1.0000   1.0000   1.0000   1.0000   1.0000   1.0000   1.0000   1.0000
     1.0000   1.0000   1.0000   1.0000   1.0000   1.0000   1.0000   1.0000
     1.0000   1.0000   1.0000   1.0000   1.0000   1.0000   1.0000   1.0000
     1.0000   1.0000   1.0000   1.0000   1.0000   1.0000   1.0000   1.0000
     1.0000   1.0000   1.0000   1.0000   1.0000   1.0000   1.0000   1.0000
     1.0000   1.0000   1.0000   1.0000   1.0000   1.0000   1.0000   1.0000
     1.0000   1.0000   1.0000   1.0000   1.0000   1.0000   1.0000   1.0000
     1.0000   1.0000   1.0000   1.0000   1.0000   1.0000   1.0000   1.0000
     1.0000   1.0000   1.0000   1.0000   1.0000   1.0000   1.0000   1.0000
     1.0000   1.0000   1.0000   1.0000   1.0000   1.0000   1.0000   1.0000
     1.0000   1.0000   1.0000   1.0000   1.0000   1.0000   1.0000   1.0000
     1.0000   1.0000   1.0000   1.0000   1.0000   1.0000   1.0000   1.0000
     1.0000   1.0000   1.0000   1.0000   1.0000   1.0000   1.0000   1.0000
     1.0000   1.0000   1.0000   1.0000   1.0000   1.0000   1.0000   1.0000
     1.0000   1.0000   1.0000   1.0000   1.0000   1.0000   1.0000   1.0000
     1.0000   1.0000   1.0000   1.0000   1.0000   1.0000   1.0000   1.0000
     1.0000   1.0000   1.0000   1.0000   1.0000   1.0000   1.0000   1.0000
     1.0000   1.0000   1.0000   1.0000   1.0000   1.0000   1.0000   1.0000
     1.0000   1.0000   1.0000   1.0000   1.0000   1.0000   1.0000   1.0000
     1.0000   1.0000   1.0000   1.0000   1.0000   1.0000   1.0000   1.0000
     1.0000   1.0000   1.0000   1.0000   1.0000   1.0000   1.0000   1.0000
     1.0000   1.0000   1.0000   1.0000   1.0000   1.0000   1.0000   1.0000
     1.0000   1.0000   1.0000   1.0000   1.0000   1.0000   1.0000   1.0000
     1.0000   1.0000   1.0000   1.0000   1.0000   1.0000   1.0000   1.0000
     1.0000   1.0000   1.0000   1.0000   1.0000   1.0000   1.0000   1.0000
     1.0000   1.0000   1.0000   1.0000   1.0000   1.0000   1.0000   1.0000
     1.0000   1.0000   1.0000   1.0000   1.0000   1.0000   1.0000   1.0000
     1.0000   1.0000   1.0000   1.0000   1.0000   1.0000   1.0000   1.0000
     1.0000   1.0000   1.0000   1.0000   1.0000   1.0000   1.0000   1.0000
     1.0000   1.0000   1.0000   1.0000   1.0000   1.0000   1.0000   1.0000
     1.0000   1.0000   1.0000   1.0000   1.0000   1.0000   1.0000   1.0000
     1.0000   1.0000   1.0000   1.0000   1.0000   1.0000   1.0000   1.0000
     1.0000   1.0000   1.0000   1.0000   1.0000   1.0000   1.0000   1.0000
     1.0000   1.0000   1.0000   1.0000   1.0000   1.0000   1.0000   1.0000
     1.0000   1.0000   1.0000   1.0000   1.0000   1.0000   1.0000   1.0000
     1.0000   1.0000   1.0000   1.0000   1.0000   1.0000   1.0000   1.0000
     1.0000   1.0000   1.0000   1.0000   1.0000   1.0000   1.0000   1.0000
     1.0000   1.0000   1.0000   1.0000   1.0000   1.0000   1.0000   1.0000
     1.0000   1.0000   1.0000   1.0000   1.0000   1.0000   1.0000   1.0000
     1.0000   1.0000   1.0000   1.0000   1.0000   1.0000   1.0000   1.0000
     1.0000   1.0000   1.0000   1.0000   1.0000   1.0000   1.0000   1.0000
     1.0000   1.0000   1.0000   1.0000   1.0000   1.0000   1.0000   1.0000
     1.0000   1.0000   1.0000   1.0000   1.0000   1.0000   1.0000   1.0000
     1.0000   1.0000   1.0000   1.0000   1.0000   1.0000   1.0000   1.0000
     1.0000   1.0000   1.0000   1.0000   1.0000   1.0000   1.0000   1.0000
     1.0000   1.0000   1.0000   1.0000   1.0000   1.0000   1.0000   1.0000
     1.0000   1.0000   1.0000   1.0000   1.0000   1.0000   1.0000   1.0000
     1.0000   1.0000   1.0000   1.0000   1.0000   1.0000   1.0000   1.0000
     1.0000   1.0000   1.0000   1.0000   1.0000   1.0000   1.0000   1.0000
     1.0000   1.0000   1.0000   1.0000   1.0000   1.0022   1.0022   1.0048
     1.0053   1.0062   1.0430   1.0761   1.0761   0.9964   0.7731   0.7730
     0.6529   0.0088   0.0027   0.0027   0.0004   0.0000   0.0000   0.0000
     0.0000   0.0000   0.0000   0.0000   0.0000   0.0000   0.0000   0.0000
     0.0000   0.0000   0.0000   0.0000   0.0000   0.0000   0.0000   0.0000
     0.0000   0.0000   0.0000   0.0000   0.0000   0.0000   0.0000   0.0000
     0.0000   0.0000   0.0000   0.0000   0.0000   0.0000   0.0000   0.0000
     0.0000   0.0000   0.0000   0.0000   0.0000   0.0000   0.0000   0.0000
     0.0000   0.0000   0.0000   0.0000   0.0000   0.0000   0.0000   0.0000
     0.0000   0.0000   0.0000   0.0000   0.0000   0.0000   0.0000   0.0000
     0.0000   0.0000   0.0000   0.0000   0.0000   0.0000   0.0000   0.0000
     0.0000   0.0000   0.0000   0.0000   0.0000   0.0000   0.0000   0.0000
     0.0000   0.0000   0.0000   0.0000   0.0000   0.0000   0.0000   0.0000
     0.0000   0.0000   0.0000   0.0000   0.0000   0.0000   0.0000   0.0000
     0.0000   0.0000   0.0000   0.0000   0.0000   0.0000   0.0000   0.0000
     0.0000   0.0000   0.0000   0.0000   0.0000   0.0000   0.0000   0.0000
     0.0000   0.0000   0.0000   0.0000   0.0000   0.0000   0.0000   0.0000
     0.0000   0.0000   0.0000   0.0000   0.0000   0.0000   0.0000   0.0000

          k = 0.3333 0.3107 0.1794 ( 94668 PWs)   bands (ev):

  -123.4462-123.4459-123.4458-123.4455-123.4449-123.4447-123.4446-123.4443
  -123.3826-123.3822-123.3815-123.3814-123.3811-123.3809-123.3803-123.3799
  -123.3723-123.3720-123.3720-123.3717-123.3711-123.3708-123.3707-123.3705
  -123.2599-123.2599-123.2596-123.2595-123.2587-123.2587-123.2583-123.2582
  -123.2517-123.2516-123.2514-123.2513-123.2505-123.2504-123.2501-123.2501
  -123.2143-123.2140-123.2139-123.2136-123.2131-123.2128-123.2127-123.2124
  -123.1668-123.1664-123.1658-123.1656-123.1653-123.1651-123.1645-123.1640
  -123.0972-123.0968-123.0960-123.0956-123.0956-123.0952-123.0944-123.0939
   -77.6033 -77.6033 -77.6030 -77.6030 -77.6028 -77.6025 -77.6014 -77.6011
   -77.6009 -77.6006 -77.5988 -77.5985 -77.5948 -77.5944 -77.5944 -77.5940
   -77.5933 -77.5930 -77.5929 -77.5926 -77.5864 -77.5861 -77.5818 -77.5815
   -77.5383 -77.5377 -77.5373 -77.5372 -77.5366 -77.5366 -77.5362 -77.5361
   -77.5355 -77.5351 -77.5339 -77.5329 -77.5314 -77.5312 -77.5310 -77.5308
   -77.5308 -77.5303 -77.5298 -77.5297 -77.5296 -77.5294 -77.5293 -77.5292
   -77.5292 -77.5288 -77.5282 -77.5278 -77.5264 -77.5261 -77.5258 -77.5255
   -77.5255 -77.5252 -77.5246 -77.5243 -77.5243 -77.5240 -77.5220 -77.5219
   -77.5217 -77.5208 -77.5174 -77.5163 -77.5097 -77.5094 -77.5052 -77.5049
   -77.4189 -77.4187 -77.4185 -77.4183 -77.4176 -77.4176 -77.4176 -77.4174
   -77.4173 -77.4171 -77.4131 -77.4130 -77.4095 -77.4095 -77.4091 -77.4090
   -77.4088 -77.4088 -77.4087 -77.4086 -77.4084 -77.4082 -77.4082 -77.4082
   -77.4078 -77.4077 -77.4073 -77.4072 -77.4068 -77.4068 -77.4044 -77.4043
   -77.4030 -77.4029 -77.4027 -77.4026 -77.4018 -77.4018 -77.4015 -77.4014
   -77.4010 -77.4009 -77.3965 -77.3964 -77.3923 -77.3922 -77.3896 -77.3892
   -77.3892 -77.3888 -77.3884 -77.3881 -77.3881 -77.3878 -77.3878 -77.3877
   -77.3642 -77.3638 -77.3598 -77.3595 -77.3577 -77.3573 -77.3573 -77.3569
   -77.3565 -77.3561 -77.3561 -77.3558 -77.3478 -77.3474 -77.3433 -77.3430
   -77.3299 -77.3295 -77.3289 -77.3286 -77.3284 -77.3282 -77.3276 -77.3271
   -77.3229 -77.3218 -77.3184 -77.3173 -77.3142 -77.3136 -77.3130 -77.3125
   -77.3125 -77.3120 -77.3114 -77.3108 -77.3062 -77.3051 -77.3017 -77.3006
   -77.2575 -77.2571 -77.2562 -77.2560 -77.2558 -77.2555 -77.2546 -77.2542
   -77.2531 -77.2527 -77.2520 -77.2517 -77.2514 -77.2510 -77.2503 -77.2499
   -77.2490 -77.2473 -77.2446 -77.2430 -77.2325 -77.2309 -77.2281 -77.2265
    -6.4582  -6.0088  -6.0022  -5.5938  -5.5808  -5.2713  -5.2022  -5.1499
    -5.1275  -5.0637  -5.0619  -5.0561  -5.0510  -5.0392  -5.0373  -5.0239
    -5.0229  -5.0022  -4.9919  -4.9824  -4.9729  -4.9685  -4.9602  -4.9545
    -4.9465  -4.9347  -4.9290  -4.9280  -4.9054  -4.8954  -4.8826  -4.8696
    -4.8693  -4.8567  -4.8560  -4.8546  -4.8541  -4.8511  -4.8358  -4.8334
    -4.8306  -4.7905  -4.7885  -4.7822  -4.7737  -4.7640  -4.7598  -4.7570
    -4.7546  -4.7469  -4.7353  -4.7345  -4.7301  -4.7254  -4.7223  -4.7212
    -4.7153  -4.7147  -4.6986  -4.6815  -4.6769  -4.6708  -4.6688  -4.6649
    -4.6471  -4.6455  -4.6414  -4.6393  -4.6391  -4.6341  -4.6314  -4.6163
    -4.6142  -4.6083  -4.6038  -4.6015  -4.5882  -4.5770  -4.5745  -4.5731
    -4.5694  -4.5669  -4.5630  -4.5625  -4.5600  -4.5457  -4.5376  -4.5349
    -4.5344  -4.5324  -4.5269  -4.5244  -4.5215  -4.5102  -4.5099  -4.4982
    -4.4977  -4.4899  -4.4891  -4.4871  -4.4835  -4.4818  -4.4764  -4.4746
    -4.4744  -4.4713  -4.4673  -4.4588  -4.4586  -4.4579  -4.4395  -4.4354
    -4.4277  -4.4226  -4.4218  -4.4135  -4.4099  -4.4078  -4.4003  -4.3987
    -4.3924  -4.3852  -4.3811  -4.3751  -4.3722  -4.3617  -4.3450  -4.3436
    -4.3409  -4.3346  -4.3294  -4.3266  -4.3244  -4.3182  -4.3171  -4.3160
    -4.3129  -4.3047  -4.3004  -4.2901  -4.2810  -4.2777  -4.2734  -4.2730
    -4.2683  -4.2618  -4.2537  -4.2496  -4.2467  -4.2463  -4.2439  -4.2355
    -4.2352  -4.2269  -4.2239  -4.2221  -4.2130  -4.2113  -4.2091  -4.2088
    -4.2054  -4.1944  -4.1943  -4.1903  -4.1799  -4.1790  -4.1772  -4.1633
    -4.1593  -4.1568  -4.1504  -4.1421  -4.1349  -4.1301  -4.1243  -4.1207
    -4.1175  -4.1175  -4.1086  -4.1075  -4.1009  -4.0969  -4.0965  -4.0900
    -4.0818  -4.0796  -4.0726  -4.0726  -4.0669  -4.0637  -4.0543  -4.0541
    -4.0531  -4.0506  -4.0469  -4.0413  -4.0372  -4.0337  -4.0227  -4.0224
    -4.0215  -4.0175  -4.0149  -4.0127  -4.0122  -4.0111  -4.0084  -4.0013
    -3.9993  -3.9946  -3.9871  -3.9813  -3.9800  -3.9800  -3.9799  -3.9795
    -3.9750  -3.9673  -3.9663  -3.9603  -3.9540  -3.9539  -3.9530  -3.9474
    -3.9469  -3.9442  -3.9407  -3.9386  -3.9345  -3.9343  -3.9269  -3.9236
    -3.9218  -3.9210  -3.9103  -3.9096  -3.9077  -3.9051  -3.9029  -3.9024
    -3.9022  -3.8914  -3.8848  -3.8848  -3.8819  -3.8805  -3.8799  -3.8788
    -3.8771  -3.8768  -3.8728  -3.8693  -3.8672  -3.8608  -3.8562  -3.8538
    -3.8521  -3.8502  -3.8465  -3.8457  -3.8444  -3.8428  -3.8427  -3.8375
    -3.8367  -3.8335  -3.8313  -3.8245  -3.8227  -3.8187  -3.8118  -3.8105
    -3.8098  -3.8055  -3.8019  -3.8008  -3.8007  -3.8000  -3.7970  -3.7956
    -3.7905  -3.7885  -3.7879  -3.7843  -3.7830  -3.7825  -3.7808  -3.7760
    -3.7653  -3.7650  -3.7577  -3.7560  -3.7521  -3.7505  -3.7485  -3.7402
    -3.7362  -3.7356  -3.7349  -3.7320  -3.7319  -3.7158  -3.7130  -3.7095
    -3.7084  -3.7082  -3.7075  -3.6991  -3.6946  -3.6880  -3.6875  -3.6750
    -3.6739  -3.6699  -3.6691  -3.6591  -3.6542  -3.6526  -3.6525  -3.6472
    -3.6456  -3.6421  -3.6409  -3.5933  -3.5778  -3.5776  -3.5209  -3.4935
    -3.3084  -3.0299  -2.9320  -2.9121  -2.6124  -2.5807  -2.5279  -2.4855
    -2.1227  -2.0633  -2.0528  -1.9897  -1.5823  -1.5308  -1.3693  -1.1176
    -0.9590  -0.9331  -0.8839  -0.7906  -0.7036  -0.6497  -0.5319  -0.3773
    -0.3648  -0.2745  -0.2289   0.1042   0.1666   0.2075   0.4385   0.5519
     0.8783   0.9822   0.9939   1.1769   1.4801   1.4990   1.5107   1.5351
     1.5573   1.8075   1.8966   1.8984   1.9974   2.0132   2.0665   2.2075
     2.2915   2.3222   2.4675   2.5835   2.8446   2.9501   2.9947   3.1048
     3.1477   3.2797   3.4759   3.5806   3.6307   3.8113   3.9294   4.0231
     4.0954   4.1321   4.2231   4.3707   4.4058   4.5989   4.6607   4.7153
     4.8331   5.0148   5.1447   5.1527   5.1646   5.1850   5.3411   5.3483
     5.4196   5.5649   5.6139   5.6852   5.7000   5.7029   5.7648   5.9007
     6.1489   6.2180   6.2388   6.2465   6.2484   6.4046   6.4108   6.4616
     6.5064   6.6083   6.6907   6.6962   6.8937   6.9023   6.9078   6.9462
     6.9803   7.0238   7.0464   7.0737   7.1818   7.2289   7.3213   7.3788
     7.4279   7.4485   7.4585   7.6176   7.6278   7.6515   7.7847   7.8023
     7.8394   7.8867   7.9599   8.0064   8.1296   8.1753   8.2189   8.2267
     8.2875   8.3328   8.4417   8.6226   8.6580   8.6876   8.7022   8.7732
     8.7738   8.8661   8.8670   8.8843   8.9653   8.9945   9.0423   9.1508
     9.2530   9.2543   9.2995   9.3169   9.3773   9.3786   9.4053   9.4554
     9.5731   9.5974   9.6739   9.6872   9.7133   9.7430   9.8331   9.8625
     9.8788   9.9703   9.9811  10.0688  10.2187  10.2313  10.2916  10.3050
    10.3569  10.3715  10.4018  10.4605  10.5555  10.6320  10.7139  10.7210
    10.7296  10.7365  10.7733  10.7861  10.7952  10.8040  10.8742  10.8960

     occupation numbers 
     1.0000   1.0000   1.0000   1.0000   1.0000   1.0000   1.0000   1.0000
     1.0000   1.0000   1.0000   1.0000   1.0000   1.0000   1.0000   1.0000
     1.0000   1.0000   1.0000   1.0000   1.0000   1.0000   1.0000   1.0000
     1.0000   1.0000   1.0000   1.0000   1.0000   1.0000   1.0000   1.0000
     1.0000   1.0000   1.0000   1.0000   1.0000   1.0000   1.0000   1.0000
     1.0000   1.0000   1.0000   1.0000   1.0000   1.0000   1.0000   1.0000
     1.0000   1.0000   1.0000   1.0000   1.0000   1.0000   1.0000   1.0000
     1.0000   1.0000   1.0000   1.0000   1.0000   1.0000   1.0000   1.0000
     1.0000   1.0000   1.0000   1.0000   1.0000   1.0000   1.0000   1.0000
     1.0000   1.0000   1.0000   1.0000   1.0000   1.0000   1.0000   1.0000
     1.0000   1.0000   1.0000   1.0000   1.0000   1.0000   1.0000   1.0000
[...]
     atom   30 type  1   force =     0.00000000    0.00000000    0.00000000
     atom   31 type  1   force =     0.00000000    0.00000000    0.00000000
     atom   32 type  1   force =     0.00000000    0.00000000    0.00000000
     atom   33 type  1   force =     0.00000000    0.00000000    0.00000000
     atom   34 type  1   force =     0.00000000    0.00000000    0.00000000
     atom   35 type  1   force =     0.00000000    0.00000000    0.00000000
     atom   36 type  1   force =     0.00000000    0.00000000    0.00000000
     atom   37 type  1   force =     0.00000000    0.00000000    0.00000000
     atom   38 type  1   force =     0.00000000    0.00000000    0.00000000
     atom   39 type  1   force =     0.00000000    0.00000000    0.00000000
     atom   40 type  1   force =     0.00000000    0.00000000    0.00000000
     atom   41 type  1   force =     0.00000000    0.00000000    0.00000000
     atom   42 type  1   force =     0.00000000    0.00000000    0.00000000
     atom   43 type  1   force =     0.00000000    0.00000000    0.00000000
     atom   44 type  1   force =     0.00000000    0.00000000    0.00000000
     atom   45 type  1   force =     0.00000000    0.00000000    0.00000000
     atom   46 type  1   force =     0.00000000    0.00000000    0.00000000
     atom   47 type  1   force =     0.00000000    0.00000000    0.00000000
     atom   48 type  1   force =     0.00000000    0.00000000    0.00000000
     atom   49 type  1   force =     0.00000000    0.00000000    0.00000000
     atom   50 type  1   force =     0.00000000    0.00000000    0.00000000
     atom   51 type  1   force =     0.00000000    0.00000000    0.00000000
     atom   52 type  1   force =     0.00000000    0.00000000    0.00000000
     atom   53 type  1   force =     0.00000000    0.00000000    0.00000000
     atom   54 type  1   force =     0.00000000    0.00000000    0.00000000
     atom   55 type  1   force =     0.00000000    0.00000000    0.00000000
     atom   56 type  1   force =     0.00000000    0.00000000    0.00000000
     atom   57 type  1   force =     0.00000000    0.00000000    0.00000000
     atom   58 type  1   force =     0.00000000    0.00000000    0.00000000
     atom   59 type  1   force =     0.00000000    0.00000000    0.00000000
     atom   60 type  1   force =     0.00000000    0.00000000    0.00000000
     atom   61 type  1   force =     0.00000000    0.00000000    0.00000000
     atom   62 type  1   force =     0.00000000    0.00000000    0.00000000
     atom   63 type  1   force =     0.00000000    0.00000000    0.00000000
     atom   64 type  1   force =     0.00000000    0.00000000    0.00000000
     The Hubbard contrib.    to forces
     atom    1 type  1   force =     0.00000000    0.00000000    0.00000000
     atom    2 type  1   force =     0.00000000    0.00000000    0.00000000
     atom    3 type  1   force =     0.00000000    0.00000000    0.00000000
     atom    4 type  1   force =     0.00000000    0.00000000    0.00000000
     atom    5 type  1   force =     0.00000000    0.00000000    0.00000000
     atom    6 type  1   force =     0.00000000    0.00000000    0.00000000
     atom    7 type  1   force =     0.00000000    0.00000000    0.00000000
     atom    8 type  1   force =     0.00000000    0.00000000    0.00000000
     atom    9 type  1   force =     0.00000000    0.00000000    0.00000000
     atom   10 type  1   force =     0.00000000    0.00000000    0.00000000
     atom   11 type  1   force =     0.00000000    0.00000000    0.00000000
     atom   12 type  1   force =     0.00000000    0.00000000    0.00000000
     atom   13 type  1   force =     0.00000000    0.00000000    0.00000000
     atom   14 type  1   force =     0.00000000    0.00000000    0.00000000
     atom   15 type  1   force =     0.00000000    0.00000000    0.00000000
     atom   16 type  1   force =     0.00000000    0.00000000    0.00000000
     atom   17 type  1   force =     0.00000000    0.00000000    0.00000000
     atom   18 type  1   force =     0.00000000    0.00000000    0.00000000
     atom   19 type  1   force =     0.00000000    0.00000000    0.00000000
     atom   20 type  1   force =     0.00000000    0.00000000    0.00000000
     atom   21 type  1   force =     0.00000000    0.00000000    0.00000000
     atom   22 type  1   force =     0.00000000    0.00000000    0.00000000
     atom   23 type  1   force =     0.00000000    0.00000000    0.00000000
     atom   24 type  1   force =     0.00000000    0.00000000    0.00000000
     atom   25 type  1   force =     0.00000000    0.00000000    0.00000000
     atom   26 type  1   force =     0.00000000    0.00000000    0.00000000
     atom   27 type  1   force =     0.00000000    0.00000000    0.00000000
     atom   28 type  1   force =     0.00000000    0.00000000    0.00000000
     atom   29 type  1   force =     0.00000000    0.00000000    0.00000000
     atom   30 type  1   force =     0.00000000    0.00000000    0.00000000
     atom   31 type  1   force =     0.00000000    0.00000000    0.00000000
     atom   32 type  1   force =     0.00000000    0.00000000    0.00000000
     atom   33 type  1   force =     0.00000000    0.00000000    0.00000000
     atom   34 type  1   force =     0.00000000    0.00000000    0.00000000
     atom   35 type  1   force =     0.00000000    0.00000000    0.00000000
     atom   36 type  1   force =     0.00000000    0.00000000    0.00000000
     atom   37 type  1   force =     0.00000000    0.00000000    0.00000000
     atom   38 type  1   force =     0.00000000    0.00000000    0.00000000
     atom   39 type  1   force =     0.00000000    0.00000000    0.00000000
     atom   40 type  1   force =     0.00000000    0.00000000    0.00000000
     atom   41 type  1   force =     0.00000000    0.00000000    0.00000000
     atom   42 type  1   force =     0.00000000    0.00000000    0.00000000
     atom   43 type  1   force =     0.00000000    0.00000000    0.00000000
     atom   44 type  1   force =     0.00000000    0.00000000    0.00000000
     atom   45 type  1   force =     0.00000000    0.00000000    0.00000000
     atom   46 type  1   force =     0.00000000    0.00000000    0.00000000
     atom   47 type  1   force =     0.00000000    0.00000000    0.00000000
     atom   48 type  1   force =     0.00000000    0.00000000    0.00000000
     atom   49 type  1   force =     0.00000000    0.00000000    0.00000000
     atom   50 type  1   force =     0.00000000    0.00000000    0.00000000
     atom   51 type  1   force =     0.00000000    0.00000000    0.00000000
     atom   52 type  1   force =     0.00000000    0.00000000    0.00000000
     atom   53 type  1   force =     0.00000000    0.00000000    0.00000000
     atom   54 type  1   force =     0.00000000    0.00000000    0.00000000
     atom   55 type  1   force =     0.00000000    0.00000000    0.00000000
     atom   56 type  1   force =     0.00000000    0.00000000    0.00000000
     atom   57 type  1   force =     0.00000000    0.00000000    0.00000000
     atom   58 type  1   force =     0.00000000    0.00000000    0.00000000
     atom   59 type  1   force =     0.00000000    0.00000000    0.00000000
     atom   60 type  1   force =     0.00000000    0.00000000    0.00000000
     atom   61 type  1   force =     0.00000000    0.00000000    0.00000000
     atom   62 type  1   force =     0.00000000    0.00000000    0.00000000
     atom   63 type  1   force =     0.00000000    0.00000000    0.00000000
     atom   64 type  1   force =     0.00000000    0.00000000    0.00000000
     The SCF correction term to forces
     atom    1 type  1   force =    -0.00007109   -0.00003530   -0.00076674
     atom    2 type  1   force =    -0.00007077    0.00001911   -0.00086403
     atom    3 type  1   force =    -0.00008794    0.00018779   -0.00084464
     atom    4 type  1   force =    -0.00010545   -0.00018460   -0.00037422
     atom    5 type  1   force =    -0.00008421   -0.00024222    0.00142511
     atom    6 type  1   force =    -0.00008543    0.00023615    0.00152804
     atom    7 type  1   force =    -0.00005811   -0.00045169    0.00143065
     atom    8 type  1   force =    -0.00005612    0.00044849    0.00143221
     atom    9 type  1   force =    -0.00006831   -0.00031000   -0.00077471
     atom   10 type  1   force =    -0.00007214    0.00032282   -0.00084302
     atom   11 type  1   force =    -0.00010021   -0.00009092   -0.00070225
     atom   12 type  1   force =    -0.00009490    0.00008613   -0.00050970
     atom   13 type  1   force =    -0.00008224    0.00020288    0.00122587
     atom   14 type  1   force =    -0.00008643   -0.00019701    0.00172936
     atom   15 type  1   force =    -0.00005419   -0.00015153    0.00151946
     atom   16 type  1   force =    -0.00005887    0.00015451    0.00134593
     atom   17 type  1   force =     0.00007064   -0.00002736   -0.00099540
     atom   18 type  1   force =     0.00007200    0.00001773   -0.00111095
     atom   19 type  1   force =     0.00009795    0.00018144   -0.00052796
     atom   20 type  1   force =     0.00009851   -0.00018888   -0.00007679
     atom   21 type  1   force =     0.00007557   -0.00022128    0.00184397
     atom   22 type  1   force =     0.00006535    0.00021719    0.00197975
     atom   23 type  1   force =     0.00004733   -0.00042267    0.00148824
     atom   24 type  1   force =     0.00004469    0.00041440    0.00151848
     atom   25 type  1   force =     0.00006754   -0.00031477   -0.00104102
     atom   26 type  1   force =     0.00007414    0.00032050   -0.00106626
     atom   27 type  1   force =     0.00009935   -0.00011539   -0.00040451
     atom   28 type  1   force =     0.00010641    0.00012455   -0.00018676
     atom   29 type  1   force =     0.00007000    0.00015419    0.00165774
     atom   30 type  1   force =     0.00006897   -0.00014856    0.00216509
     atom   31 type  1   force =     0.00004765   -0.00015637    0.00155548
     atom   32 type  1   force =     0.00004575    0.00016859    0.00145358
     atom   33 type  1   force =    -0.00051052    0.00021968   -0.00113955
     atom   34 type  1   force =    -0.00054187   -0.00023425   -0.00100834
     atom   35 type  1   force =    -0.00040691    0.00008401    0.00036972
     atom   36 type  1   force =    -0.00038786   -0.00008625    0.00057454
     atom   37 type  1   force =    -0.00007822   -0.00036404    0.00194812
     atom   38 type  1   force =    -0.00005769    0.00035150    0.00167599
     atom   39 type  1   force =     0.00008059   -0.00019704    0.00125859
     atom   40 type  1   force =     0.00008137    0.00019101    0.00140822
     atom   41 type  1   force =    -0.00053139   -0.00022578   -0.00106138
     atom   42 type  1   force =    -0.00051978    0.00024646   -0.00109961
     atom   43 type  1   force =    -0.00040863    0.00009876    0.00020194
     atom   44 type  1   force =    -0.00041372   -0.00009695    0.00076672
     atom   45 type  1   force =    -0.00007342   -0.00006976    0.00161354
     atom   46 type  1   force =    -0.00006286    0.00008309    0.00201512
     atom   47 type  1   force =     0.00008046   -0.00042845    0.00138534
     atom   48 type  1   force =     0.00008460    0.00042822    0.00128898
     atom   49 type  1   force =     0.00050451    0.00021459   -0.00109114
     atom   50 type  1   force =     0.00054560   -0.00022873   -0.00096813
     atom   51 type  1   force =     0.00040483    0.00007880    0.00035513
     atom   52 type  1   force =     0.00038517   -0.00008055    0.00055445
     atom   53 type  1   force =     0.00007364   -0.00037069    0.00192536
     atom   54 type  1   force =     0.00006580    0.00035798    0.00165241
     atom   55 type  1   force =    -0.00008154   -0.00020555    0.00121759
     atom   56 type  1   force =    -0.00008255    0.00020067    0.00137259
     atom   57 type  1   force =     0.00053023   -0.00023246   -0.00101862
     atom   58 type  1   force =     0.00051285    0.00024793   -0.00104473
     atom   59 type  1   force =     0.00039884    0.00011163    0.00018705
     atom   60 type  1   force =     0.00040408   -0.00011083    0.00074961
     atom   61 type  1   force =     0.00007090   -0.00007108    0.00159353
     atom   62 type  1   force =     0.00007595    0.00007915    0.00199249
     atom   63 type  1   force =    -0.00007881   -0.00043427    0.00135080
     atom   64 type  1   force =    -0.00008643    0.00043282    0.00124295

     Total force =     0.122144     Total SCF correction =     0.010426


     Computing stress (Cartesian axis) and pressure

          total   stress  (Ry/bohr**3)                   (kbar)     P=       -8.58
  -0.00018170  -0.00000000  -0.00000000          -26.73       -0.00       -0.00
  -0.00000000  -0.00004016  -0.00000000           -0.00       -5.91       -0.00
  -0.00000000  -0.00000000   0.00004692           -0.00       -0.00        6.90

     kinetic stress (kbar)  15920.12      0.00     -0.00
                                0.00  15891.52      0.00
                               -0.00      0.00  15953.42

     local   stress (kbar)**********     -0.00     -0.04
                               -0.00**********     -0.13
                               -0.04     -0.131322951.55

     nonloc. stress (kbar)  -1711.70     -0.00      0.00
                               -0.00  -1672.20     -0.00
                                0.00     -0.00  -1723.32

     hartree stress (kbar) 688836.17      0.00      0.02
                                0.00 696103.58      0.05
                                0.02      0.05-617361.65

     exc-cor stress (kbar)  -8018.01      0.00      0.00
                                0.00  -8013.33      0.00
                                0.00      0.00  -8021.51

     corecor stress (kbar)      0.00      0.00      0.00
                                0.00      0.00      0.00
                                0.00      0.00      0.00

     ewald   stress (kbar) 610469.72      0.00      0.02
                                0.00 620124.16      0.08
                                0.02      0.08-711791.59

     hubbard stress (kbar)      0.00      0.00      0.00
                                0.00      0.00      0.00
                                0.00      0.00      0.00

     DFT-D   stress (kbar)      0.00      0.00      0.00
                                0.00      0.00      0.00
                                0.00      0.00      0.00

     XDM     stress (kbar)      0.00      0.00      0.00
                                0.00      0.00      0.00
                                0.00      0.00      0.00

     dft-nl  stress (kbar)      0.00      0.00      0.00
                                0.00      0.00      0.00
                                0.00      0.00      0.00

     TS-vdW  stress (kbar)      0.00      0.00      0.00
                                0.00      0.00      0.00
                                0.00      0.00      0.00

     MDB     stress (kbar)      0.00      0.00      0.00
                                0.00      0.00      0.00
                                0.00      0.00      0.00

     3D-RISM stress (kbar)      0.00      0.00      0.00
                                0.00      0.00      0.00
                                0.00      0.00      0.00


     Writing all to output data dir ./tmp/Zn100_2x2x4_scf.save/ :
     XML data file, charge density, pseudopotentials, collected wavefunctions

     init_run     :    160.09s CPU    161.73s WALL (       1 calls)
     electrons    :   8910.18s CPU   8998.77s WALL (       1 calls)
     forces       :    124.49s CPU    125.01s WALL (       1 calls)
     stress       :    364.32s CPU    365.56s WALL (       1 calls)

     Called by init_run:
     wfcinit      :    159.07s CPU    160.69s WALL (       1 calls)
     wfcinit:atom :      0.07s CPU      0.12s WALL (       5 calls)
     wfcinit:wfcr :    157.87s CPU    159.37s WALL (       5 calls)
     potinit      :      0.05s CPU      0.06s WALL (       1 calls)
     hinit0       :      0.03s CPU      0.03s WALL (       1 calls)

     Called by electrons:
     c_bands      :   8341.45s CPU   8421.69s WALL (      16 calls)
     sum_band     :    556.32s CPU    564.36s WALL (      16 calls)
     v_of_rho     :      0.75s CPU      0.78s WALL (      16 calls)
     v_h          :      0.04s CPU      0.05s WALL (      16 calls)
     v_xc         :      0.71s CPU      0.73s WALL (      16 calls)
     newd         :     12.28s CPU     12.54s WALL (      16 calls)
     mix_rho      :      0.13s CPU      0.14s WALL (      16 calls)

     Called by c_bands:
     init_us_2    :      6.41s CPU      6.44s WALL (     175 calls)
     cegterg      :   8328.36s CPU   8408.49s WALL (      80 calls)

     Called by sum_band:
     sum_band:wei :      0.05s CPU      0.05s WALL (      16 calls)
     sum_band:loo :    545.20s CPU    552.94s WALL (      16 calls)
     sum_band:buf :      1.30s CPU      1.30s WALL (      80 calls)
     sum_band:ini :      2.97s CPU      2.98s WALL (      80 calls)
     sum_band:cal :    484.21s CPU    486.16s WALL (      80 calls)
     sum_band:bec :      3.00s CPU      3.00s WALL (      80 calls)
     addusdens    :     10.88s CPU     11.16s WALL (      16 calls)
                                        0.00s GPU  (      16 calls)
     addusd:skk   :      0.11s CPU      0.12s WALL (      16 calls)
                                        0.00s GPU  (      16 calls)

     Called by *egterg:
     cdiaghg      :    561.22s CPU    585.05s WALL (     531 calls)
     cegterg:over :   1302.12s CPU   1306.28s WALL (     456 calls)
     cegterg:upda :    712.21s CPU    714.99s WALL (     456 calls)
     cegterg:last :   1985.86s CPU   1992.24s WALL (     154 calls)
     cdiaghg:chol :     38.25s CPU     38.35s WALL (     531 calls)
     cdiaghg:inve :      6.19s CPU      6.21s WALL (     531 calls)
     cdiaghg:para :    173.46s CPU    176.06s WALL (    1062 calls)
     h_psi        :   2439.62s CPU   2477.92s WALL (     541 calls)
     s_psi        :   1052.57s CPU   1055.15s WALL (     541 calls)
     g_psi        :      0.88s CPU      0.88s WALL (     456 calls)

     Called by h_psi:
     h_psi:calbec :   1136.35s CPU   1140.96s WALL (     541 calls)
     vloc_psi     :    243.47s CPU    273.10s WALL (     541 calls)
     add_vuspsi   :   1057.66s CPU   1060.29s WALL (     541 calls)

     General routines
     calbec       :   1773.91s CPU   1781.04s WALL (     646 calls)
     fft          :      0.37s CPU      0.43s WALL (     185 calls)
     ffts         :      0.03s CPU      0.04s WALL (      16 calls)
     fftw         :    273.05s CPU    305.71s WALL (  349020 calls)

     Parallel routines

     PWSCF        :      2h39m CPU      2h40m WALL


   This run was terminated on:  18: 2:29  19Mar2025            

=------------------------------------------------------------------------------=
   JOB DONE.
=------------------------------------------------------------------------------=
Note: The following floating-point exceptions are signalling: IEEE_DENORMAL
Note: The following floating-point exceptions are signalling: IEEE_DENORMAL
Note: The following floating-point exceptions are signalling: IEEE_DENORMAL
Note: The following floating-point exceptions are signalling: IEEE_DENORMAL
Note: The following floating-point exceptions are signalling: IEEE_DENORMAL
Note: The following floating-point exceptions are signalling: IEEE_DENORMAL
Note: The following floating-point exceptions are signalling: IEEE_DENORMAL
Note: The following floating-point exceptions are signalling: IEEE_DENORMAL
Note: The following floating-point exceptions are signalling: IEEE_DENORMAL
Note: The following floating-point exceptions are signalling: IEEE_DENORMAL
Note: The following floating-point exceptions are signalling: IEEE_DENORMAL
Note: The following floating-point exceptions are signalling: IEEE_DENORMAL
