--------------------------------------------------------------------------
By default, for Open MPI 4.0 and later, infiniband ports on a device
are not used by default.  The intent is to use UCX for these devices.
You can override this policy by setting the btl_openib_allow_ib MCA parameter
to true.

  Local host:              psid00
  Local adapter:           mlx5_0
  Local port:              1

--------------------------------------------------------------------------
--------------------------------------------------------------------------
WARNING: There was an error initializing an OpenFabrics device.

  Local host:   psid00
  Local device: mlx5_0
--------------------------------------------------------------------------

     Program PWSCF v.7.3.1 starts on 30Jan1998 at 23:45:33 

     This program is part of the open-source Quantum ESPRESSO suite
     for quantum simulation of materials; please cite
         "P. Giannozzi et al., J. Phys.:Condens. Matter 21 395502 (2009);
         "P. Giannozzi et al., J. Phys.:Condens. Matter 29 465901 (2017);
         "P. Giannozzi et al., J. Chem. Phys. 152 154105 (2020);
          URL http://www.quantum-espresso.org", 
     in publications or presentations arising from this work. More details at
     http://www.quantum-espresso.org/quote

     Parallel version (MPI), running on    16 processors

     MPI processes distributed on     1 nodes
     31682 MiB available memory on the printing compute node when the environment starts

     Waiting for input...
     Reading input from standard input

     Current dimensions of program PWSCF are:
     Max number of different atomic species (ntypx) = 10
     Max number of k-points (npk) =  40000
     Max angular momentum in pseudopotentials (lmaxx) =  4
     file C.pbe-n-kjpaw_psl.1.0.0.UPF: wavefunction(s)  2S 2P renormalized

     gamma-point specific algorithms are used

     R & G space division:  proc/nbgrp/npool/nimage =      16
     Subspace diagonalization in iterative solution of the eigenvalue problem:
     a serial algorithm will be used


     Parallelization info
     --------------------
     sticks:   dense  smooth     PW     G-vecs:    dense   smooth      PW
     Min        1332    1332    332               146280   146280   18276
     Max        1334    1334    334               146286   146286   18286
     Sum       21329   21329   5337              2340509  2340509  292499

     Using Slab Decomposition



     bravais-lattice index     =            1
     lattice parameter (alat)  =      47.2432  a.u.
     unit-cell volume          =  105442.7265 (a.u.)^3
     number of atoms/cell      =           15
     number of atomic types    =            3
     number of electrons       =        44.00
     number of Kohn-Sham states=           26
     kinetic-energy cutoff     =      30.0000  Ry
     charge density cutoff     =     120.0000  Ry
     scf convergence threshold =      7.3E-07
     mixing beta               =       0.7000
     number of iterations used =            8  plain     mixing
     Exchange-correlation= PBE
                           (   1   4   3   4   0   0   0)

     celldm(1)=  47.243153  celldm(2)=   0.000000  celldm(3)=   0.000000
     celldm(4)=   0.000000  celldm(5)=   0.000000  celldm(6)=   0.000000

     crystal axes: (cart. coord. in units of alat)
               a(1) = (   1.000000   0.000000   0.000000 )  
               a(2) = (   0.000000   1.000000   0.000000 )  
               a(3) = (   0.000000   0.000000   1.000000 )  

     reciprocal axes: (cart. coord. in units 2 pi/alat)
               b(1) = (  1.000000  0.000000  0.000000 )  
               b(2) = (  0.000000  1.000000  0.000000 )  
               b(3) = (  0.000000  0.000000  1.000000 )  


     PseudoPot. # 1 for N  read from file:
     /home/ys/qepseudo/SSSP_1.3.0_PBE_efficiency/N.pbe-n-radius_5.UPF
     MD5 check sum: 16739722b17309cd8fe442a2ace49922
     Pseudo is Ultrasoft + core correction, Zval =  5.0
     Generated using "atomic" code by A. Dal Corso  v.5.1
     Using radial grid of 1085 points,  4 beta functions with: 
                l(1) =   0
                l(2) =   0
                l(3) =   1
                l(4) =   1
     Q(r) pseudized with 0 coefficients 


     PseudoPot. # 2 for C  read from file:
     /home/ys/qepseudo/SSSP_1.3.0_PBE_efficiency/C.pbe-n-kjpaw_psl.1.0.0.UPF
     MD5 check sum: 5d2aebdfa2cae82b50a7e79e9516da0f
     Pseudo is Projector augmented-wave + core cor, Zval =  4.0
     Generated using "atomic" code by A. Dal Corso  v.5.1
     Shape of augmentation charge: PSQ
     Using radial grid of 1073 points,  4 beta functions with: 
                l(1) =   0
                l(2) =   0
                l(3) =   1
                l(4) =   1
     Q(r) pseudized with 0 coefficients 


     PseudoPot. # 3 for H  read from file:
     /home/ys/qepseudo/SSSP_1.3.0_PBE_efficiency/H.pbe-rrkjus_psl.1.0.0.UPF
     MD5 check sum: f52b6d4d1c606e5624b1dc7b2218f220
     Pseudo is Ultrasoft, Zval =  1.0
     Generated using "atomic" code by A. Dal Corso  v.5.1
     Using radial grid of  929 points,  2 beta functions with: 
                l(1) =   0
                l(2) =   0
     Q(r) pseudized with 0 coefficients 


     atomic species   valence    mass     pseudopotential
     N                 5.00    14.00674     N ( 1.00)
     C                 4.00    12.01070     C ( 1.00)
     H                 1.00     1.00794     H ( 1.00)

     No symmetry found


                                    s                        frac. trans.

      isym =  1     identity                                     

 cryst.   s( 1) = (     1          0          0      )
                  (     0          1          0      )
                  (     0          0          1      )

 cart.    s( 1) = (  1.0000000  0.0000000  0.0000000 )
                  (  0.0000000  1.0000000  0.0000000 )
                  (  0.0000000  0.0000000  1.0000000 )


     point group C_1 (1)    
     there are  1 classes
     the character table:

       E    
A      1.00

     the symmetry operations in each class and the name of the first element:

     E        1
          identity                                               

   Cartesian axes

     site n.     atom                  positions (alat units)
         1        N      tau(   1) = (   0.3082678   0.1827150   0.1827483  )
         2        N      tau(   2) = (   0.0363798   0.1828990   0.1827129  )
         3        C      tau(   3) = (   0.2534588   0.1827714   0.1830055  )
         4        C      tau(   4) = (   0.2244869   0.1342045   0.1830535  )
         5        C      tau(   5) = (   0.2245759   0.2313823   0.1829050  )
         6        C      tau(   6) = (   0.1403054   0.1828634   0.1831074  )
         7        C      tau(   7) = (   0.1690373   0.1343110   0.1830798  )
         8        C      tau(   8) = (   0.1691172   0.2313529   0.1829516  )
         9        C      tau(   9) = (   0.0833500   0.1829758   0.1830006  )
        10        H      tau(  10) = (   0.2461775   0.0961439   0.1827069  )
        11        H      tau(  11) = (   0.2463212   0.2694081   0.1825574  )
        12        H      tau(  12) = (   0.1471759   0.0964282   0.1827547  )
        13        H      tau(  13) = (   0.1472591   0.2692297   0.1826131  )
        14        H      tau(  14) = (   0.3292573   0.2174491   0.1824904  )
        15        H      tau(  15) = (   0.3292127   0.1479599   0.1825171  )

   Crystallographic axes

     site n.     atom                  positions (cryst. coord.)
         1        N      tau(   1) = (  0.3082678  0.1827150  0.1827483  )
         2        N      tau(   2) = (  0.0363798  0.1828990  0.1827129  )
         3        C      tau(   3) = (  0.2534588  0.1827714  0.1830055  )
         4        C      tau(   4) = (  0.2244869  0.1342045  0.1830535  )
         5        C      tau(   5) = (  0.2245759  0.2313823  0.1829050  )
         6        C      tau(   6) = (  0.1403054  0.1828634  0.1831074  )
         7        C      tau(   7) = (  0.1690373  0.1343110  0.1830798  )
         8        C      tau(   8) = (  0.1691172  0.2313529  0.1829516  )
         9        C      tau(   9) = (  0.0833500  0.1829758  0.1830006  )
        10        H      tau(  10) = (  0.2461775  0.0961439  0.1827069  )
        11        H      tau(  11) = (  0.2463212  0.2694081  0.1825574  )
        12        H      tau(  12) = (  0.1471759  0.0964282  0.1827547  )
        13        H      tau(  13) = (  0.1472591  0.2692297  0.1826131  )
        14        H      tau(  14) = (  0.3292573  0.2174491  0.1824904  )
        15        H      tau(  15) = (  0.3292127  0.1479599  0.1825171  )

     number of k points=     1  Marzari-Vanderbilt smearing, width (Ry)=  0.0200
                       cart. coord. in units 2pi/alat
        k(    1) = (   0.0000000   0.0000000   0.0000000), wk =   2.0000000

                       cryst. coord.
        k(    1) = (   0.0000000   0.0000000   0.0000000), wk =   2.0000000

     Dense  grid:  1170255 G-vectors     FFT dimensions: ( 180, 180, 180)

     Dynamical RAM for                 wfc:       3.63 MB

     Dynamical RAM for     wfc (w. buffer):       3.63 MB

     Dynamical RAM for           str. fact:       3.35 MB

     Dynamical RAM for           local pot:       0.00 MB

     Dynamical RAM for          nlocal pot:      11.72 MB

     Dynamical RAM for                qrad:       0.75 MB

     Dynamical RAM for          rho,v,vnew:      12.25 MB

     Dynamical RAM for               rhoin:       4.08 MB

     Dynamical RAM for            rho*nmix:      17.86 MB

     Dynamical RAM for           G-vectors:       4.74 MB

     Dynamical RAM for          h,s,v(r/c):       0.06 MB

     Dynamical RAM for          <psi|beta>:       0.02 MB

     Dynamical RAM for                 psi:       7.25 MB

     Dynamical RAM for                hpsi:       7.25 MB

     Dynamical RAM for                spsi:       7.25 MB

     Dynamical RAM for      wfcinit/wfcrot:      11.76 MB

     Dynamical RAM for           addusdens:      55.80 MB

     Dynamical RAM for          addusforce:      69.76 MB

     Dynamical RAM for         addusstress:      55.80 MB

     Estimated static dynamical RAM per process >      59.82 MB

     Estimated max dynamical RAM per process >     147.44 MB

     Estimated total dynamical RAM >       2.30 GB

     Check: negative core charge=   -0.000015

     Initial potential from superposition of free atoms

     starting charge      43.9996, renormalised to      44.0000

     negative rho (up, down):  9.908E-02 0.000E+00
     Starting wfcs are   42 randomized atomic wfcs
     Checking if some PAW data can be deallocated... 
       PAW data deallocated on    9 nodes for type:  2

     total cpu time spent up to now is        2.1 secs

     Self-consistent Calculation

     iteration #  1     ecut=    30.00 Ry     beta= 0.70
     Davidson diagonalization with overlap

---- Real-time Memory Report at c_bands before calling an iterative solver
           108 MiB given to the printing process from OS
             0 MiB allocation reported by mallinfo(arena+hblkhd)
         30377 MiB available memory on the node where the printing process lives
------------------
     ethr =  1.00E-02,  avg # of iterations =  2.0

     negative rho (up, down):  2.447E-01 0.000E+00
[psid00:15189] 15 more processes have sent help message help-mpi-btl-openib.txt / ib port not selected
[psid00:15189] Set MCA parameter "orte_base_help_aggregate" to 0 to see all help / error messages
[psid00:15189] 15 more processes have sent help message help-mpi-btl-openib.txt / error in device init

     total cpu time spent up to now is        5.1 secs

     total energy              =    -175.88777795 Ry
     estimated scf accuracy    <       1.80057955 Ry

     iteration #  2     ecut=    30.00 Ry     beta= 0.70
     Davidson diagonalization with overlap

---- Real-time Memory Report at c_bands before calling an iterative solver
           139 MiB given to the printing process from OS
             0 MiB allocation reported by mallinfo(arena+hblkhd)
         30214 MiB available memory on the node where the printing process lives
------------------
     ethr =  4.09E-03,  avg # of iterations =  2.0

     negative rho (up, down):  2.640E-01 0.000E+00

     total cpu time spent up to now is        8.0 secs

     total energy              =    -176.22170251 Ry
     estimated scf accuracy    <       0.63915539 Ry

     iteration #  3     ecut=    30.00 Ry     beta= 0.70
     Davidson diagonalization with overlap

---- Real-time Memory Report at c_bands before calling an iterative solver
           144 MiB given to the printing process from OS
             0 MiB allocation reported by mallinfo(arena+hblkhd)
         30176 MiB available memory on the node where the printing process lives
------------------
     ethr =  1.45E-03,  avg # of iterations =  6.0

     negative rho (up, down):  2.748E-01 0.000E+00

     total cpu time spent up to now is       10.9 secs

     total energy              =    -176.32659668 Ry
     estimated scf accuracy    <       0.24698416 Ry

     iteration #  4     ecut=    30.00 Ry     beta= 0.70
     Davidson diagonalization with overlap

---- Real-time Memory Report at c_bands before calling an iterative solver
           146 MiB given to the printing process from OS
             0 MiB allocation reported by mallinfo(arena+hblkhd)
         30135 MiB available memory on the node where the printing process lives
------------------
     ethr =  5.61E-04,  avg # of iterations =  3.0

     negative rho (up, down):  2.898E-01 0.000E+00

     total cpu time spent up to now is       13.5 secs

     total energy              =    -176.37988465 Ry
     estimated scf accuracy    <       0.02989675 Ry

     iteration #  5     ecut=    30.00 Ry     beta= 0.70
     Davidson diagonalization with overlap

---- Real-time Memory Report at c_bands before calling an iterative solver
           148 MiB given to the printing process from OS
             0 MiB allocation reported by mallinfo(arena+hblkhd)
         30102 MiB available memory on the node where the printing process lives
------------------
     ethr =  6.79E-05,  avg # of iterations = 15.0

     negative rho (up, down):  2.927E-01 0.000E+00

     total cpu time spent up to now is       16.8 secs

     total energy              =    -176.38451276 Ry
     estimated scf accuracy    <       0.00130597 Ry

     iteration #  6     ecut=    30.00 Ry     beta= 0.70
     Davidson diagonalization with overlap

---- Real-time Memory Report at c_bands before calling an iterative solver
           150 MiB given to the printing process from OS
             0 MiB allocation reported by mallinfo(arena+hblkhd)
         30071 MiB available memory on the node where the printing process lives
------------------
     ethr =  2.97E-06,  avg # of iterations =  7.0

     negative rho (up, down):  2.935E-01 0.000E+00

     total cpu time spent up to now is       20.2 secs

     total energy              =    -176.38497288 Ry
     estimated scf accuracy    <       0.00023335 Ry

     iteration #  7     ecut=    30.00 Ry     beta= 0.70
     Davidson diagonalization with overlap

---- Real-time Memory Report at c_bands before calling an iterative solver
           153 MiB given to the printing process from OS
             0 MiB allocation reported by mallinfo(arena+hblkhd)
         30038 MiB available memory on the node where the printing process lives
------------------
     ethr =  5.30E-07,  avg # of iterations =  2.0

     negative rho (up, down):  2.938E-01 0.000E+00

     total cpu time spent up to now is       22.9 secs

     total energy              =    -176.38501732 Ry
     estimated scf accuracy    <       0.00005124 Ry

     iteration #  8     ecut=    30.00 Ry     beta= 0.70
     Davidson diagonalization with overlap

---- Real-time Memory Report at c_bands before calling an iterative solver
           155 MiB given to the printing process from OS
             0 MiB allocation reported by mallinfo(arena+hblkhd)
         30002 MiB available memory on the node where the printing process lives
------------------
     ethr =  1.16E-07,  avg # of iterations =  2.0

     negative rho (up, down):  2.939E-01 0.000E+00

     total cpu time spent up to now is       25.5 secs

     total energy              =    -176.38502728 Ry
     estimated scf accuracy    <       0.00001038 Ry

     iteration #  9     ecut=    30.00 Ry     beta= 0.70
     Davidson diagonalization with overlap

---- Real-time Memory Report at c_bands before calling an iterative solver
           157 MiB given to the printing process from OS
             0 MiB allocation reported by mallinfo(arena+hblkhd)
         29961 MiB available memory on the node where the printing process lives
------------------
     ethr =  2.36E-08,  avg # of iterations =  3.0

     negative rho (up, down):  2.940E-01 0.000E+00

     total cpu time spent up to now is       28.1 secs

     End of self-consistent calculation

          k = 0.0000 0.0000 0.0000 (146250 PWs)   bands (ev):

   -23.7277 -22.1860 -21.4012 -19.0304 -18.9569 -16.0655 -15.7676 -13.8296
   -13.4594 -13.3255 -11.2665 -11.1061 -10.6927 -10.1788  -9.9301  -9.0005
    -8.8235  -8.1139  -7.7222  -7.5276  -6.8195  -5.4326  -1.8718  -1.6946
    -1.6256  -1.2139

     occupation numbers 
     1.0000   1.0000   1.0000   1.0000   1.0000   1.0000   1.0000   1.0000
     1.0000   1.0000   1.0000   1.0000   1.0000   1.0000   1.0000   1.0000
     1.0000   1.0000   1.0000   1.0000   1.0000   1.0000   0.0000   0.0000
     0.0000   0.0000

     the Fermi energy is    -3.7345 ev

!    total energy              =    -176.38502969 Ry
     estimated scf accuracy    <       0.00000023 Ry
     smearing contrib. (-TS)   =       0.00000000 Ry
     internal energy E=F+TS    =    -176.38502969 Ry

     The total energy is F=E-TS. E is the sum of the following terms:
     one-electron contribution =    -700.55724691 Ry
     hartree contribution      =     355.37161196 Ry
     xc contribution           =     -47.21488037 Ry
     ewald contribution        =     259.19844933 Ry
     one-center paw contrib.   =     -43.18296370 Ry
      -> PAW hartree energy AE =       0.00000000 Ry
      -> PAW hartree energy PS =       0.00000000 Ry
      -> PAW xc energy AE      =       0.00000000 Ry
      -> PAW xc energy PS      =       0.00000000 Ry
      -> total E_H with PAW    =     355.37161196 Ry
      -> total E_XC with PAW   =     -47.21488037 Ry

     convergence has been achieved in   9 iterations

     negative rho (up, down):  2.940E-01 0.000E+00

     Forces acting on atoms (cartesian axes, Ry/au):

     atom    1 type  1   force =    -0.00003652    0.00025711    0.00022523
     atom    2 type  1   force =    -0.00034417    0.00013608    0.00005609
     atom    3 type  2   force =    -0.00001716   -0.00018601   -0.00012518
     atom    4 type  2   force =     0.00012062    0.00021065   -0.00015577
     atom    5 type  2   force =     0.00030127   -0.00009893   -0.00003574
     atom    6 type  2   force =    -0.00019294    0.00012516   -0.00011060
     atom    7 type  2   force =     0.00027321   -0.00036564   -0.00011369
     atom    8 type  2   force =     0.00018422    0.00032509   -0.00004736
     atom    9 type  2   force =    -0.00020471    0.00010868    0.00007995
     atom   10 type  3   force =     0.00003507   -0.00023808    0.00018594
     atom   11 type  3   force =     0.00005546    0.00003350   -0.00000300
     atom   12 type  3   force =    -0.00013725   -0.00018887    0.00036201
     atom   13 type  3   force =     0.00008522    0.00034224    0.00020284
     atom   14 type  3   force =    -0.00004767   -0.00006746   -0.00028544
     atom   15 type  3   force =    -0.00007465   -0.00039352   -0.00023528
     The non-local contrib.  to forces
     atom    1 type  1   force =    -0.04187508    0.00051783   -0.00906644
     atom    2 type  1   force =     1.88544975    0.00437838    0.01310745
     atom    3 type  2   force =     0.33685517   -0.00068332    0.00013227
     atom    4 type  2   force =     0.05854555    0.03781631    0.00056217
     atom    5 type  2   force =     0.05781700   -0.03787340    0.00126410
     atom    6 type  2   force =    -0.25838768    0.00011196    0.00127079
     atom    7 type  2   force =    -0.01761645    0.03528558    0.00145106
     atom    8 type  2   force =    -0.01702657   -0.03478824    0.00128269
     atom    9 type  2   force =     0.24021826    0.00007623    0.00150106
     atom   10 type  3   force =    -0.03730164    0.06787561    0.00065786
     atom   11 type  3   force =    -0.03739681   -0.06780568    0.00065373
     atom   12 type  3   force =     0.03980378    0.06871385    0.00065644
     atom   13 type  3   force =     0.03982263   -0.06867116    0.00067209
     atom   14 type  3   force =    -0.05286535   -0.08653199    0.00063834
     atom   15 type  3   force =    -0.05282392    0.08663477    0.00057085
     The ionic contribution  to forces
     atom    1 type  1   force =     9.89737983   -0.00973212   -0.00798562
     atom    2 type  1   force =   -13.55190918   -0.01036117   -0.06138889
     atom    3 type  2   force =     2.63101683   -0.00221937    0.04249324
     atom    4 type  2   force =     2.70992274   -7.03646190    0.03114924
     atom    5 type  2   force =     2.71999307    7.03428879    0.00271255
     atom    6 type  2   force =    -3.43009850   -0.00340139    0.04205913
     atom    7 type  2   force =    -2.66776468   -6.95868736    0.02824967
     atom    8 type  2   force =    -2.64843929    6.96430800    0.00736001
     atom    9 type  2   force =    -1.53040062    0.02689882    0.04401046
     atom   10 type  3   force =     1.50289805   -3.27113471   -0.01962865
     atom   11 type  3   force =     1.50804550    3.26903219   -0.02243350
     atom   12 type  3   force =    -1.47759448   -3.25343416   -0.01878592
     atom   13 type  3   force =    -1.47462019    3.25564929   -0.02179114
     atom   14 type  3   force =     2.90761169    2.86365253   -0.02397986
     atom   15 type  3   force =     2.90395923   -2.86839743   -0.02204070
     The local contribution  to forces
     atom    1 type  1   force =    -9.85520198    0.00960592    0.01748838
     atom    2 type  1   force =    11.67802681    0.00626583    0.04871731
     atom    3 type  2   force =    -2.96397495    0.00273659   -0.04352129
     atom    4 type  2   force =    -2.76590052    7.00034734   -0.03227407
     atom    5 type  2   force =    -2.77585074   -6.99802450   -0.00403883
     atom    6 type  2   force =     3.68671570    0.00344459   -0.04326118
     atom    7 type  2   force =     2.68318983    6.92397930   -0.03018421
     atom    8 type  2   force =     2.66408682   -6.93018431   -0.00887898
     atom    9 type  2   force =     1.30185798   -0.02797447   -0.04612039
     atom   10 type  3   force =    -1.46566050    3.20308586    0.01944611
     atom   11 type  3   force =    -1.47069176   -3.20100445    0.02206605
     atom   12 type  3   force =     1.43753013    3.18466313    0.01878118
     atom   13 type  3   force =     1.43475962   -3.18651525    0.02161152
     atom   14 type  3   force =    -2.85487686   -2.77710026    0.02334589
     atom   15 type  3   force =    -2.85129308    2.78153411    0.02152436
     The core correction contribution to forces
     atom    1 type  1   force =     0.00009261   -0.00000942    0.00007864
     atom    2 type  1   force =    -0.01157505   -0.00001982   -0.00008931
     atom    3 type  2   force =    -0.00386449    0.00010363    0.00106145
     atom    4 type  2   force =    -0.00274536   -0.00155594    0.00069884
     atom    5 type  2   force =    -0.00195736    0.00182749    0.00031749
     atom    6 type  2   force =     0.00132836    0.00009628    0.00011111
     atom    7 type  2   force =     0.00207678   -0.00081082    0.00066102
     atom    8 type  2   force =     0.00117324    0.00111067    0.00048008
     atom    9 type  2   force =    -0.01194598    0.00123381    0.00097710
     atom   10 type  3   force =     0.00000000    0.00000000    0.00000000
     atom   11 type  3   force =     0.00000000    0.00000000    0.00000000
     atom   12 type  3   force =     0.00000000    0.00000000    0.00000000
     atom   13 type  3   force =     0.00000000    0.00000000    0.00000000
     atom   14 type  3   force =     0.00000000    0.00000000    0.00000000
     atom   15 type  3   force =     0.00000000    0.00000000    0.00000000
     The Hubbard contrib.    to forces
     atom    1 type  1   force =     0.00000000    0.00000000    0.00000000
     atom    2 type  1   force =     0.00000000    0.00000000    0.00000000
     atom    3 type  2   force =     0.00000000    0.00000000    0.00000000
     atom    4 type  2   force =     0.00000000    0.00000000    0.00000000
     atom    5 type  2   force =     0.00000000    0.00000000    0.00000000
     atom    6 type  2   force =     0.00000000    0.00000000    0.00000000
     atom    7 type  2   force =     0.00000000    0.00000000    0.00000000
     atom    8 type  2   force =     0.00000000    0.00000000    0.00000000
     atom    9 type  2   force =     0.00000000    0.00000000    0.00000000
     atom   10 type  3   force =     0.00000000    0.00000000    0.00000000
     atom   11 type  3   force =     0.00000000    0.00000000    0.00000000
     atom   12 type  3   force =     0.00000000    0.00000000    0.00000000
     atom   13 type  3   force =     0.00000000    0.00000000    0.00000000
     atom   14 type  3   force =     0.00000000    0.00000000    0.00000000
     atom   15 type  3   force =     0.00000000    0.00000000    0.00000000
     The SCF correction term to forces
     atom    1 type  1   force =    -0.00053723    0.00000129   -0.00000029
     atom    2 type  1   force =    -0.00044182   -0.00000076   -0.00000101
     atom    3 type  2   force =    -0.00015504    0.00000284   -0.00000140
     atom    4 type  2   force =     0.00019290    0.00019122   -0.00000248
     atom    5 type  2   force =     0.00019397   -0.00019092   -0.00000159
     atom    6 type  2   force =     0.00014386    0.00000010   -0.00000101
     atom    7 type  2   force =     0.00028240   -0.00000595   -0.00000177
     atom    8 type  2   force =     0.00028469    0.00000536   -0.00000171
     atom    9 type  2   force =    -0.00003968    0.00000069    0.00000119
     atom   10 type  3   force =    -0.00000616    0.00006154    0.00000007
     atom   11 type  3   force =    -0.00000680   -0.00006217    0.00000018
     atom   12 type  3   force =     0.00001800   -0.00000530   -0.00000025
     atom   13 type  3   force =     0.00001784    0.00000575   -0.00000018
     atom   14 type  3   force =    -0.00002248    0.00003865   -0.00000035
     atom   15 type  3   force =    -0.00002221   -0.00003857   -0.00000033

     Total force =     0.001317     Total SCF correction =     0.000923
     SCF correction compared to forces is large: reduce conv_thr to get better values


     Computing stress (Cartesian axis) and pressure


     negative rho (up, down):  2.940E-01 0.000E+00
          total   stress  (Ry/bohr**3)                   (kbar)     P=       -0.38
  -0.00000248   0.00000001  -0.00000000           -0.36        0.00       -0.00
   0.00000001  -0.00000277   0.00000000            0.00       -0.41        0.00
  -0.00000000   0.00000000  -0.00000245           -0.00        0.00       -0.36

     kinetic stress (kbar)     68.74      0.00      0.01
                                0.00     71.62      0.01
                                0.01      0.01     81.48

     local   stress (kbar)   -648.98      0.18      0.23
                                0.18   -353.70      0.31
                                0.23      0.31    -79.47

     nonloc. stress (kbar)     19.26     -0.00      0.00
                               -0.00     18.64     -0.00
                                0.00     -0.00     18.04

     hartree stress (kbar)    285.62     -0.09     -0.10
                               -0.09    157.28     -0.12
                               -0.10     -0.12     52.89

     exc-cor stress (kbar)     -6.03      0.00     -0.00
                                0.00     -6.22     -0.00
                               -0.00     -0.00     -6.69

     corecor stress (kbar)    -11.85      0.00     -0.00
                                0.00    -11.80      0.00
                               -0.00      0.00    -11.57

     ewald   stress (kbar)    292.88     -0.09     -0.15
                               -0.09    123.77     -0.19
                               -0.15     -0.19    -55.04

     hubbard stress (kbar)      0.00      0.00      0.00
                                0.00      0.00      0.00
                                0.00      0.00      0.00

     DFT-D   stress (kbar)      0.00      0.00      0.00
                                0.00      0.00      0.00
                                0.00      0.00      0.00

     XDM     stress (kbar)      0.00      0.00      0.00
                                0.00      0.00      0.00
                                0.00      0.00      0.00

     dft-nl  stress (kbar)      0.00      0.00      0.00
                                0.00      0.00      0.00
                                0.00      0.00      0.00

     TS-vdW  stress (kbar)      0.00      0.00      0.00
                                0.00      0.00      0.00
                                0.00      0.00      0.00

     MDB     stress (kbar)      0.00      0.00      0.00
                                0.00      0.00      0.00
                                0.00      0.00      0.00

     3D-RISM stress (kbar)      0.00      0.00      0.00
                                0.00      0.00      0.00
                                0.00      0.00      0.00


     Writing all to output data dir ./tmp/H2O.save/ :
     XML data file, charge density, pseudopotentials, collected wavefunctions

     init_run     :      1.84s CPU      2.04s WALL (       1 calls)
     electrons    :     23.55s CPU     26.04s WALL (       1 calls)
     forces       :      1.31s CPU      1.50s WALL (       1 calls)
     stress       :      1.95s CPU      2.26s WALL (       1 calls)

     Called by init_run:
     wfcinit      :      0.87s CPU      0.89s WALL (       1 calls)
     wfcinit:atom :      0.00s CPU      0.00s WALL (       1 calls)
     wfcinit:wfcr :      0.83s CPU      0.85s WALL (       1 calls)
     potinit      :      0.37s CPU      0.43s WALL (       1 calls)
     hinit0       :      0.08s CPU      0.10s WALL (       1 calls)

     Called by electrons:
     c_bands      :     14.44s CPU     14.96s WALL (       9 calls)
     sum_band     :      3.82s CPU      4.55s WALL (       9 calls)
     v_of_rho     :      3.04s CPU      3.53s WALL (      10 calls)
     v_h          :      0.25s CPU      0.30s WALL (      10 calls)
     v_xc         :      3.34s CPU      3.90s WALL (      12 calls)
     newd         :      1.94s CPU      2.59s WALL (      10 calls)
     PAW_pot      :      0.34s CPU      0.34s WALL (      10 calls)
     mix_rho      :      0.37s CPU      0.44s WALL (       9 calls)

     Called by c_bands:
     init_us_2    :      0.16s CPU      0.21s WALL (      19 calls)
     regterg      :     14.26s CPU     14.73s WALL (       9 calls)

     Called by sum_band:
     sum_band:wei :      0.00s CPU      0.00s WALL (       9 calls)
     sum_band:loo :      2.00s CPU      2.06s WALL (       9 calls)
     sum_band:buf :      0.00s CPU      0.00s WALL (       9 calls)
     sum_band:ini :      0.08s CPU      0.09s WALL (       9 calls)
     sum_band:cal :      0.67s CPU      0.68s WALL (       9 calls)
     sum_band:bec :      0.00s CPU      0.00s WALL (       9 calls)
     addusdens    :      1.43s CPU      2.04s WALL (       9 calls)
                                        0.00s GPU  (       9 calls)
     addusd:skk   :      0.04s CPU      0.05s WALL (      27 calls)
                                        0.00s GPU  (      27 calls)

     Called by *egterg:
     rdiaghg      :      0.03s CPU      0.03s WALL (      51 calls)
     regterg:over :      1.11s CPU      1.12s WALL (      42 calls)
     regterg:upda :      0.30s CPU      0.32s WALL (      42 calls)
     regterg:last :      0.90s CPU      0.94s WALL (      20 calls)
     h_psi        :     10.48s CPU     10.81s WALL (      52 calls)
     s_psi        :      1.61s CPU      1.62s WALL (      52 calls)
     g_psi        :      0.02s CPU      0.02s WALL (      42 calls)

     Called by h_psi:
     h_psi:calbec :      2.04s CPU      2.09s WALL (      52 calls)
     vloc_psi     :      6.61s CPU      6.88s WALL (      52 calls)
     add_vuspsi   :      1.78s CPU      1.79s WALL (      52 calls)

     General routines
     calbec       :      3.05s CPU      3.13s WALL (      66 calls)
     fft          :      1.98s CPU      2.20s WALL (     110 calls)
     ffts         :      0.16s CPU      0.17s WALL (       9 calls)
     fftw         :      6.16s CPU      6.39s WALL (     831 calls)

     Parallel routines

     PAW routines
     PAW_pot      :      0.34s CPU      0.34s WALL (      10 calls)

     PWSCF        :     28.81s CPU     32.10s WALL


   This run was terminated on:  23:46: 5  30Jan1998            

=------------------------------------------------------------------------------=
   JOB DONE.
=------------------------------------------------------------------------------=
