
     Program PWSCF v.7.3.1 starts on 28Mar2025 at 16: 6:34 

     This program is part of the open-source Quantum ESPRESSO suite
     for quantum simulation of materials; please cite
         "P. Giannozzi et al., J. Phys.:Condens. Matter 21 395502 (2009);
         "P. Giannozzi et al., J. Phys.:Condens. Matter 29 465901 (2017);
         "P. Giannozzi et al., J. Chem. Phys. 152 154105 (2020);
          URL http://www.quantum-espresso.org", 
     in publications or presentations arising from this work. More details at
     http://www.quantum-espresso.org/quote

     Parallel version (MPI), running on    33 processors

     MPI processes distributed on     1 nodes
     14828 MiB available memory on the printing compute node when the environment starts

     Waiting for input...
     Reading input from standard input
Warning: card &CELL ignored
Warning: card   CELL_DOFREE = 'ALL' ignored
Warning: card / ignored

     Current dimensions of program PWSCF are:
     Max number of different atomic species (ntypx) = 10
     Max number of k-points (npk) =  40000
     Max angular momentum in pseudopotentials (lmaxx) =  4

     R & G space division:  proc/nbgrp/npool/nimage =      33
     Subspace diagonalization in iterative solution of the eigenvalue problem:
     one sub-group per band group will be used
     custom distributed-memory algorithm (size of sub-group:  5*  5 procs)


     Parallelization info
     --------------------
     sticks:   dense  smooth     PW     G-vecs:    dense   smooth      PW
     Min         245     140     36                38015    16424    2211
     Max         246     141     37                38023    16429    2226
     Sum        8103    4637   1215              1254623   542067   73181

     Using Slab Decomposition



     bravais-lattice index     =            0
     lattice parameter (alat)  =      18.4179  a.u.
     unit-cell volume          =   15858.2170 (a.u.)^3
     number of atoms/cell      =           48
     number of atomic types    =            1
     number of electrons       =       960.00
     number of Kohn-Sham states=          576
     kinetic-energy cutoff     =      40.0000  Ry
     charge density cutoff     =     280.0000  Ry
     scf convergence threshold =      1.0E-06
     mixing beta               =       0.4000
     number of iterations used =            8  plain     mixing
     energy convergence thresh.=      1.0E-05
     force convergence thresh. =      5.0E-04
     Exchange-correlation= SLA  PW   PBE  PBE
                           (   1   4   3   4   0   0   0)
     nstep                     =          100


     celldm(1)=  18.417879  celldm(2)=   0.000000  celldm(3)=   0.000000
     celldm(4)=   0.000000  celldm(5)=   0.000000  celldm(6)=   0.000000

     crystal axes: (cart. coord. in units of alat)
               a(1) = (   1.000000   0.000000   0.000000 )  
               a(2) = (   0.000000   1.072963   0.000000 )  
               a(3) = (   0.000000  -1.365810   2.365652 )  

     reciprocal axes: (cart. coord. in units 2 pi/alat)
               b(1) = (  1.000000  0.000000 -0.000000 )  
               b(2) = ( -0.000000  0.931999  0.538090 )  
               b(3) = (  0.000000  0.000000  0.422716 )  


     PseudoPot. # 1 for Zn read from file:
     /home/ys/qepseudo/SSSP_1.3.0_PBE_efficiency/Zn_pbe_v1.uspp.F.UPF
     MD5 check sum: df62231357ef9e81f77b2b3087fa5675
     Pseudo is Ultrasoft, Zval = 20.0
     Generated by new atomic code, or converted to UPF format
     Using radial grid of  943 points,  6 beta functions with: 
                l(1) =   0
                l(2) =   0
                l(3) =   1
                l(4) =   1
                l(5) =   2
                l(6) =   2
     Q(r) pseudized with  8 coefficients,  rinner =    1.100   1.100   1.100
                                                       1.100   1.100

     atomic species   valence    mass     pseudopotential
     Zn               20.00    65.38000     Zn( 1.00)

     No symmetry found


                                    s                        frac. trans.

      isym =  1     identity                                     

 cryst.   s( 1) = (     1          0          0      )
                  (     0          1          0      )
                  (     0          0          1      )

 cart.    s( 1) = (  1.0000000  0.0000000  0.0000000 )
                  (  0.0000000  1.0000000 -0.0000000 )
                  (  0.0000000  0.0000000  1.0000000 )


   Cartesian axes

     site n.     atom                  positions (alat units)
         1        Zn     tau(   1) = (   0.1250000   0.1341203   0.0774344  )
         2        Zn     tau(   2) = (   0.1250000   0.6706017   0.0774344  )
         3        Zn     tau(   3) = (   0.1250345  -0.0000312   0.3643370  )
         4        Zn     tau(   4) = (   0.1250365   0.5365169   0.3642819  )
         5        Zn     tau(   5) = (   0.1250328  -0.1341454   0.6274337  )
         6        Zn     tau(   6) = (   0.1250292   0.4023904   0.6274812  )
         7        Zn     tau(   7) = (   0.1250000   0.4023610   0.0774344  )
         8        Zn     tau(   8) = (   0.1250000   0.9388424   0.0774344  )
         9        Zn     tau(   9) = (   0.1250305   0.2682173   0.3643654  )
        10        Zn     tau(  10) = (   0.1250381   0.8047498   0.3642617  )
        11        Zn     tau(  11) = (   0.1250274   0.1341034   0.6275139  )
        12        Zn     tau(  12) = (   0.1250345   0.6706190   0.6274035  )
        13        Zn     tau(  13) = (   0.6250000   0.1341203   0.0774344  )
        14        Zn     tau(  14) = (   0.6250000   0.6706017   0.0774344  )
        15        Zn     tau(  15) = (   0.6249716  -0.0000247   0.3640919  )
        16        Zn     tau(  16) = (   0.6249698   0.5365108   0.3640946  )
        17        Zn     tau(  17) = (   0.6249716  -0.1341591   0.6274598  )
        18        Zn     tau(  18) = (   0.6249723   0.4024038   0.6275344  )
        19        Zn     tau(  19) = (   0.6250000   0.4023610   0.0774344  )
        20        Zn     tau(  20) = (   0.6250000   0.9388424   0.0774344  )
        21        Zn     tau(  21) = (   0.6249758   0.2682617   0.3641690  )
        22        Zn     tau(  22) = (   0.6249694   0.8047052   0.3640230  )
        23        Zn     tau(  23) = (   0.6249745   0.1341146   0.6275544  )
        24        Zn     tau(  24) = (   0.6249693   0.6706074   0.6274400  )
        25        Zn     tau(  25) = (   0.3750000  -0.0000000   0.1548688  )
        26        Zn     tau(  26) = (   0.3750000   0.5364814   0.1548688  )
        27        Zn     tau(  27) = (   0.3749281  -0.1341537   0.3920895  )
        28        Zn     tau(  28) = (   0.3749194   0.4023971   0.3920834  )
        29        Zn     tau(  29) = (   0.3748208  -0.2682499   0.6372202  )
        30        Zn     tau(  30) = (   0.3748194   0.2682580   0.6373025  )
        31        Zn     tau(  31) = (   0.3750000   0.2682407   0.1548688  )
        32        Zn     tau(  32) = (   0.3750000   0.8047221   0.1548688  )
        33        Zn     tau(  33) = (   0.3749260   0.1340898   0.3920843  )
        34        Zn     tau(  34) = (   0.3749219   0.6706312   0.3920895  )
        35        Zn     tau(  35) = (   0.3748132  -0.0000171   0.6372658  )
        36        Zn     tau(  36) = (   0.3748269   0.5365047   0.6372555  )
        37        Zn     tau(  37) = (   0.8750000  -0.0000000   0.1548688  )
        38        Zn     tau(  38) = (   0.8750000   0.5364814   0.1548688  )
        39        Zn     tau(  39) = (   0.8750678  -0.1341422   0.3920958  )
        40        Zn     tau(  40) = (   0.8750850   0.4023832   0.3920848  )
        41        Zn     tau(  41) = (   0.8751774  -0.2682441   0.6372394  )
        42        Zn     tau(  42) = (   0.8751811   0.2682515   0.6373104  )
        43        Zn     tau(  43) = (   0.8750000   0.2682407   0.1548688  )
        44        Zn     tau(  44) = (   0.8750000   0.8047221   0.1548688  )
        45        Zn     tau(  45) = (   0.8750788   0.1340975   0.3920835  )
        46        Zn     tau(  46) = (   0.8750738   0.6706258   0.3920980  )
        47        Zn     tau(  47) = (   0.8751860   0.0000000   0.6372756  )
        48        Zn     tau(  48) = (   0.8751710   0.5364884   0.6372736  )

     --------------------------------------------
     DFT-D3 Dispersion Correction (3-body terms):
     --------------------------------------------
       Reference C6 values for interpolation: 

         atom   Coordination number   C6
         Zn         0.000           681.04
         Zn         1.942           306.91

       Values used:

         atom   Coordination number  R0_AB[au]  C6      C8
         Zn         4.572            3.053    306.91  23930.67
         Zn         4.573            3.053    306.91  23930.67
         Zn         6.645            3.053    306.91  23930.67
         Zn         6.645            3.053    306.91  23930.67
         Zn         5.846            3.053    306.91  23930.67
         Zn         5.843            3.053    306.91  23930.67
         Zn         4.572            3.053    306.91  23930.67
         Zn         4.573            3.053    306.91  23930.67
         Zn         6.643            3.053    306.91  23930.67
         Zn         6.647            3.053    306.91  23930.67
         Zn         5.843            3.053    306.91  23930.67
         Zn         5.846            3.053    306.91  23930.67
         Zn         4.575            3.053    306.91  23930.67
         Zn         4.577            3.053    306.91  23930.67
         Zn         6.635            3.053    306.91  23930.67
         Zn         6.636            3.053    306.91  23930.67
         Zn         5.821            3.053    306.91  23930.67
         Zn         5.821            3.053    306.91  23930.67
         Zn         4.576            3.053    306.91  23930.67
         Zn         4.577            3.053    306.91  23930.67
         Zn         6.633            3.053    306.91  23930.67
         Zn         6.638            3.053    306.91  23930.67
         Zn         5.819            3.053    306.91  23930.67
         Zn         5.823            3.053    306.91  23930.67
         Zn         6.056            3.053    306.91  23930.67
         Zn         6.057            3.053    306.91  23930.67
         Zn         7.875            3.053    306.91  23930.67
         Zn         7.873            3.053    306.91  23930.67
         Zn         6.112            3.053    306.91  23930.67
         Zn         6.107            3.053    306.91  23930.67
         Zn         6.056            3.053    306.91  23930.67
         Zn         6.057            3.053    306.91  23930.67
         Zn         7.872            3.053    306.91  23930.67
         Zn         7.876            3.053    306.91  23930.67
         Zn         6.109            3.053    306.91  23930.67
         Zn         6.110            3.053    306.91  23930.67
         Zn         6.056            3.053    306.91  23930.67
         Zn         6.056            3.053    306.91  23930.67
         Zn         7.872            3.053    306.91  23930.67
         Zn         7.869            3.053    306.91  23930.67
         Zn         6.108            3.053    306.91  23930.67
         Zn         6.105            3.053    306.91  23930.67
         Zn         6.055            3.053    306.91  23930.67
         Zn         6.056            3.053    306.91  23930.67
         Zn         7.869            3.053    306.91  23930.67
         Zn         7.872            3.053    306.91  23930.67
         Zn         6.106            3.053    306.91  23930.67
         Zn         6.107            3.053    306.91  23930.67

         Molecular C6 ( Ry / a.u.^6 ) =    707110.50


   Crystallographic axes

     site n.     atom                  positions (cryst. coord.)
         1        Zn     tau(   1) = (  0.1250000  0.1666667  0.0327328  )
         2        Zn     tau(   2) = (  0.1250000  0.6666667  0.0327328  )
         3        Zn     tau(   3) = (  0.1250345  0.1960170  0.1540112  )
         4        Zn     tau(   4) = (  0.1250365  0.6960495  0.1539879  )
         5        Zn     tau(   5) = (  0.1250328  0.2125923  0.2652265  )
         6        Zn     tau(   6) = (  0.1250292  0.7126686  0.2652466  )
         7        Zn     tau(   7) = (  0.1250000  0.4166667  0.0327328  )
         8        Zn     tau(   8) = (  0.1250000  0.9166667  0.0327328  )
         9        Zn     tau(   9) = (  0.1250305  0.4460396  0.1540232  )
        10        Zn     tau(  10) = (  0.1250381  0.9460314  0.1539794  )
        11        Zn     tau(  11) = (  0.1250274  0.4626430  0.2652604  )
        12        Zn     tau(  12) = (  0.1250345  0.9626155  0.2652137  )
        13        Zn     tau(  13) = (  0.6250000  0.1666667  0.0327328  )
        14        Zn     tau(  14) = (  0.6250000  0.6666667  0.0327328  )
        15        Zn     tau(  15) = (  0.6249716  0.1958911  0.1539076  )
        16        Zn     tau(  16) = (  0.6249698  0.6959430  0.1539087  )
        17        Zn     tau(  17) = (  0.6249716  0.2125936  0.2652376  )
        18        Zn     tau(  18) = (  0.6249723  0.7127098  0.2652691  )
        19        Zn     tau(  19) = (  0.6250000  0.4166667  0.0327328  )
        20        Zn     tau(  20) = (  0.6250000  0.9166667  0.0327328  )
        21        Zn     tau(  21) = (  0.6249758  0.4459752  0.1539402  )
        22        Zn     tau(  22) = (  0.6249694  0.9458614  0.1538785  )
        23        Zn     tau(  23) = (  0.6249745  0.4626753  0.2652775  )
        24        Zn     tau(  24) = (  0.6249693  0.9626244  0.2652292  )
        25        Zn     tau(  25) = (  0.3750000  0.0833333  0.0654656  )
        26        Zn     tau(  26) = (  0.3750000  0.5833333  0.0654656  )
        27        Zn     tau(  27) = (  0.3749281  0.0859483  0.1657427  )
        28        Zn     tau(  28) = (  0.3749194  0.5860097  0.1657401  )
        29        Zn     tau(  29) = (  0.3748208  0.0928731  0.2693634  )
        30        Zn     tau(  30) = (  0.3748194  0.5929421  0.2693982  )
        31        Zn     tau(  31) = (  0.3750000  0.3333333  0.0654656  )
        32        Zn     tau(  32) = (  0.3750000  0.8333334  0.0654656  )
        33        Zn     tau(  33) = (  0.3749260  0.3359481  0.1657405  )
        34        Zn     tau(  34) = (  0.3749219  0.8360069  0.1657426  )
        35        Zn     tau(  35) = (  0.3748132  0.3428903  0.2693827  )
        36        Zn     tau(  36) = (  0.3748269  0.8429225  0.2693783  )
        37        Zn     tau(  37) = (  0.8750000  0.0833333  0.0654656  )
        38        Zn     tau(  38) = (  0.8750000  0.5833333  0.0654656  )
        39        Zn     tau(  39) = (  0.8750678  0.0859624  0.1657453  )
        40        Zn     tau(  40) = (  0.8750850  0.5859975  0.1657407  )
        41        Zn     tau(  41) = (  0.8751774  0.0928888  0.2693715  )
        42        Zn     tau(  42) = (  0.8751811  0.5929403  0.2694015  )
        43        Zn     tau(  43) = (  0.8750000  0.3333333  0.0654656  )
        44        Zn     tau(  44) = (  0.8750000  0.8333334  0.0654656  )
        45        Zn     tau(  45) = (  0.8750788  0.3359548  0.1657401  )
        46        Zn     tau(  46) = (  0.8750738  0.8360064  0.1657463  )
        47        Zn     tau(  47) = (  0.8751860  0.3429116  0.2693869  )
        48        Zn     tau(  48) = (  0.8751710  0.8429170  0.2693860  )

     number of k points=     5  Marzari-Vanderbilt smearing, width (Ry)=  0.0200
                       cart. coord. in units 2pi/alat
        k(    1) = (   0.0000000   0.0000000   0.0000000), wk =   0.2222222
        k(    2) = (   0.0000000   0.3106663   0.1793633), wk =   0.4444444
        k(    3) = (   0.3333333   0.0000000   0.0000000), wk =   0.4444444
        k(    4) = (   0.3333333   0.3106663   0.1793633), wk =   0.4444444
        k(    5) = (   0.3333333  -0.3106663  -0.1793633), wk =   0.4444444

                       cryst. coord.
        k(    1) = (   0.0000000   0.0000000   0.0000000), wk =   0.2222222
        k(    2) = (   0.0000000   0.3333333  -0.0000000), wk =   0.4444444
        k(    3) = (   0.3333333   0.0000000   0.0000000), wk =   0.4444444
        k(    4) = (   0.3333333   0.3333333  -0.0000000), wk =   0.4444444
        k(    5) = (   0.3333333  -0.3333333   0.0000000), wk =   0.4444444

     Dense  grid:  1254623 G-vectors     FFT dimensions: ( 100, 108, 270)

     Smooth grid:   542067 G-vectors     FFT dimensions: (  75,  80, 216)

     Dynamical RAM for                 wfc:      18.04 MB

     Dynamical RAM for     wfc (w. buffer):     108.21 MB

     Dynamical RAM for           str. fact:       0.58 MB

     Dynamical RAM for           local pot:       0.00 MB

     Dynamical RAM for          nlocal pot:      27.05 MB

     Dynamical RAM for                qrad:       1.34 MB

     Dynamical RAM for          rho,v,vnew:       3.97 MB

     Dynamical RAM for               rhoin:       1.32 MB

     Dynamical RAM for            rho*nmix:       9.28 MB

     Dynamical RAM for           G-vectors:       2.30 MB

     Dynamical RAM for          h,s,v(r/c):       2.42 MB

     Dynamical RAM for          <psi|beta>:       7.59 MB

     Dynamical RAM for                 psi:      36.07 MB

     Dynamical RAM for                hpsi:      36.07 MB

     Dynamical RAM for                spsi:      36.07 MB

     Dynamical RAM for      wfcinit/wfcrot:      47.99 MB

     Dynamical RAM for           addusdens:     135.76 MB

     Dynamical RAM for          addusforce:     190.77 MB

     Dynamical RAM for         addusstress:     116.61 MB

     Estimated static dynamical RAM per process >     149.64 MB

     Estimated max dynamical RAM per process >     349.69 MB

     Estimated total dynamical RAM >      11.27 GB

     Initial potential from superposition of free atoms

     starting charge     959.9932, renormalised to     960.0000

     negative rho (up, down):  3.901E-03 0.000E+00
     Starting wfcs are  624 randomized atomic wfcs

     total cpu time spent up to now is       65.5 secs

     Self-consistent Calculation

     iteration #  1     ecut=    40.00 Ry     beta= 0.40
     Davidson diagonalization with overlap

---- Real-time Memory Report at c_bands before calling an iterative solver
           221 MiB given to the printing process from OS
             0 MiB allocation reported by mallinfo(arena+hblkhd)
          9015 MiB available memory on the node where the printing process lives
------------------
     ethr =  1.00E-02,  avg # of iterations =  8.4

     Threshold (ethr) on eigenvalues was too large:
     Diagonalizing with lowered threshold

     Davidson diagonalization with overlap

---- Real-time Memory Report at c_bands before calling an iterative solver
           319 MiB given to the printing process from OS
             0 MiB allocation reported by mallinfo(arena+hblkhd)
          7783 MiB available memory on the node where the printing process lives
------------------
     ethr =  1.25E-04,  avg # of iterations = 12.2

     negative rho (up, down):  4.674E-03 0.000E+00

     total cpu time spent up to now is      927.5 secs

     total energy              =  -22154.42574812 Ry
     estimated scf accuracy    <       1.24328383 Ry

     iteration #  2     ecut=    40.00 Ry     beta= 0.40
     Davidson diagonalization with overlap

---- Real-time Memory Report at c_bands before calling an iterative solver
           330 MiB given to the printing process from OS
             0 MiB allocation reported by mallinfo(arena+hblkhd)
          7601 MiB available memory on the node where the printing process lives
------------------
     ethr =  1.30E-04,  avg # of iterations =  2.0

     negative rho (up, down):  5.189E-03 0.000E+00

     total cpu time spent up to now is     1350.6 secs

     total energy              =  -22154.65977985 Ry
     estimated scf accuracy    <       0.38363807 Ry

     iteration #  3     ecut=    40.00 Ry     beta= 0.40
     Davidson diagonalization with overlap

---- Real-time Memory Report at c_bands before calling an iterative solver
           334 MiB given to the printing process from OS
             0 MiB allocation reported by mallinfo(arena+hblkhd)
          7395 MiB available memory on the node where the printing process lives
------------------
     ethr =  4.00E-05,  avg # of iterations =  9.4

     negative rho (up, down):  5.742E-03 0.000E+00

     total cpu time spent up to now is     1757.9 secs

     total energy              =  -22154.60771773 Ry
     estimated scf accuracy    <       1.86186200 Ry

     iteration #  4     ecut=    40.00 Ry     beta= 0.40
     Davidson diagonalization with overlap

---- Real-time Memory Report at c_bands before calling an iterative solver
           335 MiB given to the printing process from OS
             0 MiB allocation reported by mallinfo(arena+hblkhd)
          7191 MiB available memory on the node where the printing process lives
------------------
     c_bands:  1 eigenvalues not converged
     ethr =  4.00E-05,  avg # of iterations = 11.6

     negative rho (up, down):  5.646E-03 0.000E+00

     total cpu time spent up to now is     2159.5 secs

     total energy              =  -22154.72568069 Ry
     estimated scf accuracy    <       0.10085220 Ry

     iteration #  5     ecut=    40.00 Ry     beta= 0.40
     Davidson diagonalization with overlap

---- Real-time Memory Report at c_bands before calling an iterative solver
           335 MiB given to the printing process from OS
             0 MiB allocation reported by mallinfo(arena+hblkhd)
          7008 MiB available memory on the node where the printing process lives
------------------
     c_bands:  2 eigenvalues not converged
     ethr =  1.05E-05,  avg # of iterations = 13.6

     negative rho (up, down):  5.643E-03 0.000E+00

     total cpu time spent up to now is     2570.2 secs

     total energy              =  -22154.72943983 Ry
     estimated scf accuracy    <       0.06553477 Ry

     iteration #  6     ecut=    40.00 Ry     beta= 0.40
     Davidson diagonalization with overlap

---- Real-time Memory Report at c_bands before calling an iterative solver
           336 MiB given to the printing process from OS
             0 MiB allocation reported by mallinfo(arena+hblkhd)
          6789 MiB available memory on the node where the printing process lives
------------------
     c_bands:  1 eigenvalues not converged
     ethr =  6.83E-06,  avg # of iterations = 10.0

     negative rho (up, down):  5.691E-03 0.000E+00

     total cpu time spent up to now is     2951.8 secs

     total energy              =  -22154.73624227 Ry
     estimated scf accuracy    <       0.00063684 Ry

     iteration #  7     ecut=    40.00 Ry     beta= 0.40
     Davidson diagonalization with overlap

---- Real-time Memory Report at c_bands before calling an iterative solver
           337 MiB given to the printing process from OS
             0 MiB allocation reported by mallinfo(arena+hblkhd)
          6589 MiB available memory on the node where the printing process lives
------------------
     ethr =  6.63E-08,  avg # of iterations =  4.6

     negative rho (up, down):  5.717E-03 0.000E+00

     total cpu time spent up to now is     3400.8 secs

     total energy              =  -22154.73642983 Ry
     estimated scf accuracy    <       0.00005754 Ry

     iteration #  8     ecut=    40.00 Ry     beta= 0.40
     Davidson diagonalization with overlap

---- Real-time Memory Report at c_bands before calling an iterative solver
           337 MiB given to the printing process from OS
             0 MiB allocation reported by mallinfo(arena+hblkhd)
          6294 MiB available memory on the node where the printing process lives
------------------
     ethr =  5.99E-09,  avg # of iterations =  2.0

     negative rho (up, down):  5.734E-03 0.000E+00

     total cpu time spent up to now is     3767.5 secs

     total energy              =  -22154.73643385 Ry
     estimated scf accuracy    <       0.00002777 Ry

     iteration #  9     ecut=    40.00 Ry     beta= 0.40
     Davidson diagonalization with overlap

---- Real-time Memory Report at c_bands before calling an iterative solver
           338 MiB given to the printing process from OS
             0 MiB allocation reported by mallinfo(arena+hblkhd)
          6105 MiB available memory on the node where the printing process lives
------------------
     ethr =  2.89E-09,  avg # of iterations =  2.8

     negative rho (up, down):  5.744E-03 0.000E+00

     total cpu time spent up to now is     4129.8 secs

     total energy              =  -22154.73643739 Ry
     estimated scf accuracy    <       0.00002902 Ry

     iteration # 10     ecut=    40.00 Ry     beta= 0.40
     Davidson diagonalization with overlap

---- Real-time Memory Report at c_bands before calling an iterative solver
           338 MiB given to the printing process from OS
             0 MiB allocation reported by mallinfo(arena+hblkhd)
          5908 MiB available memory on the node where the printing process lives
------------------
     ethr =  2.89E-09,  avg # of iterations =  2.0

     negative rho (up, down):  5.751E-03 0.000E+00

     total cpu time spent up to now is     4487.9 secs

     total energy              =  -22154.73644110 Ry
     estimated scf accuracy    <       0.00000167 Ry

     iteration # 11     ecut=    40.00 Ry     beta= 0.40
     Davidson diagonalization with overlap

---- Real-time Memory Report at c_bands before calling an iterative solver
           339 MiB given to the printing process from OS
             0 MiB allocation reported by mallinfo(arena+hblkhd)
          5754 MiB available memory on the node where the printing process lives
------------------
     ethr =  1.74E-10,  avg # of iterations =  2.0

     negative rho (up, down):  5.761E-03 0.000E+00

     total cpu time spent up to now is     4917.1 secs

     End of self-consistent calculation

          k = 0.0000 0.0000 0.0000 ( 67685 PWs)   bands (ev):

  -125.1286-125.1285-125.1277-125.1277-125.1274-125.1274-125.1266-125.1265
  -124.9838-124.9830-124.9829-124.9824-124.9820-124.9815-124.9815-124.9806
  -124.9593-124.9591-124.9584-124.9584-124.9583-124.9582-124.9575-124.9574
  -124.9066-124.9062-124.9057-124.9057-124.9054-124.9053-124.9048-124.9044
  -124.8749-124.8741-124.8741-124.8732-124.8721-124.8712-124.8712-124.8703
  -124.8118-124.8118-124.8110-124.8110-124.8110-124.8109-124.8101-124.8101
   -79.2869 -79.2868 -79.2841 -79.2841 -79.2830 -79.2830 -79.2828 -79.2828
   -79.2817 -79.2816 -79.2782 -79.2777 -79.2770 -79.2768 -79.2768 -79.2765
   -79.2756 -79.2755 -79.2744 -79.2744 -79.2744 -79.2743 -79.2619 -79.2619
   -79.1432 -79.1423 -79.1422 -79.1417 -79.1413 -79.1408 -79.1408 -79.1398
   -79.1396 -79.1386 -79.1385 -79.1382 -79.1375 -79.1375 -79.1372 -79.1372
   -79.1361 -79.1361 -79.1253 -79.1252 -79.1238 -79.1238 -79.1236 -79.1235
   -79.1227 -79.1226 -79.1225 -79.1225 -79.1217 -79.1216 -79.1170 -79.1167
   -79.1129 -79.1115 -79.1060 -79.1051 -79.1046 -79.1046 -79.1046 -79.1046
   -79.1044 -79.1044 -79.1043 -79.1042 -79.1034 -79.1031 -79.0922 -79.0921
   -79.0661 -79.0658 -79.0657 -79.0654 -79.0652 -79.0652 -79.0648 -79.0648
   -79.0643 -79.0639 -79.0564 -79.0560 -79.0554 -79.0553 -79.0550 -79.0550
   -79.0543 -79.0539 -79.0535 -79.0535 -79.0531 -79.0531 -79.0412 -79.0408
   -79.0362 -79.0352 -79.0352 -79.0343 -79.0334 -79.0325 -79.0324 -79.0315
   -79.0306 -79.0277 -79.0270 -79.0261 -79.0261 -79.0253 -79.0239 -79.0232
   -79.0231 -79.0223 -79.0184 -79.0184 -79.0155 -79.0155 -79.0061 -79.0033
   -78.9864 -78.9863 -78.9854 -78.9854 -78.9854 -78.9854 -78.9845 -78.9845
   -78.9648 -78.9647 -78.9603 -78.9601 -78.9593 -78.9593 -78.9593 -78.9592
   -78.9584 -78.9583 -78.9525 -78.9525 -78.9524 -78.9524 -78.9402 -78.9401
    -8.0945  -7.1197  -6.9622  -6.8347  -6.8237  -6.8237  -6.7275  -6.7186
    -6.7136  -6.7004  -6.6587  -6.6341  -6.6141  -6.6089  -6.5505  -6.5464
    -6.5372  -6.5207  -6.5076  -6.5000  -6.4903  -6.4689  -6.4689  -6.4642
    -6.4642  -6.4635  -6.4368  -6.4368  -6.4311  -6.4175  -6.4175  -6.4080
    -6.3846  -6.3742  -6.3742  -6.3666  -6.3666  -6.3533  -6.3522  -6.3522
    -6.3514  -6.3514  -6.3328  -6.3264  -6.3025  -6.3024  -6.2552  -6.2327
    -6.2321  -6.2320  -6.2314  -6.2236  -6.2208  -6.2127  -6.2127  -6.2125
    -6.2123  -6.1818  -6.1818  -6.1811  -6.1811  -6.1771  -6.1771  -6.1702
    -6.1682  -6.1457  -6.1457  -6.1414  -6.1373  -6.1332  -6.1130  -6.1129
    -6.1103  -6.1028  -6.0998  -6.0997  -6.0812  -6.0719  -6.0719  -6.0669
    -6.0668  -6.0647  -6.0596  -6.0569  -6.0569  -6.0410  -6.0410  -6.0370
    -6.0370  -6.0337  -6.0307  -6.0171  -5.9916  -5.9915  -5.9873  -5.9873
    -5.9745  -5.9745  -5.9722  -5.9721  -5.9426  -5.9328  -5.9223  -5.9176
    -5.9158  -5.9136  -5.9122  -5.9040  -5.9040  -5.9037  -5.9036  -5.8860
    -5.8705  -5.8705  -5.8669  -5.8669  -5.8535  -5.8507  -5.8507  -5.8499
    -5.8499  -5.8479  -5.8310  -5.8252  -5.8251  -5.8166  -5.8166  -5.8091
    -5.8091  -5.8081  -5.7948  -5.7948  -5.7815  -5.7778  -5.7692  -5.7660
    -5.7583  -5.7577  -5.7554  -5.7554  -5.7456  -5.7439  -5.7439  -5.7435
    -5.7435  -5.7425  -5.7408  -5.7408  -5.7350  -5.7237  -5.7123  -5.7088
    -5.7088  -5.7085  -5.6829  -5.6829  -5.6818  -5.6818  -5.6801  -5.6800
    -5.6743  -5.6734  -5.6734  -5.6733  -5.6733  -5.6725  -5.6686  -5.6552
    -5.6498  -5.6473  -5.6404  -5.6395  -5.6394  -5.6394  -5.6366  -5.6342
    -5.6338  -5.6262  -5.6261  -5.6253  -5.6238  -5.6238  -5.6159  -5.6159
    -5.6158  -5.5985  -5.5897  -5.5897  -5.5756  -5.5756  -5.5704  -5.5650
    -5.5637  -5.5597  -5.5597  -5.5584  -5.5582  -5.5561  -5.5561  -5.5513
    -5.5375  -5.5308  -5.5294  -5.5275  -5.5246  -5.5162  -5.5085  -5.5085
    -5.4917  -5.4892  -5.4732  -5.4732  -5.4724  -5.4724  -5.4633  -5.4562
    -5.4562  -5.4508  -5.4430  -5.4430  -5.4418  -5.4418  -5.4408  -5.4395
    -5.4348  -5.4348  -5.4302  -5.4267  -5.4172  -5.4128  -5.4115  -5.4030
    -5.3801  -5.3776  -5.3711  -5.3511  -5.3434  -5.3294  -5.3238  -5.3003
    -5.2814  -5.2659  -5.2635  -5.2480  -5.2040  -5.1986  -4.5196  -4.5195
    -4.5016  -4.5016  -4.4003  -4.2959  -4.2470  -4.2470  -3.4851  -3.0495
    -3.0495  -2.9295  -2.9295  -2.3563  -2.3563  -2.2191  -2.0261  -1.7944
    -1.7396  -1.1248  -0.9815  -0.9815  -0.9341  -0.7766  -0.6610  -0.6610
    -0.5262  -0.3804  -0.2629  -0.2628  -0.2268   0.0212   0.2608   0.2608
     0.3863   0.5195   0.5936   0.7589   0.7902   0.7902   0.8585   0.8586
     1.1220   1.1339   1.4869   1.8161   1.9907   1.9907   2.2553   2.2747
     2.2879   2.3007   2.3008   2.4755   2.7050   2.7050   2.7903   2.7903
     3.2133   3.3974   3.4561   3.7079   3.7890   3.7890   3.9095   3.9847
     4.0333   4.0333   4.1484   4.4180   4.4417   4.4418   4.6794   4.7464
     4.9969   5.1205   5.2228   5.2449   5.2491   5.3949   5.3949   5.4579
     5.4683   5.4683   6.0270   6.0270   6.0343   6.0343   6.0594   6.1185
     6.2415   6.2592   6.3229   6.3490   6.4668   6.4668   6.5936   6.6138
     6.7003   6.7003   6.7262   6.7457   6.8603   6.9210   6.9235   6.9235
     7.0003   7.0003   7.1630   7.1630   7.1965   7.2136   7.2598   7.2598
     7.2931   7.4871   7.5322   7.5733   7.6397   7.6397   7.6721   7.6721
     7.7088   7.7607   7.9415   7.9489   7.9646   8.0231   8.0231   8.0959
     8.0959   8.0982   8.1171   8.1172   8.3511   8.4062   8.4243   8.4263

     occupation numbers 
     1.0000   1.0000   1.0000   1.0000   1.0000   1.0000   1.0000   1.0000
     1.0000   1.0000   1.0000   1.0000   1.0000   1.0000   1.0000   1.0000
     1.0000   1.0000   1.0000   1.0000   1.0000   1.0000   1.0000   1.0000
     1.0000   1.0000   1.0000   1.0000   1.0000   1.0000   1.0000   1.0000
     1.0000   1.0000   1.0000   1.0000   1.0000   1.0000   1.0000   1.0000
     1.0000   1.0000   1.0000   1.0000   1.0000   1.0000   1.0000   1.0000
     1.0000   1.0000   1.0000   1.0000   1.0000   1.0000   1.0000   1.0000
     1.0000   1.0000   1.0000   1.0000   1.0000   1.0000   1.0000   1.0000
     1.0000   1.0000   1.0000   1.0000   1.0000   1.0000   1.0000   1.0000
     1.0000   1.0000   1.0000   1.0000   1.0000   1.0000   1.0000   1.0000
     1.0000   1.0000   1.0000   1.0000   1.0000   1.0000   1.0000   1.0000
     1.0000   1.0000   1.0000   1.0000   1.0000   1.0000   1.0000   1.0000
     1.0000   1.0000   1.0000   1.0000   1.0000   1.0000   1.0000   1.0000
     1.0000   1.0000   1.0000   1.0000   1.0000   1.0000   1.0000   1.0000
     1.0000   1.0000   1.0000   1.0000   1.0000   1.0000   1.0000   1.0000
     1.0000   1.0000   1.0000   1.0000   1.0000   1.0000   1.0000   1.0000
     1.0000   1.0000   1.0000   1.0000   1.0000   1.0000   1.0000   1.0000
     1.0000   1.0000   1.0000   1.0000   1.0000   1.0000   1.0000   1.0000
     1.0000   1.0000   1.0000   1.0000   1.0000   1.0000   1.0000   1.0000
     1.0000   1.0000   1.0000   1.0000   1.0000   1.0000   1.0000   1.0000
     1.0000   1.0000   1.0000   1.0000   1.0000   1.0000   1.0000   1.0000
     1.0000   1.0000   1.0000   1.0000   1.0000   1.0000   1.0000   1.0000
     1.0000   1.0000   1.0000   1.0000   1.0000   1.0000   1.0000   1.0000
     1.0000   1.0000   1.0000   1.0000   1.0000   1.0000   1.0000   1.0000
     1.0000   1.0000   1.0000   1.0000   1.0000   1.0000   1.0000   1.0000
     1.0000   1.0000   1.0000   1.0000   1.0000   1.0000   1.0000   1.0000
     1.0000   1.0000   1.0000   1.0000   1.0000   1.0000   1.0000   1.0000
     1.0000   1.0000   1.0000   1.0000   1.0000   1.0000   1.0000   1.0000
     1.0000   1.0000   1.0000   1.0000   1.0000   1.0000   1.0000   1.0000
     1.0000   1.0000   1.0000   1.0000   1.0000   1.0000   1.0000   1.0000
     1.0000   1.0000   1.0000   1.0000   1.0000   1.0000   1.0000   1.0000
     1.0000   1.0000   1.0000   1.0000   1.0000   1.0000   1.0000   1.0000
     1.0000   1.0000   1.0000   1.0000   1.0000   1.0000   1.0000   1.0000
     1.0000   1.0000   1.0000   1.0000   1.0000   1.0000   1.0000   1.0000
     1.0000   1.0000   1.0000   1.0000   1.0000   1.0000   1.0000   1.0000
     1.0000   1.0000   1.0000   1.0000   1.0000   1.0000   1.0000   1.0000
     1.0000   1.0000   1.0000   1.0000   1.0000   1.0000   1.0000   1.0000
     1.0000   1.0000   1.0000   1.0000   1.0000   1.0000   1.0000   1.0000
     1.0000   1.0000   1.0000   1.0000   1.0000   1.0000   1.0000   1.0000
     1.0000   1.0000   1.0000   1.0000   1.0000   1.0000   1.0000   1.0000
     1.0000   1.0000   1.0000   1.0000   1.0000   1.0000   1.0000   1.0000
     1.0000   1.0000   1.0000   1.0000   1.0000   1.0000   1.0000   1.0000
     1.0000   1.0000   1.0000   1.0000   1.0000   1.0000   1.0000   1.0000
     1.0000   1.0000   1.0000   1.0000   1.0000   1.0000   1.0000   1.0000
     1.0000   1.0000   1.0000   1.0000   1.0000   1.0000   1.0000   1.0000
     1.0000   1.0000   1.0000   1.0000   1.0000   1.0000   1.0000   1.0000
     1.0000   1.0000   1.0000   1.0000   1.0000   1.0000   1.0000   1.0000
     1.0000   1.0000   1.0000   1.0000   1.0000   1.0000   1.0000   1.0000
     1.0000   1.0000   1.0000   1.0000   1.0000   1.0000   1.0000   1.0000
     1.0000   1.0000   1.0000   1.0000   1.0000   1.0000   1.0000   1.0000
     1.0000   1.0000   1.0000   1.0000   1.0000   1.0000   1.0000   1.0000
     1.0000   1.0000   1.0000   1.0000   1.0000   1.0000   1.0000   1.0000
     1.0000   1.0000   1.0000   1.0000   1.0000   1.0000   1.0000   1.0000
     1.0000   1.0000   1.0000   1.0000   1.0000   1.0000   1.0000   1.0000
     1.0000   1.0000   1.0000   1.0000   1.0000   1.0000   1.0000   1.0000
     1.0000   1.0000   1.0000   1.0000   1.0000   1.0000   1.0000   1.0000
     1.0000   1.0000   1.0000   1.0000   1.0000   1.0000   1.0000   1.0000
     1.0000   1.0000   1.0000   1.0000   1.0000   1.0000   1.0000   1.0000
     1.0000   1.0000   1.0000   1.0000   1.0000   1.0000   1.0001   1.0001
     1.0008   1.0062   1.0155   1.0626   1.0725   1.0725   1.0833   1.0833
     0.7204   0.6885   0.0408   0.0002   0.0000   0.0000   0.0000   0.0000
     0.0000   0.0000   0.0000   0.0000   0.0000   0.0000   0.0000   0.0000
     0.0000   0.0000   0.0000   0.0000   0.0000   0.0000   0.0000   0.0000
     0.0000   0.0000   0.0000   0.0000   0.0000   0.0000   0.0000   0.0000
     0.0000   0.0000   0.0000   0.0000   0.0000   0.0000   0.0000   0.0000
     0.0000   0.0000   0.0000   0.0000   0.0000   0.0000   0.0000   0.0000
     0.0000   0.0000   0.0000   0.0000   0.0000   0.0000   0.0000   0.0000
     0.0000   0.0000   0.0000   0.0000   0.0000   0.0000   0.0000   0.0000
     0.0000   0.0000   0.0000   0.0000   0.0000   0.0000   0.0000   0.0000
     0.0000   0.0000   0.0000   0.0000   0.0000   0.0000   0.0000   0.0000
     0.0000   0.0000   0.0000   0.0000   0.0000   0.0000   0.0000   0.0000
     0.0000   0.0000   0.0000   0.0000   0.0000   0.0000   0.0000   0.0000

          k = 0.0000 0.3107 0.1794 ( 67822 PWs)   bands (ev):

  -125.1285-125.1285-125.1279-125.1279-125.1272-125.1271-125.1266-125.1265
  -124.9838-124.9833-124.9825-124.9824-124.9821-124.9819-124.9811-124.9806
  -124.9592-124.9590-124.9588-124.9587-124.9580-124.9578-124.9576-124.9575
  -124.9065-124.9061-124.9061-124.9058-124.9053-124.9049-124.9049-124.9046
  -124.8748-124.8745-124.8736-124.8733-124.8720-124.8716-124.8708-124.8704
  -124.8117-124.8117-124.8114-124.8114-124.8105-124.8105-124.8102-124.8102
   -79.2853 -79.2851 -79.2841 -79.2840 -79.2834 -79.2834 -79.2824 -79.2824
   -79.2818 -79.2817 -79.2807 -79.2805 -79.2781 -79.2777 -79.2774 -79.2771
   -79.2763 -79.2763 -79.2757 -79.2756 -79.2682 -79.2681 -79.2636 -79.2636
   -79.1431 -79.1426 -79.1418 -79.1416 -79.1414 -79.1412 -79.1404 -79.1399
   -79.1395 -79.1390 -79.1381 -79.1381 -79.1376 -79.1376 -79.1367 -79.1362
   -79.1359 -79.1345 -79.1314 -79.1300 -79.1235 -79.1233 -79.1231 -79.1230
   -79.1222 -79.1221 -79.1218 -79.1217 -79.1191 -79.1177 -79.1153 -79.1150
   -79.1146 -79.1132 -79.1108 -79.1105 -79.1058 -79.1053 -79.1050 -79.1046
   -79.1040 -79.1038 -79.1035 -79.1033 -79.0984 -79.0982 -79.0938 -79.0937
   -79.0660 -79.0656 -79.0656 -79.0653 -79.0647 -79.0644 -79.0644 -79.0641
   -79.0640 -79.0638 -79.0596 -79.0593 -79.0563 -79.0559 -79.0559 -79.0555
   -79.0548 -79.0545 -79.0545 -79.0541 -79.0473 -79.0470 -79.0428 -79.0425
   -79.0360 -79.0357 -79.0348 -79.0344 -79.0333 -79.0329 -79.0320 -79.0316
   -79.0290 -79.0269 -79.0265 -79.0261 -79.0257 -79.0254 -79.0245 -79.0238
   -79.0235 -79.0228 -79.0224 -79.0216 -79.0123 -79.0094 -79.0078 -79.0049
   -78.9863 -78.9862 -78.9859 -78.9859 -78.9849 -78.9849 -78.9846 -78.9846
   -78.9631 -78.9630 -78.9602 -78.9600 -78.9598 -78.9596 -78.9588 -78.9588
   -78.9586 -78.9585 -78.9585 -78.9584 -78.9463 -78.9463 -78.9418 -78.9418
    -7.9342  -7.4721  -6.9905  -6.8516  -6.7501  -6.6712  -6.6646  -6.6516
    -6.6466  -6.6267  -6.6164  -6.6017  -6.6006  -6.5876  -6.5819  -6.5445
    -6.5390  -6.5300  -6.5230  -6.5148  -6.5066  -6.5064  -6.4925  -6.4898
    -6.4819  -6.4707  -6.4688  -6.4536  -6.4509  -6.4460  -6.4449  -6.4321
    -6.4311  -6.4172  -6.4020  -6.3782  -6.3780  -6.3569  -6.3438  -6.3418
    -6.3392  -6.3287  -6.3225  -6.3036  -6.3025  -6.2947  -6.2946  -6.2816
    -6.2711  -6.2708  -6.2550  -6.2330  -6.2324  -6.2172  -6.2110  -6.2084
    -6.1980  -6.1976  -6.1937  -6.1911  -6.1836  -6.1761  -6.1729  -6.1664
    -6.1534  -6.1521  -6.1478  -6.1412  -6.1403  -6.1336  -6.1222  -6.1137
    -6.1126  -6.1102  -6.1053  -6.1005  -6.0830  -6.0815  -6.0755  -6.0749
    -6.0639  -6.0630  -6.0625  -6.0585  -6.0578  -6.0549  -6.0499  -6.0484
    -6.0418  -6.0279  -6.0253  -6.0216  -6.0191  -6.0165  -6.0148  -6.0128
    -6.0047  -5.9943  -5.9879  -5.9866  -5.9845  -5.9809  -5.9759  -5.9648
    -5.9615  -5.9557  -5.9498  -5.9435  -5.9425  -5.9291  -5.9151  -5.9117
    -5.9066  -5.9053  -5.9038  -5.8962  -5.8878  -5.8860  -5.8855  -5.8480
    -5.8474  -5.8453  -5.8426  -5.8384  -5.8287  -5.8274  -5.8178  -5.8125
    -5.8103  -5.8045  -5.7989  -5.7915  -5.7753  -5.7750  -5.7637  -5.7571
    -5.7566  -5.7535  -5.7502  -5.7485  -5.7450  -5.7438  -5.7420  -5.7409
    -5.7362  -5.7253  -5.7229  -5.7174  -5.7075  -5.7053  -5.7033  -5.7032
    -5.6907  -5.6881  -5.6834  -5.6823  -5.6807  -5.6780  -5.6659  -5.6618
    -5.6491  -5.6473  -5.6449  -5.6419  -5.6385  -5.6348  -5.6338  -5.6286
    -5.6232  -5.6210  -5.6201  -5.6193  -5.6133  -5.6089  -5.6076  -5.6055
    -5.6051  -5.6021  -5.5956  -5.5860  -5.5829  -5.5828  -5.5826  -5.5767
    -5.5658  -5.5648  -5.5587  -5.5582  -5.5569  -5.5516  -5.5507  -5.5503
    -5.5496  -5.5492  -5.5483  -5.5430  -5.5333  -5.5301  -5.5252  -5.5216
    -5.5156  -5.5119  -5.5008  -5.4995  -5.4989  -5.4984  -5.4969  -5.4964
    -5.4959  -5.4950  -5.4798  -5.4729  -5.4726  -5.4721  -5.4714  -5.4693
    -5.4601  -5.4591  -5.4538  -5.4482  -5.4413  -5.4385  -5.4307  -5.4306
    -5.4292  -5.4177  -5.4104  -5.4098  -5.4079  -5.4020  -5.3977  -5.3888
    -5.3841  -5.3830  -5.3813  -5.3368  -5.3325  -5.3228  -5.3187  -5.2984
    -5.2953  -5.2877  -5.2642  -5.2583  -5.2548  -5.0423  -5.0225  -4.8864
    -4.8834  -4.2341  -4.1314  -3.7795  -3.6731  -3.5908  -3.5299  -3.5036
    -3.3649  -3.2214  -2.9997  -2.2274  -2.0836  -2.0779  -2.0105  -1.8704
    -1.8674  -1.8175  -1.6751  -1.4055  -1.3768  -0.8847  -0.7774  -0.6887
    -0.5182  -0.3912  -0.3648  -0.2163  -0.0446   0.0042   0.0596   0.3292
     0.3349   0.7337   0.8920   1.0239   1.0320   1.1583   1.2975   1.3165
     1.3181   1.3474   1.7261   1.8507   1.8880   1.9348   2.0742   2.3227
     2.4823   2.6272   2.6371   2.6528   2.6877   2.9577   3.0751   3.0842
     3.3505   3.4875   3.5420   3.6050   3.6145   3.7033   3.7648   3.8256
     3.9777   4.0549   4.1463   4.3226   4.4151   4.4594   4.6238   4.6738
     4.7923   4.8838   4.8932   5.0294   5.2226   5.2793   5.2818   5.2856
     5.3301   5.4253   5.4522   5.4977   5.5467   5.6435   5.7391   5.7851
     5.9021   5.9047   6.0265   6.1202   6.3148   6.3850   6.4117   6.4329
     6.4471   6.5446   6.7501   6.7828   6.9083   6.9412   7.0094   7.0323
     7.0516   7.0535   7.0769   7.1110   7.1988   7.1999   7.2276   7.2512
     7.2729   7.3673   7.4302   7.4304   7.5690   7.6453   7.7819   7.7975
     7.8158   7.8305   7.8655   8.0299   8.0792   8.0899   8.1597   8.1750
     8.2102   8.2898   8.3720   8.4622   8.4670   8.4872   8.5102   8.5400

     occupation numbers 
     1.0000   1.0000   1.0000   1.0000   1.0000   1.0000   1.0000   1.0000
     1.0000   1.0000   1.0000   1.0000   1.0000   1.0000   1.0000   1.0000
     1.0000   1.0000   1.0000   1.0000   1.0000   1.0000   1.0000   1.0000
     1.0000   1.0000   1.0000   1.0000   1.0000   1.0000   1.0000   1.0000
     1.0000   1.0000   1.0000   1.0000   1.0000   1.0000   1.0000   1.0000
     1.0000   1.0000   1.0000   1.0000   1.0000   1.0000   1.0000   1.0000
     1.0000   1.0000   1.0000   1.0000   1.0000   1.0000   1.0000   1.0000
     1.0000   1.0000   1.0000   1.0000   1.0000   1.0000   1.0000   1.0000
     1.0000   1.0000   1.0000   1.0000   1.0000   1.0000   1.0000   1.0000
     1.0000   1.0000   1.0000   1.0000   1.0000   1.0000   1.0000   1.0000
     1.0000   1.0000   1.0000   1.0000   1.0000   1.0000   1.0000   1.0000
     1.0000   1.0000   1.0000   1.0000   1.0000   1.0000   1.0000   1.0000
     1.0000   1.0000   1.0000   1.0000   1.0000   1.0000   1.0000   1.0000
     1.0000   1.0000   1.0000   1.0000   1.0000   1.0000   1.0000   1.0000
     1.0000   1.0000   1.0000   1.0000   1.0000   1.0000   1.0000   1.0000
     1.0000   1.0000   1.0000   1.0000   1.0000   1.0000   1.0000   1.0000
     1.0000   1.0000   1.0000   1.0000   1.0000   1.0000   1.0000   1.0000
     1.0000   1.0000   1.0000   1.0000   1.0000   1.0000   1.0000   1.0000
     1.0000   1.0000   1.0000   1.0000   1.0000   1.0000   1.0000   1.0000
     1.0000   1.0000   1.0000   1.0000   1.0000   1.0000   1.0000   1.0000
     1.0000   1.0000   1.0000   1.0000   1.0000   1.0000   1.0000   1.0000
     1.0000   1.0000   1.0000   1.0000   1.0000   1.0000   1.0000   1.0000
     1.0000   1.0000   1.0000   1.0000   1.0000   1.0000   1.0000   1.0000
     1.0000   1.0000   1.0000   1.0000   1.0000   1.0000   1.0000   1.0000
     1.0000   1.0000   1.0000   1.0000   1.0000   1.0000   1.0000   1.0000
     1.0000   1.0000   1.0000   1.0000   1.0000   1.0000   1.0000   1.0000
     1.0000   1.0000   1.0000   1.0000   1.0000   1.0000   1.0000   1.0000
     1.0000   1.0000   1.0000   1.0000   1.0000   1.0000   1.0000   1.0000
     1.0000   1.0000   1.0000   1.0000   1.0000   1.0000   1.0000   1.0000
     1.0000   1.0000   1.0000   1.0000   1.0000   1.0000   1.0000   1.0000
     1.0000   1.0000   1.0000   1.0000   1.0000   1.0000   1.0000   1.0000
     1.0000   1.0000   1.0000   1.0000   1.0000   1.0000   1.0000   1.0000
     1.0000   1.0000   1.0000   1.0000   1.0000   1.0000   1.0000   1.0000
     1.0000   1.0000   1.0000   1.0000   1.0000   1.0000   1.0000   1.0000
     1.0000   1.0000   1.0000   1.0000   1.0000   1.0000   1.0000   1.0000
     1.0000   1.0000   1.0000   1.0000   1.0000   1.0000   1.0000   1.0000
     1.0000   1.0000   1.0000   1.0000   1.0000   1.0000   1.0000   1.0000
     1.0000   1.0000   1.0000   1.0000   1.0000   1.0000   1.0000   1.0000
     1.0000   1.0000   1.0000   1.0000   1.0000   1.0000   1.0000   1.0000
     1.0000   1.0000   1.0000   1.0000   1.0000   1.0000   1.0000   1.0000
     1.0000   1.0000   1.0000   1.0000   1.0000   1.0000   1.0000   1.0000
     1.0000   1.0000   1.0000   1.0000   1.0000   1.0000   1.0000   1.0000
     1.0000   1.0000   1.0000   1.0000   1.0000   1.0000   1.0000   1.0000
     1.0000   1.0000   1.0000   1.0000   1.0000   1.0000   1.0000   1.0000
     1.0000   1.0000   1.0000   1.0000   1.0000   1.0000   1.0000   1.0000
     1.0000   1.0000   1.0000   1.0000   1.0000   1.0000   1.0000   1.0000
     1.0000   1.0000   1.0000   1.0000   1.0000   1.0000   1.0000   1.0000
     1.0000   1.0000   1.0000   1.0000   1.0000   1.0000   1.0000   1.0000
     1.0000   1.0000   1.0000   1.0000   1.0000   1.0000   1.0000   1.0000
     1.0000   1.0000   1.0000   1.0000   1.0000   1.0000   1.0000   1.0000
     1.0000   1.0000   1.0000   1.0000   1.0000   1.0000   1.0000   1.0000
     1.0000   1.0000   1.0000   1.0000   1.0000   1.0000   1.0000   1.0000
     1.0000   1.0000   1.0000   1.0000   1.0000   1.0000   1.0000   1.0000
     1.0000   1.0000   1.0000   1.0000   1.0000   1.0000   1.0000   1.0000
     1.0000   1.0000   1.0000   1.0000   1.0000   1.0000   1.0000   1.0000
     1.0000   1.0000   1.0000   1.0000   1.0000   1.0000   1.0000   1.0000
     1.0000   1.0000   1.0000   1.0000   1.0000   1.0000   1.0000   1.0000
     1.0000   1.0000   1.0000   1.0000   1.0000   1.0000   1.0000   1.0000
     1.0000   1.0000   1.0000   1.0000   1.0000   1.0000   1.0000   1.0003
     1.0003   1.0540   1.0784   0.9454   0.9304   0.6214   0.2691   0.2319
     0.2288   0.1786   0.0010   0.0001   0.0000   0.0000   0.0000   0.0000
     0.0000   0.0000   0.0000   0.0000   0.0000   0.0000   0.0000   0.0000
     0.0000   0.0000   0.0000   0.0000   0.0000   0.0000   0.0000   0.0000
     0.0000   0.0000   0.0000   0.0000   0.0000   0.0000   0.0000   0.0000
     0.0000   0.0000   0.0000   0.0000   0.0000   0.0000   0.0000   0.0000
     0.0000   0.0000   0.0000   0.0000   0.0000   0.0000   0.0000   0.0000
     0.0000   0.0000   0.0000   0.0000   0.0000   0.0000   0.0000   0.0000
     0.0000   0.0000   0.0000   0.0000   0.0000   0.0000   0.0000   0.0000
     0.0000   0.0000   0.0000   0.0000   0.0000   0.0000   0.0000   0.0000
     0.0000   0.0000   0.0000   0.0000   0.0000   0.0000   0.0000   0.0000
     0.0000   0.0000   0.0000   0.0000   0.0000   0.0000   0.0000   0.0000
     0.0000   0.0000   0.0000   0.0000   0.0000   0.0000   0.0000   0.0000

          k = 0.3333 0.0000 0.0000 ( 67745 PWs)   bands (ev):

  -125.1286-125.1285-125.1277-125.1277-125.1274-125.1274-125.1266-125.1265
  -124.9838-124.9830-124.9829-124.9824-124.9820-124.9815-124.9815-124.9806
  -124.9593-124.9591-124.9584-124.9584-124.9583-124.9582-124.9575-124.9574
  -124.9066-124.9062-124.9057-124.9057-124.9054-124.9053-124.9048-124.9044
  -124.8749-124.8741-124.8741-124.8732-124.8721-124.8712-124.8712-124.8703
  -124.8118-124.8118-124.8110-124.8110-124.8110-124.8109-124.8101-124.8101
   -79.2869 -79.2868 -79.2841 -79.2841 -79.2830 -79.2830 -79.2828 -79.2828
   -79.2817 -79.2816 -79.2781 -79.2778 -79.2769 -79.2768 -79.2767 -79.2766
   -79.2756 -79.2755 -79.2744 -79.2744 -79.2744 -79.2743 -79.2619 -79.2619
   -79.1432 -79.1423 -79.1422 -79.1418 -79.1413 -79.1408 -79.1408 -79.1398
   -79.1396 -79.1386 -79.1385 -79.1382 -79.1375 -79.1375 -79.1372 -79.1372
   -79.1361 -79.1361 -79.1253 -79.1252 -79.1238 -79.1238 -79.1236 -79.1235
   -79.1227 -79.1226 -79.1225 -79.1225 -79.1217 -79.1216 -79.1169 -79.1167
   -79.1129 -79.1115 -79.1058 -79.1053 -79.1046 -79.1046 -79.1046 -79.1046
   -79.1043 -79.1043 -79.1043 -79.1042 -79.1034 -79.1032 -79.0922 -79.0921
   -79.0661 -79.0658 -79.0657 -79.0654 -79.0652 -79.0652 -79.0648 -79.0648
   -79.0643 -79.0639 -79.0564 -79.0560 -79.0554 -79.0553 -79.0550 -79.0550
   -79.0543 -79.0540 -79.0535 -79.0535 -79.0531 -79.0531 -79.0412 -79.0408
   -79.0362 -79.0352 -79.0352 -79.0343 -79.0334 -79.0325 -79.0324 -79.0315
   -79.0306 -79.0277 -79.0269 -79.0261 -79.0261 -79.0253 -79.0240 -79.0232
   -79.0231 -79.0223 -79.0184 -79.0184 -79.0155 -79.0155 -79.0061 -79.0033
   -78.9864 -78.9864 -78.9854 -78.9854 -78.9854 -78.9854 -78.9845 -78.9845
   -78.9648 -78.9647 -78.9603 -78.9601 -78.9593 -78.9593 -78.9593 -78.9592
   -78.9584 -78.9583 -78.9525 -78.9525 -78.9524 -78.9524 -78.9402 -78.9401
    -7.9266  -7.4756  -6.8726  -6.8003  -6.7810  -6.7499  -6.7499  -6.7087
    -6.6916  -6.6798  -6.6473  -6.6262  -6.6196  -6.6008  -6.5951  -6.5951
    -6.5750  -6.5633  -6.5240  -6.5129  -6.5092  -6.4877  -6.4817  -6.4576
    -6.4500  -6.4378  -6.4377  -6.4346  -6.4346  -6.4273  -6.4088  -6.4065
    -6.4064  -6.3815  -6.3814  -6.3813  -6.3715  -6.3715  -6.3617  -6.3566
    -6.3566  -6.3429  -6.3101  -6.3101  -6.2922  -6.2922  -6.2712  -6.2569
    -6.2569  -6.2534  -6.2534  -6.2528  -6.2517  -6.2442  -6.2340  -6.2234
    -6.2230  -6.2214  -6.1972  -6.1972  -6.1909  -6.1843  -6.1843  -6.1598
    -6.1598  -6.1569  -6.1568  -6.1452  -6.1445  -6.1376  -6.1366  -6.1180
    -6.1023  -6.0954  -6.0954  -6.0788  -6.0767  -6.0766  -6.0731  -6.0595
    -6.0593  -6.0593  -6.0583  -6.0420  -6.0420  -6.0340  -6.0256  -6.0256
    -6.0164  -6.0146  -6.0145  -6.0061  -6.0047  -6.0047  -5.9841  -5.9841
    -5.9829  -5.9773  -5.9773  -5.9519  -5.9386  -5.9386  -5.9218  -5.9175
    -5.8986  -5.8980  -5.8923  -5.8884  -5.8884  -5.8807  -5.8807  -5.8650
    -5.8650  -5.8634  -5.8618  -5.8618  -5.8554  -5.8528  -5.8528  -5.8527
    -5.8364  -5.8350  -5.8316  -5.8316  -5.8273  -5.8273  -5.8222  -5.8196
    -5.8044  -5.8044  -5.8004  -5.8004  -5.7802  -5.7802  -5.7776  -5.7669
    -5.7669  -5.7664  -5.7493  -5.7474  -5.7474  -5.7436  -5.7436  -5.7306
    -5.7294  -5.7294  -5.7210  -5.7122  -5.7122  -5.7067  -5.6950  -5.6941
    -5.6941  -5.6873  -5.6873  -5.6787  -5.6787  -5.6764  -5.6764  -5.6705
    -5.6650  -5.6631  -5.6630  -5.6630  -5.6619  -5.6602  -5.6602  -5.6563
    -5.6518  -5.6490  -5.6465  -5.6353  -5.6353  -5.6330  -5.6317  -5.6276
    -5.6272  -5.6264  -5.6222  -5.6221  -5.6156  -5.6032  -5.6021  -5.5907
    -5.5861  -5.5859  -5.5859  -5.5827  -5.5827  -5.5756  -5.5756  -5.5732
    -5.5616  -5.5613  -5.5609  -5.5592  -5.5592  -5.5498  -5.5498  -5.5481
    -5.5379  -5.5312  -5.5252  -5.5216  -5.5216  -5.5143  -5.5109  -5.5021
    -5.5017  -5.4953  -5.4953  -5.4919  -5.4919  -5.4805  -5.4795  -5.4795
    -5.4693  -5.4653  -5.4602  -5.4602  -5.4462  -5.4455  -5.4417  -5.4179
    -5.4179  -5.4177  -5.4038  -5.4024  -5.4024  -5.3995  -5.3965  -5.3946
    -5.3874  -5.3834  -5.3571  -5.3302  -5.3253  -5.3058  -5.3016  -5.2990
    -5.2964  -5.2742  -5.2723  -5.2540  -5.2244  -5.2128  -5.2128  -5.0996
    -4.5457  -4.3629  -4.3629  -3.8802  -3.8802  -3.3769  -3.2292  -3.1170
    -3.1170  -2.9177  -2.7926  -2.2183  -2.2183  -1.8894  -1.8894  -1.6604
    -1.5851  -1.5168  -1.4950  -1.4950  -1.4586  -1.4586  -1.2473  -1.1002
    -0.9704  -0.3920  -0.2536  -0.0954  -0.0777  -0.0777   0.0872   0.2041
     0.2654   0.4005   0.4005   0.6094   0.7720   0.9054   1.2431   1.2431
     1.4416   1.5232   1.7743   1.8817   1.8817   2.1211   2.1211   2.2351
     2.7253   2.7317   2.7635   2.8050   2.9380   2.9381   3.0366   3.0423
     3.0563   3.1655   3.5397   3.8292   3.8292   4.1181   4.1181   4.2063
     4.2278   4.3665   4.3735   4.3735   4.3862   4.7184   4.8155   4.8300
     4.9169   4.9169   5.0755   5.2513   5.3376   5.4502   5.5971   5.5971
     5.6092   5.6092   5.6687   5.6933   5.7316   5.7847   5.7847   5.9606
     6.1504   6.1504   6.2274   6.2274   6.2349   6.2927   6.2955   6.3838
     6.4272   6.4272   6.4895   6.5224   6.6764   6.6764   6.7545   6.7545
     6.8262   6.9549   7.0074   7.0074   7.1102   7.1441   7.1441   7.1637
     7.1637   7.1897   7.2802   7.2802   7.3591   7.3591   7.4310   7.5637
     7.7011   7.7011   7.7812   7.8310   7.8310   7.9542   8.0330   8.0468
     8.1057   8.1554   8.1554   8.3440   8.3440   8.3469   8.5298   8.5339

     occupation numbers 
     1.0000   1.0000   1.0000   1.0000   1.0000   1.0000   1.0000   1.0000
     1.0000   1.0000   1.0000   1.0000   1.0000   1.0000   1.0000   1.0000
     1.0000   1.0000   1.0000   1.0000   1.0000   1.0000   1.0000   1.0000
     1.0000   1.0000   1.0000   1.0000   1.0000   1.0000   1.0000   1.0000
     1.0000   1.0000   1.0000   1.0000   1.0000   1.0000   1.0000   1.0000
     1.0000   1.0000   1.0000   1.0000   1.0000   1.0000   1.0000   1.0000
     1.0000   1.0000   1.0000   1.0000   1.0000   1.0000   1.0000   1.0000
     1.0000   1.0000   1.0000   1.0000   1.0000   1.0000   1.0000   1.0000
     1.0000   1.0000   1.0000   1.0000   1.0000   1.0000   1.0000   1.0000
     1.0000   1.0000   1.0000   1.0000   1.0000   1.0000   1.0000   1.0000
     1.0000   1.0000   1.0000   1.0000   1.0000   1.0000   1.0000   1.0000
     1.0000   1.0000   1.0000   1.0000   1.0000   1.0000   1.0000   1.0000
     1.0000   1.0000   1.0000   1.0000   1.0000   1.0000   1.0000   1.0000
     1.0000   1.0000   1.0000   1.0000   1.0000   1.0000   1.0000   1.0000
     1.0000   1.0000   1.0000   1.0000   1.0000   1.0000   1.0000   1.0000
     1.0000   1.0000   1.0000   1.0000   1.0000   1.0000   1.0000   1.0000
     1.0000   1.0000   1.0000   1.0000   1.0000   1.0000   1.0000   1.0000
     1.0000   1.0000   1.0000   1.0000   1.0000   1.0000   1.0000   1.0000
     1.0000   1.0000   1.0000   1.0000   1.0000   1.0000   1.0000   1.0000
     1.0000   1.0000   1.0000   1.0000   1.0000   1.0000   1.0000   1.0000
     1.0000   1.0000   1.0000   1.0000   1.0000   1.0000   1.0000   1.0000
     1.0000   1.0000   1.0000   1.0000   1.0000   1.0000   1.0000   1.0000
     1.0000   1.0000   1.0000   1.0000   1.0000   1.0000   1.0000   1.0000
     1.0000   1.0000   1.0000   1.0000   1.0000   1.0000   1.0000   1.0000
     1.0000   1.0000   1.0000   1.0000   1.0000   1.0000   1.0000   1.0000
     1.0000   1.0000   1.0000   1.0000   1.0000   1.0000   1.0000   1.0000
     1.0000   1.0000   1.0000   1.0000   1.0000   1.0000   1.0000   1.0000
     1.0000   1.0000   1.0000   1.0000   1.0000   1.0000   1.0000   1.0000
     1.0000   1.0000   1.0000   1.0000   1.0000   1.0000   1.0000   1.0000
     1.0000   1.0000   1.0000   1.0000   1.0000   1.0000   1.0000   1.0000
     1.0000   1.0000   1.0000   1.0000   1.0000   1.0000   1.0000   1.0000
     1.0000   1.0000   1.0000   1.0000   1.0000   1.0000   1.0000   1.0000
     1.0000   1.0000   1.0000   1.0000   1.0000   1.0000   1.0000   1.0000
     1.0000   1.0000   1.0000   1.0000   1.0000   1.0000   1.0000   1.0000
     1.0000   1.0000   1.0000   1.0000   1.0000   1.0000   1.0000   1.0000
     1.0000   1.0000   1.0000   1.0000   1.0000   1.0000   1.0000   1.0000
     1.0000   1.0000   1.0000   1.0000   1.0000   1.0000   1.0000   1.0000
     1.0000   1.0000   1.0000   1.0000   1.0000   1.0000   1.0000   1.0000
     1.0000   1.0000   1.0000   1.0000   1.0000   1.0000   1.0000   1.0000
     1.0000   1.0000   1.0000   1.0000   1.0000   1.0000   1.0000   1.0000
     1.0000   1.0000   1.0000   1.0000   1.0000   1.0000   1.0000   1.0000
     1.0000   1.0000   1.0000   1.0000   1.0000   1.0000   1.0000   1.0000
     1.0000   1.0000   1.0000   1.0000   1.0000   1.0000   1.0000   1.0000
     1.0000   1.0000   1.0000   1.0000   1.0000   1.0000   1.0000   1.0000
     1.0000   1.0000   1.0000   1.0000   1.0000   1.0000   1.0000   1.0000
     1.0000   1.0000   1.0000   1.0000   1.0000   1.0000   1.0000   1.0000
     1.0000   1.0000   1.0000   1.0000   1.0000   1.0000   1.0000   1.0000
     1.0000   1.0000   1.0000   1.0000   1.0000   1.0000   1.0000   1.0000
     1.0000   1.0000   1.0000   1.0000   1.0000   1.0000   1.0000   1.0000
     1.0000   1.0000   1.0000   1.0000   1.0000   1.0000   1.0000   1.0000
     1.0000   1.0000   1.0000   1.0000   1.0000   1.0000   1.0000   1.0000
     1.0000   1.0000   1.0000   1.0000   1.0000   1.0000   1.0000   1.0000
     1.0000   1.0000   1.0000   1.0000   1.0000   1.0000   1.0000   1.0000
     1.0000   1.0000   1.0000   1.0000   1.0000   1.0000   1.0000   1.0000
     1.0000   1.0000   1.0000   1.0000   1.0000   1.0000   1.0000   1.0000
     1.0000   1.0000   1.0000   1.0000   1.0000   1.0000   1.0000   1.0000
     1.0000   1.0000   1.0000   1.0000   1.0000   1.0000   1.0000   1.0000
     1.0000   1.0000   1.0000   1.0000   1.0000   1.0000   1.0000   1.0000
     1.0000   1.0000   1.0000   1.0000   1.0000   1.0000   1.0000   1.0000
     1.0001   1.0010   1.0010   1.0184   1.0669   1.0738   0.3936   0.3935
     0.0695   0.0256   0.0004   0.0000   0.0000   0.0000   0.0000   0.0000
     0.0000   0.0000   0.0000   0.0000   0.0000   0.0000   0.0000   0.0000
     0.0000   0.0000   0.0000   0.0000   0.0000   0.0000   0.0000   0.0000
     0.0000   0.0000   0.0000   0.0000   0.0000   0.0000   0.0000   0.0000
     0.0000   0.0000   0.0000   0.0000   0.0000   0.0000   0.0000   0.0000
     0.0000   0.0000   0.0000   0.0000   0.0000   0.0000   0.0000   0.0000
     0.0000   0.0000   0.0000   0.0000   0.0000   0.0000   0.0000   0.0000
     0.0000   0.0000   0.0000   0.0000   0.0000   0.0000   0.0000   0.0000
     0.0000   0.0000   0.0000   0.0000   0.0000   0.0000   0.0000   0.0000
     0.0000   0.0000   0.0000   0.0000   0.0000   0.0000   0.0000   0.0000
     0.0000   0.0000   0.0000   0.0000   0.0000   0.0000   0.0000   0.0000
     0.0000   0.0000   0.0000   0.0000   0.0000   0.0000   0.0000   0.0000

          k = 0.3333 0.3107 0.1794 ( 67762 PWs)   bands (ev):

  -125.1285-125.1285-125.1279-125.1279-125.1272-125.1271-125.1266-125.1265
  -124.9838-124.9833-124.9825-124.9824-124.9821-124.9819-124.9811-124.9806
  -124.9592-124.9590-124.9588-124.9587-124.9580-124.9578-124.9576-124.9575
  -124.9065-124.9061-124.9061-124.9058-124.9053-124.9049-124.9049-124.9046
  -124.8748-124.8745-124.8736-124.8733-124.8720-124.8716-124.8708-124.8704
  -124.8117-124.8117-124.8114-124.8114-124.8105-124.8105-124.8102-124.8102
   -79.2852 -79.2852 -79.2841 -79.2840 -79.2834 -79.2834 -79.2824 -79.2824
   -79.2818 -79.2817 -79.2806 -79.2806 -79.2780 -79.2778 -79.2773 -79.2771
   -79.2763 -79.2763 -79.2757 -79.2756 -79.2682 -79.2682 -79.2636 -79.2636
   -79.1431 -79.1426 -79.1418 -79.1417 -79.1414 -79.1412 -79.1404 -79.1399
   -79.1395 -79.1390 -79.1381 -79.1381 -79.1376 -79.1376 -79.1367 -79.1362
   -79.1359 -79.1345 -79.1314 -79.1300 -79.1235 -79.1233 -79.1231 -79.1230
   -79.1222 -79.1221 -79.1218 -79.1217 -79.1191 -79.1177 -79.1153 -79.1151
   -79.1146 -79.1132 -79.1107 -79.1106 -79.1057 -79.1052 -79.1051 -79.1048
   -79.1040 -79.1038 -79.1035 -79.1033 -79.0984 -79.0982 -79.0938 -79.0937
   -79.0660 -79.0656 -79.0656 -79.0653 -79.0647 -79.0644 -79.0644 -79.0641
   -79.0640 -79.0638 -79.0596 -79.0593 -79.0562 -79.0559 -79.0559 -79.0555
   -79.0548 -79.0545 -79.0545 -79.0541 -79.0473 -79.0470 -79.0428 -79.0425
   -79.0360 -79.0357 -79.0348 -79.0344 -79.0333 -79.0329 -79.0320 -79.0316
   -79.0290 -79.0268 -79.0265 -79.0261 -79.0257 -79.0254 -79.0245 -79.0239
   -79.0235 -79.0228 -79.0224 -79.0216 -79.0123 -79.0094 -79.0078 -79.0049
   -78.9862 -78.9862 -78.9859 -78.9859 -78.9849 -78.9849 -78.9846 -78.9846
   -78.9631 -78.9630 -78.9601 -78.9600 -78.9598 -78.9597 -78.9588 -78.9588
   -78.9586 -78.9585 -78.9585 -78.9585 -78.9463 -78.9463 -78.9418 -78.9418
    -7.7686  -7.3265  -7.3198  -6.9295  -6.7827  -6.7063  -6.7038  -6.6511
    -6.6307  -6.6158  -6.6158  -6.5959  -6.5852  -6.5830  -6.5457  -6.5415
    -6.5340  -6.5286  -6.5276  -6.5186  -6.5151  -6.5062  -6.5015  -6.4936
    -6.4902  -6.4858  -6.4727  -6.4631  -6.4570  -6.4359  -6.4315  -6.4313
    -6.4301  -6.4222  -6.4051  -6.3977  -6.3954  -6.3884  -6.3854  -6.3657
    -6.3577  -6.3399  -6.3270  -6.3258  -6.3241  -6.3192  -6.2886  -6.2723
    -6.2617  -6.2568  -6.2565  -6.2477  -6.2387  -6.2341  -6.2306  -6.2293
    -6.2265  -6.2217  -6.2078  -6.2063  -6.1987  -6.1878  -6.1824  -6.1776
    -6.1742  -6.1687  -6.1649  -6.1635  -6.1439  -6.1428  -6.1379  -6.1371
    -6.1282  -6.1213  -6.1104  -6.1103  -6.1095  -6.0995  -6.0956  -6.0889
    -6.0804  -6.0802  -6.0713  -6.0588  -6.0575  -6.0488  -6.0486  -6.0414
    -6.0373  -6.0299  -6.0264  -6.0142  -6.0065  -6.0027  -5.9967  -5.9943
    -5.9891  -5.9869  -5.9840  -5.9830  -5.9695  -5.9663  -5.9634  -5.9600
    -5.9421  -5.9353  -5.9312  -5.9291  -5.9143  -5.9122  -5.9096  -5.8972
    -5.8820  -5.8725  -5.8656  -5.8642  -5.8632  -5.8565  -5.8523  -5.8457
    -5.8348  -5.8206  -5.8165  -5.8152  -5.8048  -5.7964  -5.7910  -5.7907
    -5.7884  -5.7852  -5.7838  -5.7823  -5.7818  -5.7720  -5.7626  -5.7624
    -5.7565  -5.7541  -5.7388  -5.7369  -5.7304  -5.7273  -5.7272  -5.7134
    -5.7090  -5.7040  -5.7023  -5.7015  -5.6979  -5.6963  -5.6930  -5.6869
    -5.6855  -5.6741  -5.6714  -5.6682  -5.6663  -5.6654  -5.6640  -5.6631
    -5.6473  -5.6469  -5.6454  -5.6425  -5.6349  -5.6337  -5.6298  -5.6237
    -5.6207  -5.6202  -5.6201  -5.6115  -5.6086  -5.6053  -5.6037  -5.6018
    -5.6014  -5.5998  -5.5980  -5.5965  -5.5921  -5.5891  -5.5885  -5.5845
    -5.5830  -5.5811  -5.5737  -5.5706  -5.5686  -5.5675  -5.5611  -5.5600
    -5.5560  -5.5497  -5.5442  -5.5440  -5.5366  -5.5338  -5.5333  -5.5215
    -5.5166  -5.5164  -5.5153  -5.5135  -5.5107  -5.5074  -5.5057  -5.5027
    -5.4977  -5.4957  -5.4873  -5.4860  -5.4803  -5.4797  -5.4714  -5.4674
    -5.4612  -5.4540  -5.4532  -5.4511  -5.4387  -5.4356  -5.4346  -5.4271
    -5.4267  -5.4247  -5.4234  -5.4216  -5.4162  -5.4115  -5.4104  -5.4055
    -5.3989  -5.3937  -5.3828  -5.3805  -5.3664  -5.3599  -5.3580  -5.3417
    -5.3328  -5.3138  -5.2983  -5.2744  -5.2453  -4.9460  -4.9420  -4.7898
    -4.5509  -4.3467  -4.3458  -3.8558  -3.3940  -3.3479  -3.2512  -3.0699
    -2.9283  -2.8739  -2.8419  -2.7344  -2.6487  -2.6173  -2.2311  -2.2180
    -2.0784  -1.9250  -1.4441  -1.3463  -1.2337  -0.8688  -0.8558  -0.8118
    -0.7321  -0.4734  -0.4118  -0.3474  -0.1960   0.0781   0.3662   0.3743
     0.4022   0.4379   0.7376   0.7862   0.8650   0.9563   0.9590   0.9761
     1.3024   1.3532   1.5996   1.6798   2.1509   2.3278   2.4210   2.7262
     2.8818   2.8999   2.9141   2.9643   2.9873   3.0576   3.1467   3.3482
     3.4635   3.5213   3.5870   3.6586   3.6952   3.8624   4.0337   4.1261
     4.1577   4.3632   4.5094   4.5210   4.5442   4.6001   4.8241   4.8302
     4.8845   4.8848   4.9668   5.0039   5.0120   5.1639   5.1723   5.1796
     5.4381   5.4620   5.4627   5.5472   5.6618   5.6693   5.6876   5.7700
     5.8687   5.9109   5.9376   5.9664   6.0442   6.2551   6.2586   6.3515
     6.3560   6.3650   6.4475   6.4477   6.5366   6.5748   6.6255   6.6993
     6.7677   6.8382   6.8785   6.9361   7.2023   7.2325   7.2426   7.2501
     7.3110   7.3361   7.3795   7.4742   7.4931   7.5962   7.6531   7.7604
     7.7699   7.8046   7.8104   7.8341   7.9723   7.9784   7.9847   8.0783
     8.1017   8.1468   8.1833   8.1997   8.2575   8.2737   8.3725   8.4028

     occupation numbers 
     1.0000   1.0000   1.0000   1.0000   1.0000   1.0000   1.0000   1.0000
     1.0000   1.0000   1.0000   1.0000   1.0000   1.0000   1.0000   1.0000
     1.0000   1.0000   1.0000   1.0000   1.0000   1.0000   1.0000   1.0000
     1.0000   1.0000   1.0000   1.0000   1.0000   1.0000   1.0000   1.0000
     1.0000   1.0000   1.0000   1.0000   1.0000   1.0000   1.0000   1.0000
     1.0000   1.0000   1.0000   1.0000   1.0000   1.0000   1.0000   1.0000
     1.0000   1.0000   1.0000   1.0000   1.0000   1.0000   1.0000   1.0000
     1.0000   1.0000   1.0000   1.0000   1.0000   1.0000   1.0000   1.0000
     1.0000   1.0000   1.0000   1.0000   1.0000   1.0000   1.0000   1.0000
     1.0000   1.0000   1.0000   1.0000   1.0000   1.0000   1.0000   1.0000
     1.0000   1.0000   1.0000   1.0000   1.0000   1.0000   1.0000   1.0000
     1.0000   1.0000   1.0000   1.0000   1.0000   1.0000   1.0000   1.0000
     1.0000   1.0000   1.0000   1.0000   1.0000   1.0000   1.0000   1.0000
     1.0000   1.0000   1.0000   1.0000   1.0000   1.0000   1.0000   1.0000
     1.0000   1.0000   1.0000   1.0000   1.0000   1.0000   1.0000   1.0000
     1.0000   1.0000   1.0000   1.0000   1.0000   1.0000   1.0000   1.0000
     1.0000   1.0000   1.0000   1.0000   1.0000   1.0000   1.0000   1.0000
     1.0000   1.0000   1.0000   1.0000   1.0000   1.0000   1.0000   1.0000
     1.0000   1.0000   1.0000   1.0000   1.0000   1.0000   1.0000   1.0000
     1.0000   1.0000   1.0000   1.0000   1.0000   1.0000   1.0000   1.0000
     1.0000   1.0000   1.0000   1.0000   1.0000   1.0000   1.0000   1.0000
     1.0000   1.0000   1.0000   1.0000   1.0000   1.0000   1.0000   1.0000
     1.0000   1.0000   1.0000   1.0000   1.0000   1.0000   1.0000   1.0000
     1.0000   1.0000   1.0000   1.0000   1.0000   1.0000   1.0000   1.0000
     1.0000   1.0000   1.0000   1.0000   1.0000   1.0000   1.0000   1.0000
     1.0000   1.0000   1.0000   1.0000   1.0000   1.0000   1.0000   1.0000
     1.0000   1.0000   1.0000   1.0000   1.0000   1.0000   1.0000   1.0000
     1.0000   1.0000   1.0000   1.0000   1.0000   1.0000   1.0000   1.0000
     1.0000   1.0000   1.0000   1.0000   1.0000   1.0000   1.0000   1.0000
     1.0000   1.0000   1.0000   1.0000   1.0000   1.0000   1.0000   1.0000
     1.0000   1.0000   1.0000   1.0000   1.0000   1.0000   1.0000   1.0000
     1.0000   1.0000   1.0000   1.0000   1.0000   1.0000   1.0000   1.0000
     1.0000   1.0000   1.0000   1.0000   1.0000   1.0000   1.0000   1.0000
     1.0000   1.0000   1.0000   1.0000   1.0000   1.0000   1.0000   1.0000
     1.0000   1.0000   1.0000   1.0000   1.0000   1.0000   1.0000   1.0000
     1.0000   1.0000   1.0000   1.0000   1.0000   1.0000   1.0000   1.0000
     1.0000   1.0000   1.0000   1.0000   1.0000   1.0000   1.0000   1.0000
     1.0000   1.0000   1.0000   1.0000   1.0000   1.0000   1.0000   1.0000
     1.0000   1.0000   1.0000   1.0000   1.0000   1.0000   1.0000   1.0000
     1.0000   1.0000   1.0000   1.0000   1.0000   1.0000   1.0000   1.0000
     1.0000   1.0000   1.0000   1.0000   1.0000   1.0000   1.0000   1.0000
     1.0000   1.0000   1.0000   1.0000   1.0000   1.0000   1.0000   1.0000
     1.0000   1.0000   1.0000   1.0000   1.0000   1.0000   1.0000   1.0000
     1.0000   1.0000   1.0000   1.0000   1.0000   1.0000   1.0000   1.0000
     1.0000   1.0000   1.0000   1.0000   1.0000   1.0000   1.0000   1.0000
     1.0000   1.0000   1.0000   1.0000   1.0000   1.0000   1.0000   1.0000
     1.0000   1.0000   1.0000   1.0000   1.0000   1.0000   1.0000   1.0000
     1.0000   1.0000   1.0000   1.0000   1.0000   1.0000   1.0000   1.0000
     1.0000   1.0000   1.0000   1.0000   1.0000   1.0000   1.0000   1.0000
     1.0000   1.0000   1.0000   1.0000   1.0000   1.0000   1.0000   1.0000
     1.0000   1.0000   1.0000   1.0000   1.0000   1.0000   1.0000   1.0000
     1.0000   1.0000   1.0000   1.0000   1.0000   1.0000   1.0000   1.0000
     1.0000   1.0000   1.0000   1.0000   1.0000   1.0000   1.0000   1.0000
     1.0000   1.0000   1.0000   1.0000   1.0000   1.0000   1.0000   1.0000
     1.0000   1.0000   1.0000   1.0000   1.0000   1.0000   1.0000   1.0000
     1.0000   1.0000   1.0000   1.0000   1.0000   1.0000   1.0000   1.0000
     1.0000   1.0000   1.0000   1.0000   1.0000   1.0000   1.0000   1.0000
     1.0000   1.0000   1.0000   1.0000   1.0000   1.0000   1.0000   1.0000
     1.0000   1.0000   1.0000   1.0000   1.0000   1.0000   1.0006   1.0006
     1.0010   1.0019   1.0553   1.0713   1.0830   1.0392   1.0365   1.0175
     0.2592   0.1696   0.0086   0.0023   0.0000   0.0000   0.0000   0.0000
     0.0000   0.0000   0.0000   0.0000   0.0000   0.0000   0.0000   0.0000
     0.0000   0.0000   0.0000   0.0000   0.0000   0.0000   0.0000   0.0000
     0.0000   0.0000   0.0000   0.0000   0.0000   0.0000   0.0000   0.0000
     0.0000   0.0000   0.0000   0.0000   0.0000   0.0000   0.0000   0.0000
     0.0000   0.0000   0.0000   0.0000   0.0000   0.0000   0.0000   0.0000
     0.0000   0.0000   0.0000   0.0000   0.0000   0.0000   0.0000   0.0000
     0.0000   0.0000   0.0000   0.0000   0.0000   0.0000   0.0000   0.0000
     0.0000   0.0000   0.0000   0.0000   0.0000   0.0000   0.0000   0.0000
     0.0000   0.0000   0.0000   0.0000   0.0000   0.0000   0.0000   0.0000
     0.0000   0.0000   0.0000   0.0000   0.0000   0.0000   0.0000   0.0000
     0.0000   0.0000   0.0000   0.0000   0.0000   0.0000   0.0000   0.0000

          k = 0.3333-0.3107-0.1794 ( 67762 PWs)   bands (ev):

  -125.1285-125.1285-125.1279-125.1279-125.1272-125.1271-125.1266-125.1265
  -124.9838-124.9833-124.9825-124.9824-124.9821-124.9819-124.9811-124.9806
  -124.9592-124.9590-124.9588-124.9587-124.9580-124.9578-124.9576-124.9575
  -124.9065-124.9061-124.9061-124.9058-124.9053-124.9049-124.9049-124.9046
  -124.8748-124.8745-124.8736-124.8733-124.8720-124.8716-124.8708-124.8704
  -124.8117-124.8117-124.8114-124.8114-124.8105-124.8105-124.8102-124.8102
   -79.2852 -79.2852 -79.2841 -79.2840 -79.2834 -79.2834 -79.2824 -79.2824
   -79.2818 -79.2817 -79.2806 -79.2806 -79.2780 -79.2778 -79.2773 -79.2771
   -79.2763 -79.2763 -79.2757 -79.2756 -79.2682 -79.2682 -79.2636 -79.2636
   -79.1431 -79.1426 -79.1418 -79.1417 -79.1414 -79.1412 -79.1404 -79.1399
   -79.1395 -79.1390 -79.1381 -79.1381 -79.1376 -79.1376 -79.1367 -79.1362
   -79.1359 -79.1345 -79.1314 -79.1300 -79.1235 -79.1233 -79.1231 -79.1230
   -79.1222 -79.1221 -79.1218 -79.1217 -79.1191 -79.1177 -79.1153 -79.1151
   -79.1146 -79.1132 -79.1107 -79.1106 -79.1057 -79.1052 -79.1051 -79.1048
   -79.1040 -79.1038 -79.1035 -79.1033 -79.0984 -79.0982 -79.0938 -79.0937
   -79.0660 -79.0656 -79.0656 -79.0653 -79.0647 -79.0644 -79.0644 -79.0641
   -79.0640 -79.0638 -79.0596 -79.0593 -79.0562 -79.0559 -79.0559 -79.0555
   -79.0548 -79.0545 -79.0545 -79.0541 -79.0473 -79.0470 -79.0428 -79.0425
   -79.0360 -79.0357 -79.0348 -79.0344 -79.0333 -79.0329 -79.0320 -79.0316
   -79.0290 -79.0268 -79.0265 -79.0261 -79.0257 -79.0254 -79.0245 -79.0239
   -79.0235 -79.0228 -79.0224 -79.0216 -79.0123 -79.0094 -79.0078 -79.0049
   -78.9862 -78.9862 -78.9859 -78.9859 -78.9849 -78.9849 -78.9846 -78.9846
   -78.9631 -78.9630 -78.9601 -78.9600 -78.9598 -78.9597 -78.9588 -78.9588
   -78.9586 -78.9585 -78.9585 -78.9585 -78.9463 -78.9463 -78.9418 -78.9418
    -7.7686  -7.3265  -7.3198  -6.9295  -6.7827  -6.7063  -6.7038  -6.6511
    -6.6307  -6.6158  -6.6158  -6.5959  -6.5852  -6.5830  -6.5457  -6.5415
    -6.5340  -6.5286  -6.5276  -6.5186  -6.5151  -6.5062  -6.5015  -6.4936
    -6.4902  -6.4858  -6.4727  -6.4631  -6.4570  -6.4359  -6.4315  -6.4313
    -6.4301  -6.4222  -6.4051  -6.3977  -6.3954  -6.3884  -6.3854  -6.3657
    -6.3577  -6.3399  -6.3270  -6.3258  -6.3241  -6.3192  -6.2886  -6.2723
    -6.2617  -6.2568  -6.2565  -6.2477  -6.2387  -6.2341  -6.2306  -6.2293
    -6.2265  -6.2217  -6.2078  -6.2063  -6.1987  -6.1878  -6.1824  -6.1776
    -6.1742  -6.1687  -6.1649  -6.1635  -6.1439  -6.1428  -6.1379  -6.1371
    -6.1282  -6.1213  -6.1104  -6.1103  -6.1095  -6.0995  -6.0956  -6.0889
    -6.0804  -6.0802  -6.0713  -6.0588  -6.0575  -6.0488  -6.0486  -6.0414
    -6.0373  -6.0299  -6.0264  -6.0142  -6.0065  -6.0027  -5.9967  -5.9943
    -5.9891  -5.9869  -5.9840  -5.9830  -5.9695  -5.9663  -5.9634  -5.9600
    -5.9421  -5.9353  -5.9312  -5.9291  -5.9143  -5.9122  -5.9096  -5.8972
    -5.8820  -5.8725  -5.8656  -5.8642  -5.8632  -5.8565  -5.8523  -5.8457
    -5.8348  -5.8206  -5.8165  -5.8152  -5.8048  -5.7964  -5.7910  -5.7907
    -5.7884  -5.7852  -5.7838  -5.7823  -5.7818  -5.7720  -5.7626  -5.7624
    -5.7565  -5.7541  -5.7388  -5.7369  -5.7304  -5.7273  -5.7272  -5.7134
    -5.7090  -5.7040  -5.7023  -5.7015  -5.6979  -5.6963  -5.6930  -5.6869
    -5.6855  -5.6741  -5.6714  -5.6682  -5.6663  -5.6654  -5.6640  -5.6631
    -5.6473  -5.6469  -5.6454  -5.6425  -5.6349  -5.6337  -5.6298  -5.6237
    -5.6207  -5.6202  -5.6201  -5.6115  -5.6086  -5.6053  -5.6037  -5.6018
    -5.6014  -5.5998  -5.5980  -5.5965  -5.5921  -5.5891  -5.5885  -5.5845
    -5.5830  -5.5811  -5.5737  -5.5706  -5.5686  -5.5675  -5.5611  -5.5600
    -5.5560  -5.5497  -5.5442  -5.5440  -5.5366  -5.5338  -5.5333  -5.5215
    -5.5166  -5.5164  -5.5153  -5.5135  -5.5107  -5.5074  -5.5057  -5.5027
    -5.4977  -5.4957  -5.4873  -5.4860  -5.4803  -5.4797  -5.4714  -5.4674
    -5.4612  -5.4540  -5.4532  -5.4511  -5.4387  -5.4356  -5.4346  -5.4271
    -5.4267  -5.4247  -5.4234  -5.4216  -5.4162  -5.4115  -5.4104  -5.4055
    -5.3989  -5.3937  -5.3828  -5.3805  -5.3664  -5.3599  -5.3580  -5.3417
    -5.3328  -5.3138  -5.2983  -5.2744  -5.2453  -4.9460  -4.9420  -4.7898
    -4.5509  -4.3467  -4.3458  -3.8558  -3.3940  -3.3479  -3.2512  -3.0699
    -2.9283  -2.8739  -2.8419  -2.7344  -2.6487  -2.6173  -2.2311  -2.2180
    -2.0784  -1.9250  -1.4441  -1.3463  -1.2337  -0.8688  -0.8558  -0.8118
    -0.7321  -0.4734  -0.4118  -0.3474  -0.1960   0.0781   0.3662   0.3743
     0.4022   0.4379   0.7376   0.7862   0.8650   0.9563   0.9590   0.9761
     1.3024   1.3532   1.5996   1.6798   2.1509   2.3278   2.4210   2.7262
     2.8818   2.8999   2.9141   2.9643   2.9873   3.0576   3.1467   3.3482
     3.4635   3.5213   3.5870   3.6586   3.6952   3.8624   4.0337   4.1261
     4.1577   4.3632   4.5094   4.5210   4.5442   4.6001   4.8241   4.8302
     4.8845   4.8848   4.9668   5.0039   5.0120   5.1639   5.1723   5.1796
     5.4381   5.4620   5.4627   5.5472   5.6618   5.6693   5.6876   5.7700
     5.8687   5.9109   5.9376   5.9664   6.0442   6.2551   6.2586   6.3515
     6.3560   6.3650   6.4475   6.4477   6.5366   6.5748   6.6255   6.6993
     6.7677   6.8382   6.8785   6.9361   7.2023   7.2325   7.2426   7.2501
     7.3110   7.3361   7.3795   7.4742   7.4931   7.5962   7.6531   7.7604
     7.7700   7.8046   7.8104   7.8341   7.9723   7.9784   7.9847   8.0783
     8.1017   8.1468   8.1833   8.1996   8.2575   8.2737   8.3725   8.4028

     occupation numbers 
     1.0000   1.0000   1.0000   1.0000   1.0000   1.0000   1.0000   1.0000
     1.0000   1.0000   1.0000   1.0000   1.0000   1.0000   1.0000   1.0000
     1.0000   1.0000   1.0000   1.0000   1.0000   1.0000   1.0000   1.0000
     1.0000   1.0000   1.0000   1.0000   1.0000   1.0000   1.0000   1.0000
     1.0000   1.0000   1.0000   1.0000   1.0000   1.0000   1.0000   1.0000
     1.0000   1.0000   1.0000   1.0000   1.0000   1.0000   1.0000   1.0000
     1.0000   1.0000   1.0000   1.0000   1.0000   1.0000   1.0000   1.0000
     1.0000   1.0000   1.0000   1.0000   1.0000   1.0000   1.0000   1.0000
     1.0000   1.0000   1.0000   1.0000   1.0000   1.0000   1.0000   1.0000
     1.0000   1.0000   1.0000   1.0000   1.0000   1.0000   1.0000   1.0000
     1.0000   1.0000   1.0000   1.0000   1.0000   1.0000   1.0000   1.0000
     1.0000   1.0000   1.0000   1.0000   1.0000   1.0000   1.0000   1.0000
     1.0000   1.0000   1.0000   1.0000   1.0000   1.0000   1.0000   1.0000
     1.0000   1.0000   1.0000   1.0000   1.0000   1.0000   1.0000   1.0000
     1.0000   1.0000   1.0000   1.0000   1.0000   1.0000   1.0000   1.0000
     1.0000   1.0000   1.0000   1.0000   1.0000   1.0000   1.0000   1.0000
     1.0000   1.0000   1.0000   1.0000   1.0000   1.0000   1.0000   1.0000
     1.0000   1.0000   1.0000   1.0000   1.0000   1.0000   1.0000   1.0000
     1.0000   1.0000   1.0000   1.0000   1.0000   1.0000   1.0000   1.0000
     1.0000   1.0000   1.0000   1.0000   1.0000   1.0000   1.0000   1.0000
     1.0000   1.0000   1.0000   1.0000   1.0000   1.0000   1.0000   1.0000
     1.0000   1.0000   1.0000   1.0000   1.0000   1.0000   1.0000   1.0000
     1.0000   1.0000   1.0000   1.0000   1.0000   1.0000   1.0000   1.0000
     1.0000   1.0000   1.0000   1.0000   1.0000   1.0000   1.0000   1.0000
     1.0000   1.0000   1.0000   1.0000   1.0000   1.0000   1.0000   1.0000
     1.0000   1.0000   1.0000   1.0000   1.0000   1.0000   1.0000   1.0000
     1.0000   1.0000   1.0000   1.0000   1.0000   1.0000   1.0000   1.0000
     1.0000   1.0000   1.0000   1.0000   1.0000   1.0000   1.0000   1.0000
     1.0000   1.0000   1.0000   1.0000   1.0000   1.0000   1.0000   1.0000
     1.0000   1.0000   1.0000   1.0000   1.0000   1.0000   1.0000   1.0000
     1.0000   1.0000   1.0000   1.0000   1.0000   1.0000   1.0000   1.0000
     1.0000   1.0000   1.0000   1.0000   1.0000   1.0000   1.0000   1.0000
     1.0000   1.0000   1.0000   1.0000   1.0000   1.0000   1.0000   1.0000
     1.0000   1.0000   1.0000   1.0000   1.0000   1.0000   1.0000   1.0000
     1.0000   1.0000   1.0000   1.0000   1.0000   1.0000   1.0000   1.0000
     1.0000   1.0000   1.0000   1.0000   1.0000   1.0000   1.0000   1.0000
     1.0000   1.0000   1.0000   1.0000   1.0000   1.0000   1.0000   1.0000
     1.0000   1.0000   1.0000   1.0000   1.0000   1.0000   1.0000   1.0000
     1.0000   1.0000   1.0000   1.0000   1.0000   1.0000   1.0000   1.0000
     1.0000   1.0000   1.0000   1.0000   1.0000   1.0000   1.0000   1.0000
     1.0000   1.0000   1.0000   1.0000   1.0000   1.0000   1.0000   1.0000
     1.0000   1.0000   1.0000   1.0000   1.0000   1.0000   1.0000   1.0000
     1.0000   1.0000   1.0000   1.0000   1.0000   1.0000   1.0000   1.0000
     1.0000   1.0000   1.0000   1.0000   1.0000   1.0000   1.0000   1.0000
     1.0000   1.0000   1.0000   1.0000   1.0000   1.0000   1.0000   1.0000
     1.0000   1.0000   1.0000   1.0000   1.0000   1.0000   1.0000   1.0000
     1.0000   1.0000   1.0000   1.0000   1.0000   1.0000   1.0000   1.0000
     1.0000   1.0000   1.0000   1.0000   1.0000   1.0000   1.0000   1.0000
     1.0000   1.0000   1.0000   1.0000   1.0000   1.0000   1.0000   1.0000
     1.0000   1.0000   1.0000   1.0000   1.0000   1.0000   1.0000   1.0000
     1.0000   1.0000   1.0000   1.0000   1.0000   1.0000   1.0000   1.0000
     1.0000   1.0000   1.0000   1.0000   1.0000   1.0000   1.0000   1.0000
     1.0000   1.0000   1.0000   1.0000   1.0000   1.0000   1.0000   1.0000
     1.0000   1.0000   1.0000   1.0000   1.0000   1.0000   1.0000   1.0000
     1.0000   1.0000   1.0000   1.0000   1.0000   1.0000   1.0000   1.0000
     1.0000   1.0000   1.0000   1.0000   1.0000   1.0000   1.0000   1.0000
     1.0000   1.0000   1.0000   1.0000   1.0000   1.0000   1.0000   1.0000
     1.0000   1.0000   1.0000   1.0000   1.0000   1.0000   1.0000   1.0000
     1.0000   1.0000   1.0000   1.0000   1.0000   1.0000   1.0006   1.0006
     1.0010   1.0019   1.0553   1.0713   1.0830   1.0392   1.0365   1.0175
     0.2592   0.1696   0.0086   0.0023   0.0000   0.0000   0.0000   0.0000
     0.0000   0.0000   0.0000   0.0000   0.0000   0.0000   0.0000   0.0000
     0.0000   0.0000   0.0000   0.0000   0.0000   0.0000   0.0000   0.0000
     0.0000   0.0000   0.0000   0.0000   0.0000   0.0000   0.0000   0.0000
     0.0000   0.0000   0.0000   0.0000   0.0000   0.0000   0.0000   0.0000
[...]
     atom   29 type  1   force =     0.00000000    0.00000000    0.00000000
     atom   30 type  1   force =     0.00000000    0.00000000    0.00000000
     atom   31 type  1   force =     0.00000000    0.00000000    0.00000000
     atom   32 type  1   force =     0.00000000    0.00000000    0.00000000
     atom   33 type  1   force =     0.00000000    0.00000000    0.00000000
     atom   34 type  1   force =     0.00000000    0.00000000    0.00000000
     atom   35 type  1   force =     0.00000000    0.00000000    0.00000000
     atom   36 type  1   force =     0.00000000    0.00000000    0.00000000
     atom   37 type  1   force =     0.00000000    0.00000000    0.00000000
     atom   38 type  1   force =     0.00000000    0.00000000    0.00000000
     atom   39 type  1   force =     0.00000000    0.00000000    0.00000000
     atom   40 type  1   force =     0.00000000    0.00000000    0.00000000
     atom   41 type  1   force =     0.00000000    0.00000000    0.00000000
     atom   42 type  1   force =     0.00000000    0.00000000    0.00000000
     atom   43 type  1   force =     0.00000000    0.00000000    0.00000000
     atom   44 type  1   force =     0.00000000    0.00000000    0.00000000
     atom   45 type  1   force =     0.00000000    0.00000000    0.00000000
     atom   46 type  1   force =     0.00000000    0.00000000    0.00000000
     atom   47 type  1   force =     0.00000000    0.00000000    0.00000000
     atom   48 type  1   force =     0.00000000    0.00000000    0.00000000
     The SCF correction term to forces
     atom    1 type  1   force =    -0.00000000   -0.00000000   -0.00000000
     atom    2 type  1   force =    -0.00000000    0.00000000    0.00000000
     atom    3 type  1   force =    -0.00001886   -0.00003461    0.00000018
     atom    4 type  1   force =    -0.00001939    0.00003374   -0.00000125
     atom    5 type  1   force =    -0.00000622   -0.00001928    0.00002930
     atom    6 type  1   force =    -0.00000764    0.00001958    0.00004052
     atom    7 type  1   force =    -0.00000000    0.00000000   -0.00000000
     atom    8 type  1   force =    -0.00000000   -0.00000000    0.00000000
     atom    9 type  1   force =    -0.00001925    0.00000836    0.00000349
     atom   10 type  1   force =    -0.00001768   -0.00000798   -0.00000575
     atom   11 type  1   force =    -0.00000728   -0.00001135    0.00004387
     atom   12 type  1   force =    -0.00000598    0.00001108    0.00002533
     atom   13 type  1   force =     0.00000000   -0.00000000   -0.00000000
     atom   14 type  1   force =     0.00000000    0.00000000    0.00000000
     atom   15 type  1   force =     0.00001562   -0.00003277    0.00001508
     atom   16 type  1   force =     0.00001665    0.00003210    0.00001313
     atom   17 type  1   force =     0.00000572   -0.00001811    0.00003278
     atom   18 type  1   force =     0.00000588    0.00001669    0.00004371
     atom   19 type  1   force =     0.00000000    0.00000000   -0.00000000
     atom   20 type  1   force =     0.00000000   -0.00000000   -0.00000000
     atom   21 type  1   force =     0.00001486    0.00000582    0.00001912
     atom   22 type  1   force =     0.00001543   -0.00000538    0.00000826
     atom   23 type  1   force =     0.00000529   -0.00001117    0.00004516
     atom   24 type  1   force =     0.00000549    0.00001207    0.00003103
     atom   25 type  1   force =     0.00000000   -0.00000000   -0.00000000
     atom   26 type  1   force =    -0.00000000    0.00000000   -0.00000000
     atom   27 type  1   force =    -0.00000056   -0.00002834    0.00001623
     atom   28 type  1   force =     0.00000028    0.00002957    0.00002229
     atom   29 type  1   force =     0.00000422   -0.00000477   -0.00000943
     atom   30 type  1   force =     0.00000667    0.00000430    0.00001013
     atom   31 type  1   force =     0.00000000    0.00000000   -0.00000000
     atom   32 type  1   force =    -0.00000000   -0.00000000   -0.00000000
     atom   33 type  1   force =     0.00000237   -0.00001924    0.00002440
     atom   34 type  1   force =    -0.00000254    0.00001844    0.00001498
     atom   35 type  1   force =     0.00000644   -0.00002292    0.00000281
     atom   36 type  1   force =     0.00000413    0.00002243   -0.00000178
     atom   37 type  1   force =    -0.00000000   -0.00000000   -0.00000000
     atom   38 type  1   force =    -0.00000000    0.00000000   -0.00000000
     atom   39 type  1   force =    -0.00000030   -0.00002611    0.00000139
     atom   40 type  1   force =     0.00000088    0.00002915    0.00000876
     atom   41 type  1   force =    -0.00000513   -0.00000458    0.00000458
     atom   42 type  1   force =    -0.00000562    0.00000455    0.00002308
     atom   43 type  1   force =    -0.00000000    0.00000000   -0.00000000
     atom   44 type  1   force =    -0.00000000   -0.00000000   -0.00000000
     atom   45 type  1   force =    -0.00000083   -0.00001883    0.00001129
     atom   46 type  1   force =     0.00000166    0.00001583   -0.00000025
     atom   47 type  1   force =    -0.00000659   -0.00002099    0.00001540
     atom   48 type  1   force =    -0.00000460    0.00001994    0.00001082

     DFT-D3 dispersion contribution to forces:
     atom    1 type  1   force =     0.00000012   -0.00000014    0.00159552
     atom    2 type  1   force =     0.00000011    0.00000006    0.00159882
     atom    3 type  1   force =     0.00000755   -0.00000106    0.00160693
     atom    4 type  1   force =     0.00000723    0.00000394    0.00160487
     atom    5 type  1   force =     0.00000041   -0.00000093   -0.00118846
     atom    6 type  1   force =     0.00000071    0.00000186   -0.00118931
     atom    7 type  1   force =     0.00000008    0.00000043    0.00159631
     atom    8 type  1   force =     0.00000013   -0.00000059    0.00159772
     atom    9 type  1   force =     0.00000860    0.00000032    0.00160720
     atom   10 type  1   force =     0.00000737   -0.00000223    0.00160369
     atom   11 type  1   force =     0.00000107   -0.00000035   -0.00119034
     atom   12 type  1   force =     0.00000029   -0.00000036   -0.00118781
     atom   13 type  1   force =    -0.00000041   -0.00000020    0.00158974
     atom   14 type  1   force =    -0.00000044    0.00000013    0.00159289
     atom   15 type  1   force =    -0.00000654   -0.00000149    0.00161125
     atom   16 type  1   force =    -0.00000621    0.00000377    0.00161055
     atom   17 type  1   force =    -0.00000033   -0.00000024   -0.00120112
     atom   18 type  1   force =    -0.00000043    0.00000124   -0.00120257
     atom   19 type  1   force =    -0.00000035    0.00000025    0.00159052
     atom   20 type  1   force =    -0.00000043   -0.00000038    0.00159173
     atom   21 type  1   force =    -0.00000724   -0.00000003    0.00161239
     atom   22 type  1   force =    -0.00000620   -0.00000140    0.00160903
     atom   23 type  1   force =    -0.00000068   -0.00000076   -0.00120268
     atom   24 type  1   force =    -0.00000012   -0.00000031   -0.00120113
     atom   25 type  1   force =    -0.00000347   -0.00000065    0.00274475
     atom   26 type  1   force =    -0.00000350    0.00000022    0.00274558
     atom   27 type  1   force =    -0.00001388   -0.00000157   -0.00250238
     atom   28 type  1   force =    -0.00001457    0.00000067   -0.00250370
     atom   29 type  1   force =    -0.00000992   -0.00000116   -0.00225639
     atom   30 type  1   force =    -0.00000936   -0.00000068   -0.00224882
     atom   31 type  1   force =    -0.00000352    0.00000005    0.00274447
     atom   32 type  1   force =    -0.00000347   -0.00000021    0.00274602
     atom   33 type  1   force =    -0.00001375    0.00000166   -0.00250450
     atom   34 type  1   force =    -0.00001487   -0.00000061   -0.00250131
     atom   35 type  1   force =    -0.00000895   -0.00000082   -0.00225083
     atom   36 type  1   force =    -0.00001021    0.00000235   -0.00225372
     atom   37 type  1   force =     0.00000314   -0.00000081    0.00274783
     atom   38 type  1   force =     0.00000320    0.00000039    0.00274866
     atom   39 type  1   force =     0.00001263   -0.00000128   -0.00250053
     atom   40 type  1   force =     0.00001352    0.00000159   -0.00250134
     atom   41 type  1   force =     0.00001040   -0.00000117   -0.00225481
     atom   42 type  1   force =     0.00000993   -0.00000011   -0.00224858
     atom   43 type  1   force =     0.00000312    0.00000007    0.00274767
     atom   44 type  1   force =     0.00000319   -0.00000022    0.00274915
     atom   45 type  1   force =     0.00001265    0.00000137   -0.00250202
     atom   46 type  1   force =     0.00001347   -0.00000158   -0.00249960
     atom   47 type  1   force =     0.00000936   -0.00000109   -0.00224931
     atom   48 type  1   force =     0.00001056    0.00000207   -0.00225201

     Total force =     0.000706     Total SCF correction =     0.000175

     DFT-D3 dispersion Force =     0.014264
     SCF correction compared to forces is large: reduce conv_thr to get better values


     Computing stress (Cartesian axis) and pressure

          total   stress  (Ry/bohr**3)                   (kbar)     P=      -16.56
  -0.00019333  -0.00000000   0.00000000          -28.44       -0.00        0.00
  -0.00000000  -0.00013031   0.00000000           -0.00      -19.17        0.00
   0.00000000   0.00000000  -0.00001412            0.00        0.00       -2.08

     kinetic stress (kbar)  11933.69      0.00     -0.00
                                0.00  11909.35     -0.00
                               -0.00     -0.00  11969.13

     local   stress (kbar)**********     -0.00      0.10
                               -0.00**********      0.07
                                0.10      0.071023186.96

     nonloc. stress (kbar)  -1288.51     -0.00     -0.00
                               -0.00  -1260.74      0.00
                               -0.00      0.00  -1310.08

     hartree stress (kbar) 531685.43      0.00     -0.05
                                0.00 537020.08     -0.03
                               -0.05     -0.03-477972.98

     exc-cor stress (kbar)  -6010.99      0.00     -0.00
                                0.00  -6007.63     -0.00
                               -0.00     -0.00  -6015.87

     corecor stress (kbar)      0.00      0.00      0.00
                                0.00      0.00      0.00
                                0.00      0.00      0.00

     ewald   stress (kbar) 474020.10      0.00     -0.05
                                0.00 481091.05     -0.04
                               -0.05     -0.04-549856.48

     hubbard stress (kbar)      0.00      0.00      0.00
                                0.00      0.00      0.00
                                0.00      0.00      0.00

     DFT-D   stress (kbar)     -5.90     -0.00      0.00
                               -0.00     -8.58      0.00
                                0.00      0.00     -2.77

     XDM     stress (kbar)      0.00      0.00      0.00
                                0.00      0.00      0.00
                                0.00      0.00      0.00

     dft-nl  stress (kbar)      0.00      0.00      0.00
                                0.00      0.00      0.00
                                0.00      0.00      0.00

     TS-vdW  stress (kbar)      0.00      0.00      0.00
                                0.00      0.00      0.00
                                0.00      0.00      0.00

     MDB     stress (kbar)      0.00      0.00      0.00
                                0.00      0.00      0.00
                                0.00      0.00      0.00

     3D-RISM stress (kbar)      0.00      0.00      0.00
                                0.00      0.00      0.00
                                0.00      0.00      0.00

     Energy error            =      3.9E-06 Ry
     Gradient error          =      1.9E-04 Ry/Bohr

     bfgs converged in  21 scf cycles and  20 bfgs steps
     (criteria: energy <  1.0E-05 Ry, force <  5.0E-04 Ry/Bohr)

     End of BFGS Geometry Optimization

     Final energy             =  -22154.7386825033 Ry

     File ./tmp/Zn100_3layer_relax.bfgs deleted, as requested
Begin final coordinates

ATOMIC_POSITIONS (angstrom)
Zn               1.2182900000        1.3071800000        0.7547010000    0   0   0
Zn               1.2182900000        6.5359000000        0.7547010000    0   0   0
Zn               1.2189711913       -0.0000397592        3.5626172305
Zn               1.2189249843        5.2290479765        3.5620389769
Zn               1.2185324679       -1.3073042199        6.0879044029
Zn               1.2186089721        3.9218261787        6.0880408664
Zn               1.2182900000        3.9215400000        0.7547010000    0   0   0
Zn               1.2182900000        9.1502600000        0.7547010000    0   0   0
Zn               1.2191250532        2.6144147700        3.5629043131
Zn               1.2189519114        7.8429575358        3.5614721686
Zn               1.2186624527        1.3071456528        6.0880480486
Zn               1.2185228780        6.5359648762        6.0877724841
Zn               6.0914510000        1.3071800000        0.7547010000    0   0   0
Zn               6.0914510000        6.5359000000        0.7547010000    0   0   0
Zn               6.0910280288       -0.0000821572        3.5659447041
Zn               6.0910527112        5.2290428295        3.5656213270
Zn               6.0913013724       -1.3072712118        6.0884797757
Zn               6.0912803900        3.9217811537        6.0886576786
Zn               6.0914510000        3.9215400000        0.7547010000    0   0   0
Zn               6.0914510000        9.1502600000        0.7547010000    0   0   0
Zn               6.0909304459        2.6144268680        3.5662739643
Zn               6.0910536852        7.8429697391        3.5650327352
Zn               6.0912398669        1.3071334772        6.0886158975
Zn               6.0913399193        6.5359355188        6.0885066645
Zn               3.6548710000       -0.0000000000        1.5094010000    0   0   0
Zn               3.6548710000        5.2287200000        1.5094010000    0   0   0
Zn               3.6530037229       -1.3073007711        3.7815047041
Zn               3.6528981951        3.9216727161        3.7813493599
Zn               3.6544139715       -2.6144701092        6.1552676599
Zn               3.6544474660        2.6143677947        6.1556894238
Zn               3.6548710000        2.6143600000        1.5094010000    0   0   0
Zn               3.6548710000        7.8430800000        1.5094010000    0   0   0
Zn               3.6530328386        1.3073472093        3.7813403963
Zn               3.6528180911        6.5358870807        3.7816681823
Zn               3.6545245658       -0.0001413024        6.1555692005
Zn               3.6543896302        5.2290831092        6.1553925224
Zn               8.5280310000       -0.0000000000        1.5094010000    0   0   0
Zn               8.5280310000        5.2287200000        1.5094010000    0   0   0
Zn               8.5299021864       -1.3072539723        3.7796520147
Zn               8.5300470119        3.9217089475        3.7795225631
Zn               8.5284831647       -2.6144628094        6.1537018908
Zn               8.5285105862        2.6144101217        6.1540128563
Zn               8.5280310000        2.6143600000        1.5094010000    0   0   0
Zn               8.5280310000        7.8430800000        1.5094010000    0   0   0
Zn               8.5299099877        1.3073536998        3.7794448459
Zn               8.5300497832        6.5357912199        3.7798277405
Zn               8.5284040248       -0.0001238892        6.1539228026
Zn               8.5285532268        5.2290126469        6.1537568852
End final coordinates



     Writing all to output data dir ./tmp/Zn100_3layer_relax.save/ :
     XML data file, charge density, pseudopotentials, collected wavefunctions

     init_run     :     63.93s CPU     65.40s WALL (       1 calls)
     electrons    :  44030.28s CPU  44631.58s WALL (      21 calls)
     update_pot   :      2.02s CPU      2.10s WALL (      20 calls)
     forces       :   1266.34s CPU   1277.50s WALL (      21 calls)
     force_dftd3  :      1.60s CPU      1.82s WALL (      21 calls)
     stress       :   3079.20s CPU   3099.49s WALL (      21 calls)
     stres_dftd3  :      1.62s CPU      1.77s WALL (      21 calls)

     Called by init_run:
     wfcinit      :     62.51s CPU     63.83s WALL (       1 calls)
     wfcinit:atom :      0.03s CPU      0.09s WALL (       5 calls)
     wfcinit:wfcr :     61.97s CPU     62.97s WALL (       5 calls)
     potinit      :      0.11s CPU      0.12s WALL (       1 calls)
     hinit0       :      0.04s CPU      0.04s WALL (       1 calls)

     Called by electrons:
     c_bands      :  41091.46s CPU  41610.93s WALL (     167 calls)
     sum_band     :   2745.05s CPU   2813.41s WALL (     167 calls)
     v_of_rho     :     13.30s CPU     13.88s WALL (     167 calls)
     v_h          :      0.90s CPU      0.99s WALL (     167 calls)
     v_xc         :     12.40s CPU     12.90s WALL (     167 calls)
     newd         :    199.64s CPU    213.24s WALL (     167 calls)
     mix_rho      :      1.39s CPU      1.55s WALL (     167 calls)
     energy_dftd3 :      0.83s CPU      0.83s WALL (      21 calls)

     Called by c_bands:
     init_us_2    :     34.13s CPU     34.65s WALL (    1885 calls)
     cegterg      :  41015.55s CPU  41530.38s WALL (     835 calls)

     Called by sum_band:
     sum_band:wei :      0.42s CPU      0.44s WALL (     167 calls)
     sum_band:loo :   2576.56s CPU   2629.58s WALL (     167 calls)
     sum_band:buf :      6.46s CPU      8.28s WALL (     835 calls)
     sum_band:ini :     15.21s CPU     15.31s WALL (     835 calls)
     sum_band:cal :   2173.35s CPU   2183.36s WALL (     835 calls)
     sum_band:bec :     17.44s CPU     17.48s WALL (     835 calls)
     addusdens    :    163.27s CPU    178.29s WALL (     167 calls)
                                        0.00s GPU  (     167 calls)
     addusd:skk   :      1.38s CPU      2.35s WALL (     167 calls)
                                        0.00s GPU  (     167 calls)

     Called by *egterg:
     cdiaghg      :   1821.91s CPU   1889.39s WALL (    2981 calls)
     cegterg:over :   6939.81s CPU   6964.72s WALL (    2351 calls)
     cegterg:upda :   2880.42s CPU   2903.26s WALL (    2351 calls)
     cegterg:last :  12076.79s CPU  12141.63s WALL (    1728 calls)
     cdiaghg:chol :    132.37s CPU    132.73s WALL (    2981 calls)
     cdiaghg:inve :     20.14s CPU     20.20s WALL (    2981 calls)
     cdiaghg:para :    509.24s CPU    518.90s WALL (    5962 calls)
     h_psi        :  11227.55s CPU  11482.76s WALL (    3191 calls)
     s_psi        :   4475.25s CPU   4486.63s WALL (    3191 calls)
     g_psi        :      5.07s CPU      5.13s WALL (    2351 calls)

     Called by h_psi:
     h_psi:calbec :   5035.52s CPU   5060.04s WALL (    3191 calls)
     vloc_psi     :   1604.21s CPU   1803.25s WALL (    3191 calls)
     add_vuspsi   :   4580.11s CPU   4592.70s WALL (    3191 calls)

     General routines
     calbec       :   8656.51s CPU   8697.57s WALL (    4551 calls)
     fft          :     11.34s CPU     12.42s WALL (    2338 calls)
     ffts         :      0.43s CPU      0.52s WALL (     334 calls)
     fftw         :   1751.65s CPU   1971.70s WALL ( 2708980 calls)
     interpolate  :      0.83s CPU      0.95s WALL (     167 calls)

     Parallel routines

     PWSCF        :     13h27m CPU     13h38m WALL


   This run was terminated on:   5:44:57  29Mar2025            

=------------------------------------------------------------------------------=
   JOB DONE.
=------------------------------------------------------------------------------=
