
     Program PWSCF v.7.3.1 starts on 26Mar2025 at 19:40:45 

     This program is part of the open-source Quantum ESPRESSO suite
     for quantum simulation of materials; please cite
         "P. Giannozzi et al., J. Phys.:Condens. Matter 21 395502 (2009);
         "P. Giannozzi et al., J. Phys.:Condens. Matter 29 465901 (2017);
         "P. Giannozzi et al., J. Chem. Phys. 152 154105 (2020);
          URL http://www.quantum-espresso.org", 
     in publications or presentations arising from this work. More details at
     http://www.quantum-espresso.org/quote

     Parallel version (MPI), running on    33 processors

     MPI processes distributed on     1 nodes
     64186 MiB available memory on the printing compute node when the environment starts

     Waiting for input...
     Reading input from standard input

     Current dimensions of program PWSCF are:
     Max number of different atomic species (ntypx) = 10
     Max number of k-points (npk) =  40000
     Max angular momentum in pseudopotentials (lmaxx) =  4
     Found identity + ( -0.5000  0.0000  0.0000) symmetry
     This is a supercell, fractional translations are disabled

     R & G space division:  proc/nbgrp/npool/nimage =      33
     Subspace diagonalization in iterative solution of the eigenvalue problem:
     one sub-group per band group will be used
     custom distributed-memory algorithm (size of sub-group:  5*  5 procs)


     Parallelization info
     --------------------
     sticks:   dense  smooth     PW     G-vecs:    dense   smooth      PW
     Min         228     130     36                36393    15714    2270
     Max         230     131     37                36401    15723    2280
     Sum        7555    4303   1189              1201061   518755   75035

     Using Slab Decomposition



     bravais-lattice index     =            0
     lattice parameter (alat)  =      19.7617  a.u.
     unit-cell volume          =   15176.5939 (a.u.)^3
     number of atoms/cell      =           48
     number of atomic types    =            1
     number of electrons       =       960.00
     number of Kohn-Sham states=          576
     kinetic-energy cutoff     =      40.0000  Ry
     charge density cutoff     =     280.0000  Ry
     scf convergence threshold =      1.0E-05
     mixing beta               =       0.5000
     number of iterations used =            8  plain     mixing
     Exchange-correlation= SLA  PW   PBE  PBE
                           (   1   4   3   4   0   0   0)

     celldm(1)=  19.761696  celldm(2)=   0.000000  celldm(3)=   0.000000
     celldm(4)=   0.000000  celldm(5)=   0.000000  celldm(6)=   0.000000

     crystal axes: (cart. coord. in units of alat)
               a(1) = (   1.000000   0.000000   0.000000 )  
               a(2) = (  -0.500000   0.866025   0.000000 )  
               a(3) = (   0.000000   0.000000   2.270759 )  

     reciprocal axes: (cart. coord. in units 2 pi/alat)
               b(1) = (  1.000000  0.577350 -0.000000 )  
               b(2) = (  0.000000  1.154701  0.000000 )  
               b(3) = (  0.000000 -0.000000  0.440381 )  


     PseudoPot. # 1 for Zn read from file:
     /home/ys/qepseudo/SSSP_1.3.0_PBE_efficiency/Zn_pbe_v1.uspp.F.UPF
     MD5 check sum: df62231357ef9e81f77b2b3087fa5675
     Pseudo is Ultrasoft, Zval = 20.0
     Generated by new atomic code, or converted to UPF format
     Using radial grid of  943 points,  6 beta functions with: 
                l(1) =   0
                l(2) =   0
                l(3) =   1
                l(4) =   1
                l(5) =   2
                l(6) =   2
     Q(r) pseudized with  8 coefficients,  rinner =    1.100   1.100   1.100
                                                       1.100   1.100

     atomic species   valence    mass     pseudopotential
     Zn               20.00    65.38000     Zn( 1.00)

     No symmetry found


                                    s                        frac. trans.

      isym =  1     identity                                     

 cryst.   s( 1) = (     1          0          0      )
                  (     0          1          0      )
                  (     0          0          1      )

 cart.    s( 1) = (  1.0000000  0.0000000  0.0000000 )
                  (  0.0000000  1.0000000  0.0000000 )
                  (  0.0000000  0.0000000  1.0000000 )


   Cartesian axes

     site n.     atom                  positions (alat units)
         1        Zn     tau(   1) = (   0.0000000   0.1443375   0.1164998  )
         2        Zn     tau(   2) = (   0.5000000   0.1443375   0.1164998  )
         3        Zn     tau(   3) = (   0.0000000   0.1443375   0.5824993  )
         4        Zn     tau(   4) = (   0.5000000   0.1443375   0.5824993  )
         5        Zn     tau(   5) = (  -0.1250000   0.3608439   0.1164998  )
         6        Zn     tau(   6) = (   0.3750000   0.3608439   0.1164998  )
         7        Zn     tau(   7) = (  -0.1250000   0.3608439   0.5824993  )
         8        Zn     tau(   8) = (   0.3750000   0.3608439   0.5824993  )
         9        Zn     tau(   9) = (  -0.2500000   0.5773502   0.1164998  )
        10        Zn     tau(  10) = (   0.2500000   0.5773502   0.1164998  )
        11        Zn     tau(  11) = (  -0.2500000   0.5773502   0.5824993  )
        12        Zn     tau(  12) = (   0.2500000   0.5773502   0.5824993  )
        13        Zn     tau(  13) = (  -0.3750000   0.7938567   0.1164998  )
        14        Zn     tau(  14) = (   0.1250000   0.7938567   0.1164998  )
        15        Zn     tau(  15) = (  -0.3750000   0.7938567   0.5824993  )
        16        Zn     tau(  16) = (   0.1250000   0.7938567   0.5824993  )
        17        Zn     tau(  17) = (   0.2500000   0.1443375   0.1164998  )
        18        Zn     tau(  18) = (   0.7500000   0.1443375   0.1164998  )
        19        Zn     tau(  19) = (   0.2500000   0.1443375   0.5824993  )
        20        Zn     tau(  20) = (   0.7500000   0.1443375   0.5824993  )
        21        Zn     tau(  21) = (   0.1250000   0.3608439   0.1164998  )
        22        Zn     tau(  22) = (   0.6250000   0.3608439   0.1164998  )
        23        Zn     tau(  23) = (   0.1250000   0.3608439   0.5824993  )
        24        Zn     tau(  24) = (   0.6250000   0.3608439   0.5824993  )
        25        Zn     tau(  25) = (   0.0000000   0.5773502   0.1164998  )
        26        Zn     tau(  26) = (   0.5000000   0.5773502   0.1164998  )
        27        Zn     tau(  27) = (   0.0000000   0.5773502   0.5824993  )
        28        Zn     tau(  28) = (   0.5000000   0.5773502   0.5824993  )
        29        Zn     tau(  29) = (  -0.1250000   0.7938567   0.1164998  )
        30        Zn     tau(  30) = (   0.3750000   0.7938567   0.1164998  )
        31        Zn     tau(  31) = (  -0.1250000   0.7938567   0.5824993  )
        32        Zn     tau(  32) = (   0.3750000   0.7938567   0.5824993  )
        33        Zn     tau(  33) = (   0.1250000   0.0721688   0.3494996  )
        34        Zn     tau(  34) = (   0.6250000   0.0721688   0.3494996  )
        35        Zn     tau(  35) = (   0.0000000   0.2886752   0.3494996  )
        36        Zn     tau(  36) = (   0.5000000   0.2886752   0.3494996  )
        37        Zn     tau(  37) = (  -0.1250000   0.5051815   0.3494996  )
        38        Zn     tau(  38) = (   0.3750000   0.5051815   0.3494996  )
        39        Zn     tau(  39) = (  -0.2500000   0.7216879   0.3494996  )
        40        Zn     tau(  40) = (   0.2500000   0.7216879   0.3494996  )
        41        Zn     tau(  41) = (   0.3750000   0.0721688   0.3494996  )
        42        Zn     tau(  42) = (   0.8750000   0.0721688   0.3494996  )
        43        Zn     tau(  43) = (   0.2500000   0.2886752   0.3494996  )
        44        Zn     tau(  44) = (   0.7500000   0.2886752   0.3494996  )
        45        Zn     tau(  45) = (   0.1250000   0.5051815   0.3494996  )
        46        Zn     tau(  46) = (   0.6250000   0.5051815   0.3494996  )
        47        Zn     tau(  47) = (   0.0000000   0.7216879   0.3494996  )
        48        Zn     tau(  48) = (   0.5000000   0.7216879   0.3494996  )

   Crystallographic axes

     site n.     atom                  positions (cryst. coord.)
         1        Zn     tau(   1) = (  0.0833333  0.1666666  0.0513044  )
         2        Zn     tau(   2) = (  0.5833333  0.1666666  0.0513044  )
         3        Zn     tau(   3) = (  0.0833333  0.1666666  0.2565219  )
         4        Zn     tau(   4) = (  0.5833333  0.1666666  0.2565219  )
         5        Zn     tau(   5) = (  0.0833333  0.4166666  0.0513044  )
         6        Zn     tau(   6) = (  0.5833333  0.4166666  0.0513044  )
         7        Zn     tau(   7) = (  0.0833333  0.4166666  0.2565219  )
         8        Zn     tau(   8) = (  0.5833333  0.4166666  0.2565219  )
         9        Zn     tau(   9) = (  0.0833333  0.6666666  0.0513044  )
        10        Zn     tau(  10) = (  0.5833333  0.6666666  0.0513044  )
        11        Zn     tau(  11) = (  0.0833333  0.6666666  0.2565219  )
        12        Zn     tau(  12) = (  0.5833333  0.6666666  0.2565219  )
        13        Zn     tau(  13) = (  0.0833333  0.9166667  0.0513044  )
        14        Zn     tau(  14) = (  0.5833334  0.9166667  0.0513044  )
        15        Zn     tau(  15) = (  0.0833333  0.9166667  0.2565219  )
        16        Zn     tau(  16) = (  0.5833334  0.9166667  0.2565219  )
        17        Zn     tau(  17) = (  0.3333333  0.1666666  0.0513044  )
        18        Zn     tau(  18) = (  0.8333334  0.1666666  0.0513044  )
        19        Zn     tau(  19) = (  0.3333333  0.1666666  0.2565219  )
        20        Zn     tau(  20) = (  0.8333334  0.1666666  0.2565219  )
        21        Zn     tau(  21) = (  0.3333333  0.4166666  0.0513044  )
        22        Zn     tau(  22) = (  0.8333333  0.4166666  0.0513044  )
        23        Zn     tau(  23) = (  0.3333333  0.4166666  0.2565219  )
        24        Zn     tau(  24) = (  0.8333333  0.4166666  0.2565219  )
        25        Zn     tau(  25) = (  0.3333333  0.6666666  0.0513044  )
        26        Zn     tau(  26) = (  0.8333333  0.6666666  0.0513044  )
        27        Zn     tau(  27) = (  0.3333333  0.6666666  0.2565219  )
        28        Zn     tau(  28) = (  0.8333333  0.6666666  0.2565219  )
        29        Zn     tau(  29) = (  0.3333334  0.9166667  0.0513044  )
        30        Zn     tau(  30) = (  0.8333334  0.9166667  0.0513044  )
        31        Zn     tau(  31) = (  0.3333334  0.9166667  0.2565219  )
        32        Zn     tau(  32) = (  0.8333334  0.9166667  0.2565219  )
        33        Zn     tau(  33) = (  0.1666667  0.0833334  0.1539131  )
        34        Zn     tau(  34) = (  0.6666667  0.0833334  0.1539131  )
        35        Zn     tau(  35) = (  0.1666667  0.3333334  0.1539131  )
        36        Zn     tau(  36) = (  0.6666667  0.3333334  0.1539131  )
        37        Zn     tau(  37) = (  0.1666667  0.5833334  0.1539131  )
        38        Zn     tau(  38) = (  0.6666667  0.5833334  0.1539131  )
        39        Zn     tau(  39) = (  0.1666667  0.8333334  0.1539131  )
        40        Zn     tau(  40) = (  0.6666667  0.8333334  0.1539131  )
        41        Zn     tau(  41) = (  0.4166667  0.0833334  0.1539131  )
        42        Zn     tau(  42) = (  0.9166667  0.0833334  0.1539131  )
        43        Zn     tau(  43) = (  0.4166667  0.3333334  0.1539131  )
        44        Zn     tau(  44) = (  0.9166667  0.3333334  0.1539131  )
        45        Zn     tau(  45) = (  0.4166667  0.5833334  0.1539131  )
        46        Zn     tau(  46) = (  0.9166667  0.5833334  0.1539131  )
        47        Zn     tau(  47) = (  0.4166667  0.8333334  0.1539131  )
        48        Zn     tau(  48) = (  0.9166667  0.8333334  0.1539131  )

     number of k points=    10  Marzari-Vanderbilt smearing, width (Ry)=  0.0200
                       cart. coord. in units 2pi/alat
        k(    1) = (   0.0000000   0.0000000   0.0000000), wk =   0.1250000
        k(    2) = (   0.0000000   0.2886751   0.0000000), wk =   0.2500000
        k(    3) = (   0.0000000  -0.5773503   0.0000000), wk =   0.1250000
        k(    4) = (   0.2500000   0.1443376   0.0000000), wk =   0.2500000
        k(    5) = (   0.2500000   0.4330127   0.0000000), wk =   0.2500000
        k(    6) = (   0.2500000  -0.4330127   0.0000000), wk =   0.2500000
        k(    7) = (   0.2500000  -0.1443376   0.0000000), wk =   0.2500000
        k(    8) = (  -0.5000000  -0.2886751   0.0000000), wk =   0.1250000
        k(    9) = (  -0.5000000   0.0000000   0.0000000), wk =   0.2500000
        k(   10) = (  -0.5000000  -0.8660254   0.0000000), wk =   0.1250000

                       cryst. coord.
        k(    1) = (   0.0000000   0.0000000   0.0000000), wk =   0.1250000
        k(    2) = (   0.0000000   0.2500000   0.0000000), wk =   0.2500000
        k(    3) = (   0.0000000  -0.5000000   0.0000000), wk =   0.1250000
        k(    4) = (   0.2500000   0.0000000   0.0000000), wk =   0.2500000
        k(    5) = (   0.2500000   0.2500000   0.0000000), wk =   0.2500000
        k(    6) = (   0.2500000  -0.5000000   0.0000000), wk =   0.2500000
        k(    7) = (   0.2500000  -0.2500000   0.0000000), wk =   0.2500000
        k(    8) = (  -0.5000000   0.0000000   0.0000000), wk =   0.1250000
        k(    9) = (  -0.5000000   0.2500000   0.0000000), wk =   0.2500000
        k(   10) = (  -0.5000000  -0.5000000   0.0000000), wk =   0.1250000

     Dense  grid:  1201061 G-vectors     FFT dimensions: ( 108, 108, 240)

     Smooth grid:   518755 G-vectors     FFT dimensions: (  80,  80, 192)

     Dynamical RAM for                 wfc:      17.26 MB

     Dynamical RAM for     wfc (w. buffer):     189.88 MB

     Dynamical RAM for           str. fact:       0.56 MB

     Dynamical RAM for           local pot:       0.00 MB

     Dynamical RAM for          nlocal pot:      25.89 MB

     Dynamical RAM for                qrad:       1.34 MB

     Dynamical RAM for          rho,v,vnew:       3.80 MB

     Dynamical RAM for               rhoin:       1.27 MB

     Dynamical RAM for            rho*nmix:       8.89 MB

     Dynamical RAM for           G-vectors:       2.20 MB

     Dynamical RAM for          h,s,v(r/c):       2.42 MB

     Dynamical RAM for          <psi|beta>:       7.59 MB

     Dynamical RAM for                 psi:      34.52 MB

     Dynamical RAM for                hpsi:      34.52 MB

     Dynamical RAM for                spsi:      34.52 MB

     Dynamical RAM for      wfcinit/wfcrot:      46.32 MB

     Dynamical RAM for           addusdens:     129.95 MB

     Estimated static dynamical RAM per process >     229.61 MB

     Estimated max dynamical RAM per process >     368.45 MB

     Estimated total dynamical RAM >      11.87 GB

     Initial potential from superposition of free atoms

     starting charge     959.9932, renormalised to     960.0000

     negative rho (up, down):  4.194E-03 0.000E+00
     Starting wfcs are  624 randomized atomic wfcs

     total cpu time spent up to now is      136.9 secs

     Self-consistent Calculation

     iteration #  1     ecut=    40.00 Ry     beta= 0.50
     Davidson diagonalization with overlap

---- Real-time Memory Report at c_bands before calling an iterative solver
           299 MiB given to the printing process from OS
             0 MiB allocation reported by mallinfo(arena+hblkhd)
         56172 MiB available memory on the node where the printing process lives
------------------
     ethr =  1.00E-02,  avg # of iterations =  9.4

     Threshold (ethr) on eigenvalues was too large:
     Diagonalizing with lowered threshold

     Davidson diagonalization with overlap

---- Real-time Memory Report at c_bands before calling an iterative solver
           391 MiB given to the printing process from OS
             0 MiB allocation reported by mallinfo(arena+hblkhd)
         55024 MiB available memory on the node where the printing process lives
------------------
     ethr =  1.61E-04,  avg # of iterations = 11.2

     negative rho (up, down):  5.184E-03 0.000E+00

     total cpu time spent up to now is     1442.0 secs

     total energy              =  -22153.72018778 Ry
     estimated scf accuracy    <       1.57417206 Ry

     iteration #  2     ecut=    40.00 Ry     beta= 0.50
     Davidson diagonalization with overlap

---- Real-time Memory Report at c_bands before calling an iterative solver
           400 MiB given to the printing process from OS
             0 MiB allocation reported by mallinfo(arena+hblkhd)
         54928 MiB available memory on the node where the printing process lives
------------------
     ethr =  1.64E-04,  avg # of iterations =  3.1

     negative rho (up, down):  5.810E-03 0.000E+00

     total cpu time spent up to now is     2117.3 secs

     total energy              =  -22154.15220911 Ry
     estimated scf accuracy    <       0.67978729 Ry

     iteration #  3     ecut=    40.00 Ry     beta= 0.50
     Davidson diagonalization with overlap

---- Real-time Memory Report at c_bands before calling an iterative solver
           403 MiB given to the printing process from OS
             0 MiB allocation reported by mallinfo(arena+hblkhd)
         54906 MiB available memory on the node where the printing process lives
------------------
     ethr =  7.08E-05,  avg # of iterations =  2.9

     negative rho (up, down):  5.938E-03 0.000E+00

     total cpu time spent up to now is     2764.1 secs

     total energy              =  -22154.25273092 Ry
     estimated scf accuracy    <       0.03189195 Ry

     iteration #  4     ecut=    40.00 Ry     beta= 0.50
     Davidson diagonalization with overlap

---- Real-time Memory Report at c_bands before calling an iterative solver
           404 MiB given to the printing process from OS
             0 MiB allocation reported by mallinfo(arena+hblkhd)
         54886 MiB available memory on the node where the printing process lives
------------------
     ethr =  3.32E-06,  avg # of iterations = 11.2

     negative rho (up, down):  6.017E-03 0.000E+00

     total cpu time spent up to now is     3527.7 secs

     total energy              =  -22154.25358248 Ry
     estimated scf accuracy    <       0.01621192 Ry

     iteration #  5     ecut=    40.00 Ry     beta= 0.50
     Davidson diagonalization with overlap

---- Real-time Memory Report at c_bands before calling an iterative solver
           405 MiB given to the printing process from OS
             0 MiB allocation reported by mallinfo(arena+hblkhd)
         54874 MiB available memory on the node where the printing process lives
------------------
     ethr =  1.69E-06,  avg # of iterations =  3.2

     negative rho (up, down):  6.059E-03 0.000E+00

     total cpu time spent up to now is     4122.4 secs

     total energy              =  -22154.25482159 Ry
     estimated scf accuracy    <       0.00333350 Ry

     iteration #  6     ecut=    40.00 Ry     beta= 0.50
     Davidson diagonalization with overlap

---- Real-time Memory Report at c_bands before calling an iterative solver
           405 MiB given to the printing process from OS
             0 MiB allocation reported by mallinfo(arena+hblkhd)
         54855 MiB available memory on the node where the printing process lives
------------------
     ethr =  3.47E-07,  avg # of iterations =  2.0

     negative rho (up, down):  6.084E-03 0.000E+00

     total cpu time spent up to now is     4741.8 secs

     total energy              =  -22154.25527677 Ry
     estimated scf accuracy    <       0.00015628 Ry

     iteration #  7     ecut=    40.00 Ry     beta= 0.50
     Davidson diagonalization with overlap

---- Real-time Memory Report at c_bands before calling an iterative solver
           406 MiB given to the printing process from OS
             0 MiB allocation reported by mallinfo(arena+hblkhd)
         54835 MiB available memory on the node where the printing process lives
------------------
     ethr =  1.63E-08,  avg # of iterations =  2.0

     negative rho (up, down):  6.097E-03 0.000E+00

     total cpu time spent up to now is     5428.7 secs

     total energy              =  -22154.25528365 Ry
     estimated scf accuracy    <       0.00092708 Ry

     iteration #  8     ecut=    40.00 Ry     beta= 0.50
     Davidson diagonalization with overlap

---- Real-time Memory Report at c_bands before calling an iterative solver
           406 MiB given to the printing process from OS
             0 MiB allocation reported by mallinfo(arena+hblkhd)
         54816 MiB available memory on the node where the printing process lives
------------------
     ethr =  1.63E-08,  avg # of iterations =  2.0

     negative rho (up, down):  6.102E-03 0.000E+00

     total cpu time spent up to now is     6008.0 secs

     total energy              =  -22154.25531925 Ry
     estimated scf accuracy    <       0.00004987 Ry

     iteration #  9     ecut=    40.00 Ry     beta= 0.50
     Davidson diagonalization with overlap

---- Real-time Memory Report at c_bands before calling an iterative solver
           407 MiB given to the printing process from OS
             0 MiB allocation reported by mallinfo(arena+hblkhd)
         54798 MiB available memory on the node where the printing process lives
------------------
     ethr =  5.20E-09,  avg # of iterations =  2.3

     negative rho (up, down):  6.106E-03 0.000E+00

     total cpu time spent up to now is     6730.6 secs

     total energy              =  -22154.25533420 Ry
     estimated scf accuracy    <       0.00001047 Ry

     iteration # 10     ecut=    40.00 Ry     beta= 0.50
     Davidson diagonalization with overlap

---- Real-time Memory Report at c_bands before calling an iterative solver
           407 MiB given to the printing process from OS
             0 MiB allocation reported by mallinfo(arena+hblkhd)
         54786 MiB available memory on the node where the printing process lives
------------------
     ethr =  1.09E-09,  avg # of iterations =  2.0

     negative rho (up, down):  6.110E-03 0.000E+00

     total cpu time spent up to now is     7384.0 secs

     End of self-consistent calculation

          k = 0.0000 0.0000 0.0000 ( 64855 PWs)   bands (ev):

  -125.0664-125.0648-125.0648-125.0647-125.0644-125.0643-125.0642-125.0633
  -125.0632-125.0629-125.0628-125.0627-125.0625-125.0625-125.0624-125.0623
  -124.8623-124.8622-124.8608-124.8607-124.8607-124.8606-124.8606-124.8605
  -124.8604-124.8604-124.8603-124.8603-124.8602-124.8602-124.8592-124.8592
  -124.8590-124.8590-124.8589-124.8588-124.8587-124.8587-124.8586-124.8586
  -124.8586-124.8586-124.8585-124.8585-124.8585-124.8584-124.8584-124.8584
   -79.2329 -79.2328 -79.2328 -79.2263 -79.2263 -79.2263 -79.2262 -79.2260
   -79.2260 -79.2150 -79.2149 -79.2149 -79.2148 -79.2147 -79.2147 -79.2146
   -79.2129 -79.2129 -79.2129 -79.2129 -79.2129 -79.2129 -79.2128 -79.2126
   -79.2126 -79.2125 -79.2124 -79.2123 -79.2111 -79.2111 -79.2107 -79.2106
   -79.2105 -79.2104 -79.2103 -79.2102 -79.2101 -79.2062 -79.2062 -79.2062
   -79.2016 -79.2016 -79.2015 -79.2014 -79.2013 -79.2013 -79.1967 -79.1967
   -79.0255 -79.0255 -79.0255 -79.0254 -79.0254 -79.0254 -79.0190 -79.0189
   -79.0189 -79.0189 -79.0189 -79.0188 -79.0188 -79.0188 -79.0188 -79.0187
   -79.0187 -79.0187 -79.0187 -79.0187 -79.0172 -79.0171 -79.0171 -79.0170
   -79.0170 -79.0169 -79.0168 -79.0168 -79.0168 -79.0167 -79.0167 -79.0166
   -79.0155 -79.0154 -79.0153 -79.0152 -79.0152 -79.0150 -79.0150 -79.0150
   -79.0149 -79.0149 -79.0149 -79.0148 -79.0148 -79.0148 -79.0147 -79.0147
   -79.0147 -79.0147 -79.0076 -79.0076 -79.0076 -79.0075 -79.0075 -79.0075
   -79.0074 -79.0074 -79.0074 -79.0074 -79.0074 -79.0073 -79.0056 -79.0055
   -79.0055 -79.0055 -79.0055 -79.0055 -79.0055 -79.0055 -79.0053 -79.0053
   -79.0053 -79.0053 -78.9989 -78.9989 -78.9989 -78.9989 -78.9988 -78.9988
   -78.9943 -78.9943 -78.9942 -78.9942 -78.9942 -78.9942 -78.9941 -78.9941
   -78.9941 -78.9940 -78.9940 -78.9940 -78.9895 -78.9895 -78.9894 -78.9894
    -8.6226  -7.4000  -7.0913  -7.0685  -7.0685  -7.0684  -7.0683  -7.0683
    -7.0682  -6.9138  -6.9138  -6.9138  -6.7249  -6.7248  -6.7248  -6.6773
    -6.6773  -6.6773  -6.5882  -6.5882  -6.5882  -6.5881  -6.5881  -6.5881
    -6.5394  -6.5393  -6.5393  -6.5393  -6.5392  -6.5392  -6.5357  -6.5356
    -6.5356  -6.4783  -6.4783  -6.4782  -6.4782  -6.4780  -6.4780  -6.4315
    -6.4315  -6.4315  -6.4315  -6.4313  -6.4313  -6.3343  -6.3343  -6.3340
    -6.3340  -6.3340  -6.3340  -6.3326  -6.3326  -6.3326  -6.2726  -6.2726
    -6.2725  -6.2724  -6.2724  -6.2723  -6.2690  -6.2106  -6.2106  -6.2105
    -6.2105  -6.2104  -6.2104  -6.1709  -6.1709  -6.1709  -6.1709  -6.1708
    -6.1708  -6.1452  -6.1452  -6.1452  -6.1452  -6.1452  -6.1452  -6.1215
    -6.1215  -6.1215  -6.1215  -6.1215  -6.1215  -6.1214  -6.1214  -6.0966
    -6.0966  -6.0966  -6.0957  -6.0957  -6.0957  -6.0957  -6.0957  -6.0957
    -5.9935  -5.9935  -5.9934  -5.9934  -5.9933  -5.9933  -5.9157  -5.9157
    -5.8970  -5.8970  -5.8646  -5.8646  -5.8646  -5.8646  -5.8646  -5.8646
    -5.8626  -5.8626  -5.8625  -5.8625  -5.8624  -5.8624  -5.8311  -5.8311
    -5.8311  -5.7821  -5.7821  -5.7820  -5.7820  -5.7820  -5.7820  -5.7756
    -5.7756  -5.7756  -5.7756  -5.7756  -5.7756  -5.7753  -5.7753  -5.7753
    -5.7752  -5.7752  -5.7752  -5.7535  -5.7535  -5.7535  -5.7534  -5.7534
    -5.7534  -5.7442  -5.7441  -5.7441  -5.7440  -5.7440  -5.7439  -5.7274
    -5.7273  -5.7273  -5.7272  -5.7271  -5.7271  -5.7151  -5.7083  -5.7083
    -5.7081  -5.7081  -5.7081  -5.7081  -5.6960  -5.6960  -5.6960  -5.6096
    -5.6096  -5.5746  -5.5746  -5.5744  -5.5744  -5.5743  -5.5743  -5.5680
    -5.5680  -5.5678  -5.5678  -5.5678  -5.5678  -5.5452  -5.5451  -5.5451
    -5.5450  -5.5450  -5.5449  -5.5284  -5.5284  -5.5284  -5.5018  -5.5018
    -5.5018  -5.5017  -5.5017  -5.5016  -5.4932  -5.4932  -5.4931  -5.4931
    -5.4930  -5.4930  -5.4450  -5.4449  -5.4449  -5.4448  -5.4448  -5.4448
    -5.4328  -5.4328  -5.4327  -5.4324  -5.4324  -5.4324  -5.3962  -5.3962
    -5.3962  -5.3901  -5.3901  -5.3901  -5.3900  -5.3900  -5.3900  -5.3824
    -5.3824  -5.3612  -5.3612  -5.3188  -5.3188  -5.3186  -5.3186  -5.3186
    -5.3186  -5.2892  -5.2892  -5.2892  -5.2892  -5.2891  -5.2891  -5.2802
    -5.2802  -5.2802  -5.0706  -5.0706  -5.0706  -5.0705  -5.0705  -5.0705
    -4.3975  -4.3975  -4.3974  -4.3973  -4.3972  -4.3972  -3.4500  -2.1036
    -2.1036  -2.1036  -2.1035  -2.1035  -2.1035  -2.0202  -2.0202  -2.0201
    -2.0200  -2.0199  -2.0198  -0.8427  -0.8427  -0.8427  -0.7124  -0.6401
    -0.6401  -0.6401  -0.6401  -0.6401  -0.6401  -0.0846  -0.0846  -0.0846
     0.2449   0.2449   0.2449   1.5362   1.5362   1.5362   1.5362   1.5362
     1.5362   1.5805   1.5805   1.5806   1.5807   1.5808   1.5808   2.3091
     2.3091   2.3091   3.1079   3.3011   3.3011   3.3011   4.1415   4.1415
     4.1415   4.8833   4.8833   4.8834   4.8835   4.8835   4.8836   5.0742
     5.2652   5.4271   5.4271   5.4271   5.4271   5.4271   5.4271   5.4345
     5.4346   5.4346   5.4346   5.4347   5.4347   5.6050   5.6050   5.6052
     5.6052   5.6052   5.6052   6.1992   6.3977   6.5622   6.5622   6.5622
     6.8728   6.8728   6.8728   6.8728   6.8728   6.8729   7.0106   7.0106
     7.0107   7.0107   7.0108   7.0108   7.1012   7.1012   7.1012   7.1012
     7.1012   7.1012   7.1886   7.1886   7.1887   7.1887   7.1887   7.1887
     8.0381   8.0381   8.0381   8.0382   8.0382   8.0382   8.1448   8.1448
     8.1448   8.1448   8.1449   8.1449   8.1851   8.1851   8.1851   8.1851
     8.1851   8.1852   8.2063   8.3655   8.3757   8.3757   8.3757   9.2830

     occupation numbers 
     1.0000   1.0000   1.0000   1.0000   1.0000   1.0000   1.0000   1.0000
     1.0000   1.0000   1.0000   1.0000   1.0000   1.0000   1.0000   1.0000
     1.0000   1.0000   1.0000   1.0000   1.0000   1.0000   1.0000   1.0000
     1.0000   1.0000   1.0000   1.0000   1.0000   1.0000   1.0000   1.0000
     1.0000   1.0000   1.0000   1.0000   1.0000   1.0000   1.0000   1.0000
     1.0000   1.0000   1.0000   1.0000   1.0000   1.0000   1.0000   1.0000
     1.0000   1.0000   1.0000   1.0000   1.0000   1.0000   1.0000   1.0000
     1.0000   1.0000   1.0000   1.0000   1.0000   1.0000   1.0000   1.0000
     1.0000   1.0000   1.0000   1.0000   1.0000   1.0000   1.0000   1.0000
     1.0000   1.0000   1.0000   1.0000   1.0000   1.0000   1.0000   1.0000
     1.0000   1.0000   1.0000   1.0000   1.0000   1.0000   1.0000   1.0000
     1.0000   1.0000   1.0000   1.0000   1.0000   1.0000   1.0000   1.0000
     1.0000   1.0000   1.0000   1.0000   1.0000   1.0000   1.0000   1.0000
     1.0000   1.0000   1.0000   1.0000   1.0000   1.0000   1.0000   1.0000
     1.0000   1.0000   1.0000   1.0000   1.0000   1.0000   1.0000   1.0000
     1.0000   1.0000   1.0000   1.0000   1.0000   1.0000   1.0000   1.0000
     1.0000   1.0000   1.0000   1.0000   1.0000   1.0000   1.0000   1.0000
     1.0000   1.0000   1.0000   1.0000   1.0000   1.0000   1.0000   1.0000
     1.0000   1.0000   1.0000   1.0000   1.0000   1.0000   1.0000   1.0000
     1.0000   1.0000   1.0000   1.0000   1.0000   1.0000   1.0000   1.0000
     1.0000   1.0000   1.0000   1.0000   1.0000   1.0000   1.0000   1.0000
     1.0000   1.0000   1.0000   1.0000   1.0000   1.0000   1.0000   1.0000
     1.0000   1.0000   1.0000   1.0000   1.0000   1.0000   1.0000   1.0000
     1.0000   1.0000   1.0000   1.0000   1.0000   1.0000   1.0000   1.0000
     1.0000   1.0000   1.0000   1.0000   1.0000   1.0000   1.0000   1.0000
     1.0000   1.0000   1.0000   1.0000   1.0000   1.0000   1.0000   1.0000
     1.0000   1.0000   1.0000   1.0000   1.0000   1.0000   1.0000   1.0000
     1.0000   1.0000   1.0000   1.0000   1.0000   1.0000   1.0000   1.0000
     1.0000   1.0000   1.0000   1.0000   1.0000   1.0000   1.0000   1.0000
     1.0000   1.0000   1.0000   1.0000   1.0000   1.0000   1.0000   1.0000
     1.0000   1.0000   1.0000   1.0000   1.0000   1.0000   1.0000   1.0000
     1.0000   1.0000   1.0000   1.0000   1.0000   1.0000   1.0000   1.0000
     1.0000   1.0000   1.0000   1.0000   1.0000   1.0000   1.0000   1.0000
     1.0000   1.0000   1.0000   1.0000   1.0000   1.0000   1.0000   1.0000
     1.0000   1.0000   1.0000   1.0000   1.0000   1.0000   1.0000   1.0000
     1.0000   1.0000   1.0000   1.0000   1.0000   1.0000   1.0000   1.0000
     1.0000   1.0000   1.0000   1.0000   1.0000   1.0000   1.0000   1.0000
     1.0000   1.0000   1.0000   1.0000   1.0000   1.0000   1.0000   1.0000
     1.0000   1.0000   1.0000   1.0000   1.0000   1.0000   1.0000   1.0000
     1.0000   1.0000   1.0000   1.0000   1.0000   1.0000   1.0000   1.0000
     1.0000   1.0000   1.0000   1.0000   1.0000   1.0000   1.0000   1.0000
     1.0000   1.0000   1.0000   1.0000   1.0000   1.0000   1.0000   1.0000
     1.0000   1.0000   1.0000   1.0000   1.0000   1.0000   1.0000   1.0000
     1.0000   1.0000   1.0000   1.0000   1.0000   1.0000   1.0000   1.0000
     1.0000   1.0000   1.0000   1.0000   1.0000   1.0000   1.0000   1.0000
     1.0000   1.0000   1.0000   1.0000   1.0000   1.0000   1.0000   1.0000
     1.0000   1.0000   1.0000   1.0000   1.0000   1.0000   1.0000   1.0000
     1.0000   1.0000   1.0000   1.0000   1.0000   1.0000   1.0000   1.0000
     1.0000   1.0000   1.0000   1.0000   1.0000   1.0000   1.0000   1.0000
     1.0000   1.0000   1.0000   1.0000   1.0000   1.0000   1.0000   1.0000
     1.0000   1.0000   1.0000   1.0000   1.0000   1.0000   1.0000   1.0000
     1.0000   1.0000   1.0000   1.0000   1.0000   1.0000   1.0000   1.0000
     1.0000   1.0000   1.0000   1.0000   1.0000   1.0000   1.0000   1.0000
     1.0000   1.0000   1.0000   1.0000   1.0000   1.0000   1.0000   1.0000
     1.0000   1.0000   1.0000   1.0000   1.0000   1.0000   1.0000   1.0000
     1.0000   1.0000   1.0000   1.0000   1.0000   1.0000   1.0000   1.0000
     1.0000   1.0000   1.0000   1.0000   1.0000   1.0000   1.0000   1.0000
     1.0000   1.0000   1.0000   1.0000   1.0000   1.0000   1.0000   1.0000
     1.0000   1.0000   1.0000   1.0000   1.0000   1.0000   1.0000   1.0000
     1.0000   1.0000   1.0000   0.1848   0.1848   0.1848   0.1848   0.1848
     0.1848   0.1225   0.1224   0.1224   0.1222   0.1221   0.1221   0.0000
     0.0000   0.0000   0.0000   0.0000   0.0000   0.0000   0.0000   0.0000
     0.0000   0.0000   0.0000   0.0000   0.0000   0.0000   0.0000   0.0000
     0.0000   0.0000   0.0000   0.0000   0.0000   0.0000   0.0000   0.0000
     0.0000   0.0000   0.0000   0.0000   0.0000   0.0000   0.0000   0.0000
     0.0000   0.0000   0.0000   0.0000   0.0000   0.0000   0.0000   0.0000
     0.0000   0.0000   0.0000   0.0000   0.0000   0.0000   0.0000   0.0000
     0.0000   0.0000   0.0000   0.0000   0.0000   0.0000   0.0000   0.0000
     0.0000   0.0000   0.0000   0.0000   0.0000   0.0000   0.0000   0.0000
     0.0000   0.0000   0.0000   0.0000   0.0000   0.0000   0.0000   0.0000
     0.0000   0.0000   0.0000   0.0000   0.0000   0.0000   0.0000   0.0000
     0.0000   0.0000   0.0000   0.0000   0.0000   0.0000   0.0000   0.0000

          k = 0.0000 0.2887 0.0000 ( 64808 PWs)   bands (ev):

  -125.0663-125.0652-125.0649-125.0648-125.0642-125.0641-125.0638-125.0634
  -125.0633-125.0629-125.0629-125.0628-125.0626-125.0624-125.0623-125.0623
  -124.8622-124.8621-124.8612-124.8611-124.8608-124.8608-124.8607-124.8607
  -124.8602-124.8601-124.8601-124.8600-124.8598-124.8598-124.8593-124.8593
  -124.8592-124.8592-124.8589-124.8589-124.8589-124.8589-124.8588-124.8588
  -124.8585-124.8585-124.8585-124.8585-124.8584-124.8583-124.8583-124.8583
   -79.2321 -79.2321 -79.2315 -79.2275 -79.2275 -79.2266 -79.2266 -79.2247
   -79.2247 -79.2217 -79.2185 -79.2185 -79.2158 -79.2158 -79.2146 -79.2134
   -79.2130 -79.2129 -79.2123 -79.2121 -79.2118 -79.2118 -79.2118 -79.2115
   -79.2115 -79.2113 -79.2112 -79.2108 -79.2107 -79.2106 -79.2104 -79.2102
   -79.2101 -79.2101 -79.2091 -79.2091 -79.2079 -79.2069 -79.2069 -79.2058
   -79.2033 -79.2030 -79.2029 -79.2010 -79.2010 -79.1996 -79.1981 -79.1971
   -79.0247 -79.0247 -79.0247 -79.0247 -79.0241 -79.0241 -79.0201 -79.0201
   -79.0201 -79.0201 -79.0192 -79.0192 -79.0192 -79.0192 -79.0188 -79.0186
   -79.0177 -79.0176 -79.0173 -79.0173 -79.0173 -79.0173 -79.0173 -79.0172
   -79.0172 -79.0171 -79.0166 -79.0165 -79.0164 -79.0164 -79.0162 -79.0161
   -79.0156 -79.0156 -79.0155 -79.0154 -79.0152 -79.0152 -79.0151 -79.0151
   -79.0151 -79.0150 -79.0148 -79.0148 -79.0148 -79.0147 -79.0146 -79.0146
   -79.0146 -79.0146 -79.0144 -79.0143 -79.0112 -79.0112 -79.0111 -79.0111
   -79.0085 -79.0085 -79.0085 -79.0085 -79.0045 -79.0045 -79.0044 -79.0044
   -79.0042 -79.0042 -79.0041 -79.0041 -79.0018 -79.0018 -79.0018 -79.0018
   -79.0006 -79.0005 -78.9996 -78.9996 -78.9996 -78.9996 -78.9985 -78.9985
   -78.9960 -78.9959 -78.9957 -78.9956 -78.9956 -78.9956 -78.9937 -78.9937
   -78.9937 -78.9937 -78.9924 -78.9923 -78.9908 -78.9908 -78.9898 -78.9898
    -8.5038  -7.6202  -7.3000  -7.2482  -7.2482  -7.0287  -6.8976  -6.8714
    -6.8714  -6.8489  -6.8457  -6.8457  -6.7060  -6.6911  -6.6911  -6.6901
    -6.6743  -6.6620  -6.6376  -6.6376  -6.5892  -6.5798  -6.5763  -6.5763
    -6.5670  -6.5670  -6.5475  -6.5475  -6.5278  -6.5278  -6.5178  -6.5178
    -6.5161  -6.5116  -6.5116  -6.5085  -6.5085  -6.5016  -6.5016  -6.4857
    -6.4857  -6.4600  -6.4599  -6.4225  -6.4224  -6.3945  -6.3945  -6.3795
    -6.3795  -6.3751  -6.3212  -6.3165  -6.3165  -6.3149  -6.3149  -6.3144
    -6.3144  -6.2682  -6.2682  -6.2581  -6.2510  -6.2287  -6.2287  -6.2225
    -6.2225  -6.2208  -6.2207  -6.2207  -6.2078  -6.2078  -6.2041  -6.2041
    -6.1949  -6.1949  -6.1831  -6.1831  -6.1790  -6.1773  -6.1773  -6.1534
    -6.1371  -6.1229  -6.1229  -6.1137  -6.1137  -6.0997  -6.0997  -6.0922
    -6.0897  -6.0897  -6.0773  -6.0627  -6.0627  -6.0488  -6.0488  -6.0477
    -6.0477  -5.9583  -5.9583  -5.9581  -5.9581  -5.9429  -5.9403  -5.9363
    -5.9363  -5.9339  -5.9339  -5.9232  -5.9232  -5.9121  -5.9104  -5.9104
    -5.8922  -5.8922  -5.8885  -5.8846  -5.8805  -5.8731  -5.8731  -5.8679
    -5.8451  -5.8451  -5.8382  -5.8382  -5.8241  -5.8105  -5.7946  -5.7946
    -5.7945  -5.7945  -5.7857  -5.7857  -5.7756  -5.7756  -5.7749  -5.7722
    -5.7722  -5.7545  -5.7545  -5.7465  -5.7465  -5.7392  -5.7294  -5.7294
    -5.7131  -5.7118  -5.7118  -5.7044  -5.7044  -5.6966  -5.6966  -5.6941
    -5.6941  -5.6914  -5.6914  -5.6783  -5.6669  -5.6669  -5.6562  -5.6429
    -5.6384  -5.6384  -5.6325  -5.6325  -5.6175  -5.6175  -5.6160  -5.6154
    -5.6154  -5.6116  -5.6101  -5.6044  -5.6044  -5.5788  -5.5631  -5.5597
    -5.5597  -5.5552  -5.5552  -5.5468  -5.5468  -5.5445  -5.5445  -5.5425
    -5.5425  -5.5400  -5.5257  -5.5257  -5.5249  -5.5204  -5.5204  -5.5117
    -5.5117  -5.4906  -5.4906  -5.4614  -5.4593  -5.4567  -5.4567  -5.4531
    -5.4531  -5.4507  -5.4507  -5.4388  -5.4388  -5.4295  -5.4248  -5.4248
    -5.4225  -5.4183  -5.4134  -5.4130  -5.4012  -5.4012  -5.3985  -5.3984
    -5.3875  -5.3859  -5.3859  -5.3794  -5.3672  -5.3672  -5.3633  -5.3582
    -5.3444  -5.3444  -5.3404  -5.3315  -5.3191  -5.3190  -5.3128  -5.3103
    -5.3103  -5.3006  -5.3006  -5.2920  -5.2920  -5.2815  -5.2815  -5.1432
    -5.1432  -5.1286  -5.1286  -5.1231  -5.1231  -5.1048  -5.1041  -4.9467
    -4.9341  -4.6380  -4.6380  -3.8810  -3.8810  -3.4799  -3.3937  -3.3937
    -3.3650  -2.6734  -2.3017  -2.3017  -2.2220  -2.0211  -2.0211  -1.9713
    -1.9713  -1.5148  -1.5148  -1.2922  -1.2922  -1.1169  -0.7950  -0.5729
    -0.5729  -0.5609  -0.5609  -0.5522   0.0237   0.0237   0.2690   0.2690
     0.5600   0.5600   0.6334   0.8764   0.8983   0.8983   1.1835   1.1835
     1.5564   1.5564   2.2263   2.2263   2.6473   2.6965   2.6965   2.7210
     2.7827   2.7827   2.9500   2.9500   3.2198   3.5466   3.6907   3.6907
     3.9087   3.9087   4.1121   4.1850   4.1850   4.5562   4.5562   4.8018
     4.8018   4.8432   4.8432   5.1517   5.1517   5.1604   5.1604   5.1871
     5.3802   5.4260   5.4260   5.5683   5.6427   5.7935   5.7935   5.8067
     6.0890   6.0940   6.0940   6.2991   6.3130   6.3130   6.3153   6.5101
     6.5387   6.5387   6.5944   6.5944   6.7102   6.7579   6.7579   7.0101
     7.0101   7.0869   7.0869   7.1721   7.1721   7.2400   7.3088   7.3088
     7.4083   7.4234   7.4234   7.4473   7.4473   7.6568   7.6568   7.6674
     7.6674   7.6995   7.6995   7.7427   7.8555   7.8555   7.9459   7.9459
     8.0232   8.0232   8.1333   8.3099   8.3219   8.4772   8.6361   8.6361
     8.6960   8.7073   8.7073   8.8079   8.8079   8.8257   8.8363   8.8363

     occupation numbers 
     1.0000   1.0000   1.0000   1.0000   1.0000   1.0000   1.0000   1.0000
     1.0000   1.0000   1.0000   1.0000   1.0000   1.0000   1.0000   1.0000
     1.0000   1.0000   1.0000   1.0000   1.0000   1.0000   1.0000   1.0000
     1.0000   1.0000   1.0000   1.0000   1.0000   1.0000   1.0000   1.0000
     1.0000   1.0000   1.0000   1.0000   1.0000   1.0000   1.0000   1.0000
     1.0000   1.0000   1.0000   1.0000   1.0000   1.0000   1.0000   1.0000
     1.0000   1.0000   1.0000   1.0000   1.0000   1.0000   1.0000   1.0000
     1.0000   1.0000   1.0000   1.0000   1.0000   1.0000   1.0000   1.0000
     1.0000   1.0000   1.0000   1.0000   1.0000   1.0000   1.0000   1.0000
     1.0000   1.0000   1.0000   1.0000   1.0000   1.0000   1.0000   1.0000
     1.0000   1.0000   1.0000   1.0000   1.0000   1.0000   1.0000   1.0000
     1.0000   1.0000   1.0000   1.0000   1.0000   1.0000   1.0000   1.0000
     1.0000   1.0000   1.0000   1.0000   1.0000   1.0000   1.0000   1.0000
     1.0000   1.0000   1.0000   1.0000   1.0000   1.0000   1.0000   1.0000
     1.0000   1.0000   1.0000   1.0000   1.0000   1.0000   1.0000   1.0000
     1.0000   1.0000   1.0000   1.0000   1.0000   1.0000   1.0000   1.0000
     1.0000   1.0000   1.0000   1.0000   1.0000   1.0000   1.0000   1.0000
     1.0000   1.0000   1.0000   1.0000   1.0000   1.0000   1.0000   1.0000
     1.0000   1.0000   1.0000   1.0000   1.0000   1.0000   1.0000   1.0000
     1.0000   1.0000   1.0000   1.0000   1.0000   1.0000   1.0000   1.0000
     1.0000   1.0000   1.0000   1.0000   1.0000   1.0000   1.0000   1.0000
     1.0000   1.0000   1.0000   1.0000   1.0000   1.0000   1.0000   1.0000
     1.0000   1.0000   1.0000   1.0000   1.0000   1.0000   1.0000   1.0000
     1.0000   1.0000   1.0000   1.0000   1.0000   1.0000   1.0000   1.0000
     1.0000   1.0000   1.0000   1.0000   1.0000   1.0000   1.0000   1.0000
     1.0000   1.0000   1.0000   1.0000   1.0000   1.0000   1.0000   1.0000
     1.0000   1.0000   1.0000   1.0000   1.0000   1.0000   1.0000   1.0000
     1.0000   1.0000   1.0000   1.0000   1.0000   1.0000   1.0000   1.0000
     1.0000   1.0000   1.0000   1.0000   1.0000   1.0000   1.0000   1.0000
     1.0000   1.0000   1.0000   1.0000   1.0000   1.0000   1.0000   1.0000
     1.0000   1.0000   1.0000   1.0000   1.0000   1.0000   1.0000   1.0000
     1.0000   1.0000   1.0000   1.0000   1.0000   1.0000   1.0000   1.0000
     1.0000   1.0000   1.0000   1.0000   1.0000   1.0000   1.0000   1.0000
     1.0000   1.0000   1.0000   1.0000   1.0000   1.0000   1.0000   1.0000
     1.0000   1.0000   1.0000   1.0000   1.0000   1.0000   1.0000   1.0000
     1.0000   1.0000   1.0000   1.0000   1.0000   1.0000   1.0000   1.0000
     1.0000   1.0000   1.0000   1.0000   1.0000   1.0000   1.0000   1.0000
     1.0000   1.0000   1.0000   1.0000   1.0000   1.0000   1.0000   1.0000
     1.0000   1.0000   1.0000   1.0000   1.0000   1.0000   1.0000   1.0000
     1.0000   1.0000   1.0000   1.0000   1.0000   1.0000   1.0000   1.0000
     1.0000   1.0000   1.0000   1.0000   1.0000   1.0000   1.0000   1.0000
     1.0000   1.0000   1.0000   1.0000   1.0000   1.0000   1.0000   1.0000
     1.0000   1.0000   1.0000   1.0000   1.0000   1.0000   1.0000   1.0000
     1.0000   1.0000   1.0000   1.0000   1.0000   1.0000   1.0000   1.0000
     1.0000   1.0000   1.0000   1.0000   1.0000   1.0000   1.0000   1.0000
     1.0000   1.0000   1.0000   1.0000   1.0000   1.0000   1.0000   1.0000
     1.0000   1.0000   1.0000   1.0000   1.0000   1.0000   1.0000   1.0000
     1.0000   1.0000   1.0000   1.0000   1.0000   1.0000   1.0000   1.0000
     1.0000   1.0000   1.0000   1.0000   1.0000   1.0000   1.0000   1.0000
     1.0000   1.0000   1.0000   1.0000   1.0000   1.0000   1.0000   1.0000
     1.0000   1.0000   1.0000   1.0000   1.0000   1.0000   1.0000   1.0000
     1.0000   1.0000   1.0000   1.0000   1.0000   1.0000   1.0000   1.0000
     1.0000   1.0000   1.0000   1.0000   1.0000   1.0000   1.0000   1.0000
     1.0000   1.0000   1.0000   1.0000   1.0000   1.0000   1.0000   1.0000
     1.0000   1.0000   1.0000   1.0000   1.0000   1.0000   1.0000   1.0000
     1.0000   1.0000   1.0000   1.0000   1.0000   1.0000   1.0000   1.0000
     1.0000   1.0000   1.0000   1.0000   1.0000   1.0000   1.0000   1.0000
     1.0000   1.0000   1.0000   1.0000   1.0000   1.0000   1.0000   1.0000
     1.0000   1.0000   1.0000   1.0000   1.0000   1.0000   1.0000   1.0000
     1.0006   1.0006   1.0019   1.0373   1.0444   1.0444   0.9984   0.9984
     0.1541   0.1541   0.0000   0.0000   0.0000   0.0000   0.0000   0.0000
     0.0000   0.0000   0.0000   0.0000   0.0000   0.0000   0.0000   0.0000
     0.0000   0.0000   0.0000   0.0000   0.0000   0.0000   0.0000   0.0000
     0.0000   0.0000   0.0000   0.0000   0.0000   0.0000   0.0000   0.0000
     0.0000   0.0000   0.0000   0.0000   0.0000   0.0000   0.0000   0.0000
     0.0000   0.0000   0.0000   0.0000   0.0000   0.0000   0.0000   0.0000
     0.0000   0.0000   0.0000   0.0000   0.0000   0.0000   0.0000   0.0000
     0.0000   0.0000   0.0000   0.0000   0.0000   0.0000   0.0000   0.0000
     0.0000   0.0000   0.0000   0.0000   0.0000   0.0000   0.0000   0.0000
     0.0000   0.0000   0.0000   0.0000   0.0000   0.0000   0.0000   0.0000
     0.0000   0.0000   0.0000   0.0000   0.0000   0.0000   0.0000   0.0000
     0.0000   0.0000   0.0000   0.0000   0.0000   0.0000   0.0000   0.0000

          k = 0.0000-0.5774 0.0000 ( 64842 PWs)   bands (ev):

  -125.0661-125.0656-125.0650-125.0649-125.0639-125.0638-125.0637-125.0636
  -125.0633-125.0630-125.0630-125.0629-125.0626-125.0624-125.0622-125.0622
  -124.8620-124.8619-124.8616-124.8615-124.8609-124.8608-124.8608-124.8608
  -124.8598-124.8597-124.8597-124.8597-124.8596-124.8596-124.8596-124.8595
  -124.8593-124.8593-124.8590-124.8590-124.8589-124.8589-124.8589-124.8589
  -124.8585-124.8585-124.8585-124.8585-124.8583-124.8583-124.8583-124.8582
   -79.2304 -79.2302 -79.2299 -79.2297 -79.2279 -79.2274 -79.2265 -79.2265
   -79.2220 -79.2220 -79.2220 -79.2220 -79.2171 -79.2171 -79.2143 -79.2138
   -79.2131 -79.2130 -79.2118 -79.2117 -79.2117 -79.2116 -79.2113 -79.2109
   -79.2109 -79.2107 -79.2105 -79.2105 -79.2105 -79.2102 -79.2101 -79.2100
   -79.2093 -79.2091 -79.2088 -79.2086 -79.2057 -79.2056 -79.2056 -79.2056
   -79.2050 -79.2046 -79.2023 -79.2018 -79.2010 -79.2010 -79.1983 -79.1979
   -79.0229 -79.0229 -79.0228 -79.0228 -79.0225 -79.0225 -79.0225 -79.0224
   -79.0204 -79.0203 -79.0201 -79.0200 -79.0192 -79.0191 -79.0191 -79.0191
   -79.0186 -79.0183 -79.0182 -79.0180 -79.0174 -79.0173 -79.0173 -79.0172
   -79.0162 -79.0161 -79.0160 -79.0160 -79.0160 -79.0159 -79.0159 -79.0159
   -79.0157 -79.0156 -79.0154 -79.0153 -79.0152 -79.0152 -79.0151 -79.0151
   -79.0148 -79.0148 -79.0148 -79.0147 -79.0147 -79.0147 -79.0147 -79.0147
   -79.0146 -79.0146 -79.0146 -79.0146 -79.0146 -79.0145 -79.0145 -79.0145
   -79.0098 -79.0098 -79.0097 -79.0097 -79.0032 -79.0032 -79.0032 -79.0032
   -79.0019 -79.0019 -79.0018 -79.0018 -79.0015 -79.0014 -79.0014 -79.0014
   -78.9984 -78.9983 -78.9983 -78.9983 -78.9983 -78.9983 -78.9983 -78.9983
   -78.9976 -78.9976 -78.9973 -78.9973 -78.9949 -78.9949 -78.9946 -78.9946
   -78.9937 -78.9937 -78.9937 -78.9937 -78.9910 -78.9909 -78.9907 -78.9906
    -8.1560  -8.1557  -7.3170  -7.3170  -7.0256  -7.0253  -6.8634  -6.8631
    -6.8593  -6.8589  -6.7492  -6.7491  -6.7488  -6.7487  -6.6532  -6.6528
    -6.6464  -6.6464  -6.6464  -6.6464  -6.6241  -6.6239  -6.6065  -6.6064
    -6.6062  -6.6060  -6.5527  -6.5527  -6.5284  -6.5283  -6.5280  -6.5280
    -6.5055  -6.5055  -6.4868  -6.4868  -6.4868  -6.4868  -6.4625  -6.4625
    -6.4625  -6.4624  -6.4601  -6.4598  -6.4489  -6.4489  -6.4254  -6.4254
    -6.4213  -6.4212  -6.4209  -6.4209  -6.3095  -6.3094  -6.3006  -6.3006
    -6.2923  -6.2923  -6.2923  -6.2923  -6.2910  -6.2907  -6.2701  -6.2701
    -6.2698  -6.2697  -6.2354  -6.2351  -6.2204  -6.2204  -6.2204  -6.2204
    -6.2051  -6.2051  -6.2001  -6.2001  -6.1694  -6.1691  -6.1410  -6.1410
    -6.1111  -6.1111  -6.1026  -6.1026  -6.0819  -6.0818  -6.0817  -6.0816
    -6.0608  -6.0607  -6.0607  -6.0607  -6.0412  -6.0412  -6.0316  -6.0316
    -6.0252  -6.0250  -6.0216  -6.0213  -6.0085  -6.0081  -5.9891  -5.9891
    -5.9891  -5.9891  -5.9459  -5.9459  -5.9451  -5.9448  -5.9146  -5.9144
    -5.9046  -5.9046  -5.8711  -5.8710  -5.8709  -5.8707  -5.8143  -5.8140
    -5.8084  -5.8084  -5.8077  -5.8076  -5.8076  -5.8076  -5.8043  -5.8039
    -5.7865  -5.7865  -5.7843  -5.7840  -5.7749  -5.7749  -5.7747  -5.7747
    -5.7670  -5.7667  -5.7665  -5.7665  -5.7665  -5.7665  -5.7549  -5.7549
    -5.7529  -5.7529  -5.7529  -5.7529  -5.6745  -5.6745  -5.6731  -5.6731
    -5.6661  -5.6661  -5.6446  -5.6446  -5.6446  -5.6446  -5.6302  -5.6298
    -5.6229  -5.6229  -5.6038  -5.6038  -5.6036  -5.6035  -5.5935  -5.5935
    -5.5696  -5.5693  -5.5425  -5.5422  -5.5281  -5.5280  -5.5278  -5.5277
    -5.5255  -5.5255  -5.5255  -5.5255  -5.5223  -5.5222  -5.5202  -5.5199
    -5.4983  -5.4982  -5.4980  -5.4979  -5.4882  -5.4879  -5.4874  -5.4871
    -5.4857  -5.4857  -5.4783  -5.4783  -5.4631  -5.4631  -5.4631  -5.4631
    -5.4504  -5.4503  -5.4501  -5.4500  -5.4389  -5.4389  -5.4219  -5.4216
    -5.4147  -5.4147  -5.4145  -5.4145  -5.4115  -5.4115  -5.4106  -5.4106
    -5.4039  -5.4039  -5.4018  -5.4015  -5.3994  -5.3990  -5.3697  -5.3694
    -5.3618  -5.3618  -5.3618  -5.3618  -5.3233  -5.3233  -5.3233  -5.3233
    -5.2535  -5.2535  -5.2532  -5.2531  -5.2345  -5.2345  -5.2336  -5.2335
    -5.2333  -5.2332  -5.2008  -5.2005  -5.1981  -5.1978  -4.7017  -4.7017
    -4.4181  -4.4181  -4.4181  -4.4181  -3.7282  -3.7282  -3.1104  -3.1102
    -3.0615  -3.0615  -3.0615  -3.0615  -2.3913  -2.3913  -2.2398  -2.2397
    -1.7580  -1.7580  -1.7577  -1.7577  -0.7552  -0.7552  -0.7552  -0.7552
    -0.3256  -0.3256  -0.3253  -0.3253  -0.0904  -0.0902   0.0131   0.0131
     1.0213   1.0213   1.0493   1.0493   1.3382   1.3382   1.3698   1.3699
     1.3700   1.3701   2.2236   2.2236   2.9001   2.9001   2.9002   2.9002
     3.1018   3.1018   3.1018   3.1018   3.3224   3.3224   3.5550   3.5552
     3.8667   3.8667   3.8668   3.8668   3.9984   3.9984   4.2581   4.2581
     4.4471   4.4471   4.7460   4.7460   4.8581   4.8581   5.4826   5.4826
     5.5256   5.5256   5.7250   5.7250   5.8011   5.8012   5.9296   5.9296
     5.9298   5.9299   5.9832   5.9832   5.9833   5.9833   6.1539   6.1539
     6.1539   6.1539   6.4271   6.4271   6.5598   6.5598   6.6434   6.6434
     6.6629   6.6629   6.8474   6.8474   6.8666   6.8666   7.0139   7.0139
     7.0139   7.0139   7.5856   7.5856   7.7449   7.7449   8.0646   8.0646
     8.0905   8.0905   8.0905   8.0905   8.2789   8.2789   8.4766   8.4766
     8.4766   8.4766   8.6267   8.6267   8.6267   8.6267   8.6677   8.6678
     8.7367   8.7367   8.8112   8.8113   8.9994   8.9994   8.9996   8.9996

     occupation numbers 
     1.0000   1.0000   1.0000   1.0000   1.0000   1.0000   1.0000   1.0000
     1.0000   1.0000   1.0000   1.0000   1.0000   1.0000   1.0000   1.0000
     1.0000   1.0000   1.0000   1.0000   1.0000   1.0000   1.0000   1.0000
     1.0000   1.0000   1.0000   1.0000   1.0000   1.0000   1.0000   1.0000
     1.0000   1.0000   1.0000   1.0000   1.0000   1.0000   1.0000   1.0000
     1.0000   1.0000   1.0000   1.0000   1.0000   1.0000   1.0000   1.0000
     1.0000   1.0000   1.0000   1.0000   1.0000   1.0000   1.0000   1.0000
     1.0000   1.0000   1.0000   1.0000   1.0000   1.0000   1.0000   1.0000
     1.0000   1.0000   1.0000   1.0000   1.0000   1.0000   1.0000   1.0000
     1.0000   1.0000   1.0000   1.0000   1.0000   1.0000   1.0000   1.0000
     1.0000   1.0000   1.0000   1.0000   1.0000   1.0000   1.0000   1.0000
     1.0000   1.0000   1.0000   1.0000   1.0000   1.0000   1.0000   1.0000
     1.0000   1.0000   1.0000   1.0000   1.0000   1.0000   1.0000   1.0000
     1.0000   1.0000   1.0000   1.0000   1.0000   1.0000   1.0000   1.0000
     1.0000   1.0000   1.0000   1.0000   1.0000   1.0000   1.0000   1.0000
     1.0000   1.0000   1.0000   1.0000   1.0000   1.0000   1.0000   1.0000
     1.0000   1.0000   1.0000   1.0000   1.0000   1.0000   1.0000   1.0000
     1.0000   1.0000   1.0000   1.0000   1.0000   1.0000   1.0000   1.0000
     1.0000   1.0000   1.0000   1.0000   1.0000   1.0000   1.0000   1.0000
     1.0000   1.0000   1.0000   1.0000   1.0000   1.0000   1.0000   1.0000
     1.0000   1.0000   1.0000   1.0000   1.0000   1.0000   1.0000   1.0000
     1.0000   1.0000   1.0000   1.0000   1.0000   1.0000   1.0000   1.0000
     1.0000   1.0000   1.0000   1.0000   1.0000   1.0000   1.0000   1.0000
     1.0000   1.0000   1.0000   1.0000   1.0000   1.0000   1.0000   1.0000
     1.0000   1.0000   1.0000   1.0000   1.0000   1.0000   1.0000   1.0000
     1.0000   1.0000   1.0000   1.0000   1.0000   1.0000   1.0000   1.0000
     1.0000   1.0000   1.0000   1.0000   1.0000   1.0000   1.0000   1.0000
     1.0000   1.0000   1.0000   1.0000   1.0000   1.0000   1.0000   1.0000
     1.0000   1.0000   1.0000   1.0000   1.0000   1.0000   1.0000   1.0000
     1.0000   1.0000   1.0000   1.0000   1.0000   1.0000   1.0000   1.0000
     1.0000   1.0000   1.0000   1.0000   1.0000   1.0000   1.0000   1.0000
     1.0000   1.0000   1.0000   1.0000   1.0000   1.0000   1.0000   1.0000
     1.0000   1.0000   1.0000   1.0000   1.0000   1.0000   1.0000   1.0000
     1.0000   1.0000   1.0000   1.0000   1.0000   1.0000   1.0000   1.0000
     1.0000   1.0000   1.0000   1.0000   1.0000   1.0000   1.0000   1.0000
     1.0000   1.0000   1.0000   1.0000   1.0000   1.0000   1.0000   1.0000
     1.0000   1.0000   1.0000   1.0000   1.0000   1.0000   1.0000   1.0000
     1.0000   1.0000   1.0000   1.0000   1.0000   1.0000   1.0000   1.0000
     1.0000   1.0000   1.0000   1.0000   1.0000   1.0000   1.0000   1.0000
     1.0000   1.0000   1.0000   1.0000   1.0000   1.0000   1.0000   1.0000
     1.0000   1.0000   1.0000   1.0000   1.0000   1.0000   1.0000   1.0000
     1.0000   1.0000   1.0000   1.0000   1.0000   1.0000   1.0000   1.0000
     1.0000   1.0000   1.0000   1.0000   1.0000   1.0000   1.0000   1.0000
     1.0000   1.0000   1.0000   1.0000   1.0000   1.0000   1.0000   1.0000
     1.0000   1.0000   1.0000   1.0000   1.0000   1.0000   1.0000   1.0000
     1.0000   1.0000   1.0000   1.0000   1.0000   1.0000   1.0000   1.0000
     1.0000   1.0000   1.0000   1.0000   1.0000   1.0000   1.0000   1.0000
     1.0000   1.0000   1.0000   1.0000   1.0000   1.0000   1.0000   1.0000
     1.0000   1.0000   1.0000   1.0000   1.0000   1.0000   1.0000   1.0000
     1.0000   1.0000   1.0000   1.0000   1.0000   1.0000   1.0000   1.0000
     1.0000   1.0000   1.0000   1.0000   1.0000   1.0000   1.0000   1.0000
     1.0000   1.0000   1.0000   1.0000   1.0000   1.0000   1.0000   1.0000
     1.0000   1.0000   1.0000   1.0000   1.0000   1.0000   1.0000   1.0000
     1.0000   1.0000   1.0000   1.0000   1.0000   1.0000   1.0000   1.0000
     1.0000   1.0000   1.0000   1.0000   1.0000   1.0000   1.0000   1.0000
     1.0000   1.0000   1.0000   1.0000   1.0000   1.0000   1.0000   1.0000
     1.0000   1.0000   1.0000   1.0000   1.0000   1.0000   1.0000   1.0000
     1.0000   1.0000   1.0000   1.0000   1.0000   1.0000   1.0000   1.0000
     1.0000   1.0000   1.0000   1.0000   1.0000   1.0000   1.0000   1.0000
     1.0812   1.0812   1.0833   1.0833   0.6569   0.6569   0.5693   0.5692
     0.5689   0.5687   0.0000   0.0000   0.0000   0.0000   0.0000   0.0000
     0.0000   0.0000   0.0000   0.0000   0.0000   0.0000   0.0000   0.0000
     0.0000   0.0000   0.0000   0.0000   0.0000   0.0000   0.0000   0.0000
     0.0000   0.0000   0.0000   0.0000   0.0000   0.0000   0.0000   0.0000
     0.0000   0.0000   0.0000   0.0000   0.0000   0.0000   0.0000   0.0000
     0.0000   0.0000   0.0000   0.0000   0.0000   0.0000   0.0000   0.0000
     0.0000   0.0000   0.0000   0.0000   0.0000   0.0000   0.0000   0.0000
     0.0000   0.0000   0.0000   0.0000   0.0000   0.0000   0.0000   0.0000
     0.0000   0.0000   0.0000   0.0000   0.0000   0.0000   0.0000   0.0000
     0.0000   0.0000   0.0000   0.0000   0.0000   0.0000   0.0000   0.0000
     0.0000   0.0000   0.0000   0.0000   0.0000   0.0000   0.0000   0.0000
     0.0000   0.0000   0.0000   0.0000   0.0000   0.0000   0.0000   0.0000

          k = 0.2500 0.1443 0.0000 ( 64808 PWs)   bands (ev):

  -125.0663-125.0653-125.0649-125.0647-125.0643-125.0641-125.0637-125.0634
  -125.0633-125.0629-125.0629-125.0628-125.0626-125.0625-125.0623-125.0622
  -124.8622-124.8621-124.8612-124.8612-124.8608-124.8607-124.8607-124.8607
  -124.8602-124.8601-124.8601-124.8601-124.8598-124.8597-124.8593-124.8593
  -124.8592-124.8592-124.8589-124.8589-124.8588-124.8588-124.8588-124.8587
  -124.8586-124.8586-124.8586-124.8585-124.8584-124.8584-124.8583-124.8583
   -79.2321 -79.2321 -79.2315 -79.2275 -79.2275 -79.2266 -79.2266 -79.2247
   -79.2247 -79.2217 -79.2185 -79.2185 -79.2158 -79.2158 -79.2145 -79.2135
   -79.2130 -79.2128 -79.2123 -79.2122 -79.2118 -79.2118 -79.2117 -79.2115
   -79.2114 -79.2113 -79.2112 -79.2107 -79.2107 -79.2106 -79.2104 -79.2103
   -79.2101 -79.2100 -79.2091 -79.2091 -79.2079 -79.2069 -79.2069 -79.2058
   -79.2033 -79.2030 -79.2029 -79.2010 -79.2010 -79.1996 -79.1981 -79.1971
   -79.0247 -79.0247 -79.0247 -79.0247 -79.0241 -79.0241 -79.0202 -79.0201
   -79.0201 -79.0201 -79.0192 -79.0192 -79.0192 -79.0192 -79.0188 -79.0186
   -79.0178 -79.0176 -79.0173 -79.0173 -79.0173 -79.0173 -79.0173 -79.0172
   -79.0171 -79.0171 -79.0166 -79.0165 -79.0165 -79.0164 -79.0161 -79.0161
   -79.0156 -79.0156 -79.0155 -79.0155 -79.0152 -79.0151 -79.0151 -79.0151
   -79.0150 -79.0150 -79.0149 -79.0149 -79.0148 -79.0148 -79.0147 -79.0146
   -79.0146 -79.0145 -79.0144 -79.0143 -79.0112 -79.0112 -79.0111 -79.0111
   -79.0085 -79.0085 -79.0085 -79.0085 -79.0045 -79.0045 -79.0044 -79.0044
   -79.0042 -79.0041 -79.0041 -79.0041 -79.0018 -79.0018 -79.0018 -79.0018
   -79.0006 -79.0005 -78.9996 -78.9996 -78.9996 -78.9996 -78.9985 -78.9985
   -78.9960 -78.9960 -78.9957 -78.9956 -78.9956 -78.9956 -78.9937 -78.9937
   -78.9937 -78.9937 -78.9924 -78.9923 -78.9908 -78.9908 -78.9898 -78.9898
    -8.5038  -7.6202  -7.3000  -7.2482  -7.2482  -7.0287  -6.8976  -6.8714
    -6.8714  -6.8489  -6.8457  -6.8457  -6.7060  -6.6911  -6.6911  -6.6901
    -6.6743  -6.6620  -6.6376  -6.6376  -6.5892  -6.5798  -6.5763  -6.5763
    -6.5670  -6.5670  -6.5475  -6.5475  -6.5278  -6.5278  -6.5178  -6.5178
    -6.5161  -6.5116  -6.5116  -6.5085  -6.5085  -6.5016  -6.5016  -6.4857
    -6.4857  -6.4600  -6.4600  -6.4224  -6.4224  -6.3945  -6.3945  -6.3795
    -6.3795  -6.3751  -6.3212  -6.3165  -6.3165  -6.3149  -6.3149  -6.3144
    -6.3144  -6.2682  -6.2682  -6.2581  -6.2510  -6.2287  -6.2287  -6.2225
    -6.2225  -6.2208  -6.2207  -6.2207  -6.2078  -6.2078  -6.2041  -6.2041
    -6.1949  -6.1949  -6.1831  -6.1831  -6.1790  -6.1773  -6.1773  -6.1534
    -6.1371  -6.1229  -6.1229  -6.1137  -6.1137  -6.0997  -6.0997  -6.0922
    -6.0897  -6.0897  -6.0773  -6.0627  -6.0627  -6.0488  -6.0488  -6.0477
    -6.0477  -5.9583  -5.9583  -5.9581  -5.9581  -5.9429  -5.9403  -5.9363
    -5.9363  -5.9339  -5.9339  -5.9232  -5.9232  -5.9121  -5.9104  -5.9104
    -5.8922  -5.8922  -5.8885  -5.8846  -5.8805  -5.8731  -5.8731  -5.8679
    -5.8451  -5.8451  -5.8382  -5.8382  -5.8241  -5.8105  -5.7946  -5.7946
    -5.7945  -5.7945  -5.7857  -5.7857  -5.7756  -5.7756  -5.7749  -5.7722
    -5.7722  -5.7545  -5.7545  -5.7465  -5.7465  -5.7392  -5.7294  -5.7294
    -5.7131  -5.7118  -5.7118  -5.7044  -5.7044  -5.6966  -5.6966  -5.6941
    -5.6941  -5.6914  -5.6914  -5.6783  -5.6669  -5.6669  -5.6562  -5.6429
    -5.6384  -5.6384  -5.6325  -5.6325  -5.6175  -5.6175  -5.6160  -5.6154
    -5.6154  -5.6116  -5.6101  -5.6044  -5.6044  -5.5788  -5.5631  -5.5597
    -5.5597  -5.5552  -5.5552  -5.5468  -5.5468  -5.5445  -5.5445  -5.5425
    -5.5425  -5.5400  -5.5257  -5.5257  -5.5249  -5.5204  -5.5204  -5.5117
    -5.5117  -5.4906  -5.4906  -5.4614  -5.4594  -5.4567  -5.4567  -5.4531
    -5.4531  -5.4507  -5.4507  -5.4388  -5.4388  -5.4295  -5.4248  -5.4248
    -5.4225  -5.4183  -5.4134  -5.4130  -5.4012  -5.4012  -5.3985  -5.3984
    -5.3875  -5.3859  -5.3859  -5.3794  -5.3672  -5.3672  -5.3633  -5.3582
    -5.3444  -5.3444  -5.3404  -5.3315  -5.3191  -5.3190  -5.3128  -5.3103
    -5.3103  -5.3006  -5.3006  -5.2920  -5.2920  -5.2815  -5.2815  -5.1432
    -5.1432  -5.1286  -5.1286  -5.1231  -5.1231  -5.1048  -5.1041  -4.9467
    -4.9341  -4.6380  -4.6380  -3.8810  -3.8810  -3.4799  -3.3937  -3.3937
    -3.3650  -2.6734  -2.3017  -2.3017  -2.2220  -2.0211  -2.0211  -1.9713
    -1.9713  -1.5148  -1.5148  -1.2922  -1.2922  -1.1169  -0.7950  -0.5729
    -0.5729  -0.5609  -0.5609  -0.5522   0.0237   0.0237   0.2690   0.2690
     0.5600   0.5600   0.6334   0.8764   0.8983   0.8983   1.1835   1.1835
     1.5564   1.5564   2.2263   2.2263   2.6473   2.6965   2.6965   2.7210
     2.7827   2.7827   2.9500   2.9500   3.2198   3.5466   3.6907   3.6907
     3.9087   3.9087   4.1121   4.1850   4.1850   4.5562   4.5562   4.8018
     4.8018   4.8432   4.8432   5.1517   5.1517   5.1604   5.1604   5.1871
     5.3802   5.4260   5.4260   5.5683   5.6427   5.7935   5.7935   5.8067
     6.0890   6.0940   6.0940   6.2991   6.3130   6.3130   6.3153   6.5101
     6.5387   6.5387   6.5944   6.5944   6.7102   6.7579   6.7579   7.0101
     7.0101   7.0869   7.0869   7.1721   7.1721   7.2400   7.3088   7.3088
     7.4083   7.4234   7.4234   7.4473   7.4473   7.6568   7.6568   7.6674
     7.6674   7.6995   7.6995   7.7427   7.8555   7.8555   7.9459   7.9459
     8.0232   8.0232   8.1333   8.3099   8.3219   8.4772   8.6361   8.6361
     8.6960   8.7073   8.8079   8.8079   8.8255   8.8257   8.8356   8.8363

     occupation numbers 
     1.0000   1.0000   1.0000   1.0000   1.0000   1.0000   1.0000   1.0000
     1.0000   1.0000   1.0000   1.0000   1.0000   1.0000   1.0000   1.0000
     1.0000   1.0000   1.0000   1.0000   1.0000   1.0000   1.0000   1.0000
     1.0000   1.0000   1.0000   1.0000   1.0000   1.0000   1.0000   1.0000
     1.0000   1.0000   1.0000   1.0000   1.0000   1.0000   1.0000   1.0000
     1.0000   1.0000   1.0000   1.0000   1.0000   1.0000   1.0000   1.0000
     1.0000   1.0000   1.0000   1.0000   1.0000   1.0000   1.0000   1.0000
     1.0000   1.0000   1.0000   1.0000   1.0000   1.0000   1.0000   1.0000
     1.0000   1.0000   1.0000   1.0000   1.0000   1.0000   1.0000   1.0000
     1.0000   1.0000   1.0000   1.0000   1.0000   1.0000   1.0000   1.0000
     1.0000   1.0000   1.0000   1.0000   1.0000   1.0000   1.0000   1.0000
     1.0000   1.0000   1.0000   1.0000   1.0000   1.0000   1.0000   1.0000
     1.0000   1.0000   1.0000   1.0000   1.0000   1.0000   1.0000   1.0000
     1.0000   1.0000   1.0000   1.0000   1.0000   1.0000   1.0000   1.0000
     1.0000   1.0000   1.0000   1.0000   1.0000   1.0000   1.0000   1.0000
     1.0000   1.0000   1.0000   1.0000   1.0000   1.0000   1.0000   1.0000
     1.0000   1.0000   1.0000   1.0000   1.0000   1.0000   1.0000   1.0000
     1.0000   1.0000   1.0000   1.0000   1.0000   1.0000   1.0000   1.0000
     1.0000   1.0000   1.0000   1.0000   1.0000   1.0000   1.0000   1.0000
     1.0000   1.0000   1.0000   1.0000   1.0000   1.0000   1.0000   1.0000
     1.0000   1.0000   1.0000   1.0000   1.0000   1.0000   1.0000   1.0000
     1.0000   1.0000   1.0000   1.0000   1.0000   1.0000   1.0000   1.0000
     1.0000   1.0000   1.0000   1.0000   1.0000   1.0000   1.0000   1.0000
     1.0000   1.0000   1.0000   1.0000   1.0000   1.0000   1.0000   1.0000
     1.0000   1.0000   1.0000   1.0000   1.0000   1.0000   1.0000   1.0000
     1.0000   1.0000   1.0000   1.0000   1.0000   1.0000   1.0000   1.0000
     1.0000   1.0000   1.0000   1.0000   1.0000   1.0000   1.0000   1.0000
     1.0000   1.0000   1.0000   1.0000   1.0000   1.0000   1.0000   1.0000
     1.0000   1.0000   1.0000   1.0000   1.0000   1.0000   1.0000   1.0000
     1.0000   1.0000   1.0000   1.0000   1.0000   1.0000   1.0000   1.0000
     1.0000   1.0000   1.0000   1.0000   1.0000   1.0000   1.0000   1.0000
     1.0000   1.0000   1.0000   1.0000   1.0000   1.0000   1.0000   1.0000
     1.0000   1.0000   1.0000   1.0000   1.0000   1.0000   1.0000   1.0000
     1.0000   1.0000   1.0000   1.0000   1.0000   1.0000   1.0000   1.0000
     1.0000   1.0000   1.0000   1.0000   1.0000   1.0000   1.0000   1.0000
     1.0000   1.0000   1.0000   1.0000   1.0000   1.0000   1.0000   1.0000
     1.0000   1.0000   1.0000   1.0000   1.0000   1.0000   1.0000   1.0000
     1.0000   1.0000   1.0000   1.0000   1.0000   1.0000   1.0000   1.0000
     1.0000   1.0000   1.0000   1.0000   1.0000   1.0000   1.0000   1.0000
     1.0000   1.0000   1.0000   1.0000   1.0000   1.0000   1.0000   1.0000
     1.0000   1.0000   1.0000   1.0000   1.0000   1.0000   1.0000   1.0000
     1.0000   1.0000   1.0000   1.0000   1.0000   1.0000   1.0000   1.0000
     1.0000   1.0000   1.0000   1.0000   1.0000   1.0000   1.0000   1.0000
     1.0000   1.0000   1.0000   1.0000   1.0000   1.0000   1.0000   1.0000
     1.0000   1.0000   1.0000   1.0000   1.0000   1.0000   1.0000   1.0000
     1.0000   1.0000   1.0000   1.0000   1.0000   1.0000   1.0000   1.0000
     1.0000   1.0000   1.0000   1.0000   1.0000   1.0000   1.0000   1.0000
     1.0000   1.0000   1.0000   1.0000   1.0000   1.0000   1.0000   1.0000
     1.0000   1.0000   1.0000   1.0000   1.0000   1.0000   1.0000   1.0000
     1.0000   1.0000   1.0000   1.0000   1.0000   1.0000   1.0000   1.0000
     1.0000   1.0000   1.0000   1.0000   1.0000   1.0000   1.0000   1.0000
     1.0000   1.0000   1.0000   1.0000   1.0000   1.0000   1.0000   1.0000
     1.0000   1.0000   1.0000   1.0000   1.0000   1.0000   1.0000   1.0000
     1.0000   1.0000   1.0000   1.0000   1.0000   1.0000   1.0000   1.0000
     1.0000   1.0000   1.0000   1.0000   1.0000   1.0000   1.0000   1.0000
     1.0000   1.0000   1.0000   1.0000   1.0000   1.0000   1.0000   1.0000
     1.0000   1.0000   1.0000   1.0000   1.0000   1.0000   1.0000   1.0000
     1.0000   1.0000   1.0000   1.0000   1.0000   1.0000   1.0000   1.0000
     1.0000   1.0000   1.0000   1.0000   1.0000   1.0000   1.0000   1.0000
     1.0006   1.0006   1.0019   1.0373   1.0444   1.0444   0.9984   0.9984
     0.1541   0.1541   0.0000   0.0000   0.0000   0.0000   0.0000   0.0000
     0.0000   0.0000   0.0000   0.0000   0.0000   0.0000   0.0000   0.0000
     0.0000   0.0000   0.0000   0.0000   0.0000   0.0000   0.0000   0.0000
     0.0000   0.0000   0.0000   0.0000   0.0000   0.0000   0.0000   0.0000
     0.0000   0.0000   0.0000   0.0000   0.0000   0.0000   0.0000   0.0000
     0.0000   0.0000   0.0000   0.0000   0.0000   0.0000   0.0000   0.0000
     0.0000   0.0000   0.0000   0.0000   0.0000   0.0000   0.0000   0.0000
     0.0000   0.0000   0.0000   0.0000   0.0000   0.0000   0.0000   0.0000
     0.0000   0.0000   0.0000   0.0000   0.0000   0.0000   0.0000   0.0000
     0.0000   0.0000   0.0000   0.0000   0.0000   0.0000   0.0000   0.0000
     0.0000   0.0000   0.0000   0.0000   0.0000   0.0000   0.0000   0.0000
     0.0000   0.0000   0.0000   0.0000   0.0000   0.0000   0.0000   0.0000

          k = 0.2500 0.4330 0.0000 ( 64876 PWs)   bands (ev):

  -125.0661-125.0655-125.0653-125.0644-125.0643-125.0638-125.0637-125.0634
  -125.0634-125.0631-125.0629-125.0628-125.0627-125.0624-125.0623-125.0622
  -124.8620-124.8619-124.8614-124.8614-124.8613-124.8612-124.8603-124.8603
  -124.8602-124.8602-124.8598-124.8597-124.8597-124.8595-124.8594-124.8594
  -124.8593-124.8592-124.8591-124.8590-124.8589-124.8589-124.8589-124.8588
  -124.8587-124.8586-124.8584-124.8584-124.8584-124.8583-124.8582-124.8582
   -79.2312 -79.2296 -79.2296 -79.2290 -79.2289 -79.2270 -79.2267 -79.2249
   -79.2246 -79.2242 -79.2208 -79.2200 -79.2163 -79.2163 -79.2143 -79.2137
   -79.2135 -79.2129 -79.2128 -79.2124 -79.2123 -79.2118 -79.2117 -79.2113
   -79.2113 -79.2109 -79.2108 -79.2107 -79.2106 -79.2102 -79.2101 -79.2100
   -79.2095 -79.2077 -79.2075 -79.2064 -79.2062 -79.2060 -79.2055 -79.2055
   -79.2049 -79.2047 -79.2033 -79.2033 -79.2007 -79.1992 -79.1992 -79.1978
   -79.0238 -79.0238 -79.0222 -79.0222 -79.0221 -79.0221 -79.0216 -79.0216
   -79.0215 -79.0215 -79.0196 -79.0195 -79.0194 -79.0193 -79.0186 -79.0184
   -79.0180 -79.0179 -79.0178 -79.0177 -79.0175 -79.0174 -79.0173 -79.0173
   -79.0169 -79.0169 -79.0167 -79.0167 -79.0166 -79.0166 -79.0161 -79.0160
   -79.0160 -79.0159 -79.0157 -79.0157 -79.0156 -79.0155 -79.0154 -79.0153
   -79.0152 -79.0152 -79.0151 -79.0151 -79.0150 -79.0149 -79.0147 -79.0146
   -79.0146 -79.0146 -79.0145 -79.0144 -79.0134 -79.0134 -79.0126 -79.0126
   -79.0090 -79.0090 -79.0089 -79.0089 -79.0055 -79.0055 -79.0055 -79.0054
   -79.0021 -79.0021 -79.0004 -79.0004 -79.0002 -79.0002 -78.9991 -78.9990
   -78.9989 -78.9988 -78.9988 -78.9987 -78.9982 -78.9982 -78.9982 -78.9982
   -78.9976 -78.9975 -78.9974 -78.9974 -78.9960 -78.9960 -78.9960 -78.9960
   -78.9934 -78.9934 -78.9919 -78.9919 -78.9919 -78.9919 -78.9905 -78.9905
    -8.2700  -7.8233  -7.8231  -7.1115  -6.9137  -6.8393  -6.8393  -6.8034
    -6.8034  -6.7965  -6.7964  -6.7925  -6.7923  -6.7681  -6.7270  -6.7268
    -6.6978  -6.6976  -6.6545  -6.6545  -6.6225  -6.6086  -6.6086  -6.6038
    -6.6037  -6.5874  -6.5873  -6.5673  -6.5672  -6.5593  -6.5590  -6.5432
    -6.5335  -6.5334  -6.4913  -6.4911  -6.4712  -6.4712  -6.4686  -6.4611
    -6.4611  -6.4394  -6.4392  -6.4168  -6.4117  -6.4117  -6.4113  -6.4112
    -6.4023  -6.4022  -6.3915  -6.3692  -6.3690  -6.3117  -6.3012  -6.3012
    -6.2964  -6.2964  -6.2912  -6.2912  -6.2908  -6.2777  -6.2664  -6.2624
    -6.2623  -6.2538  -6.2483  -6.2481  -6.2429  -6.2428  -6.2409  -6.2215
    -6.2215  -6.2012  -6.2011  -6.1768  -6.1767  -6.1649  -6.1466  -6.1448
    -6.1406  -6.1406  -6.1171  -6.1171  -6.1073  -6.1072  -6.0938  -6.0882
    -6.0553  -6.0553  -6.0458  -6.0456  -6.0412  -6.0322  -6.0192  -6.0192
    -5.9965  -5.9909  -5.9908  -5.9883  -5.9794  -5.9794  -5.9718  -5.9718
    -5.9694  -5.9694  -5.9563  -5.9479  -5.9413  -5.9146  -5.9146  -5.9066
    -5.9065  -5.9057  -5.8981  -5.8902  -5.8902  -5.8852  -5.8851  -5.8765
    -5.8764  -5.8524  -5.8524  -5.8455  -5.8454  -5.8327  -5.8325  -5.8323
    -5.8316  -5.8278  -5.8278  -5.8077  -5.7958  -5.7957  -5.7929  -5.7717
    -5.7621  -5.7621  -5.7547  -5.7512  -5.7512  -5.7488  -5.7121  -5.7121
    -5.6933  -5.6932  -5.6907  -5.6905  -5.6565  -5.6533  -5.6533  -5.6524
    -5.6523  -5.6457  -5.6314  -5.6299  -5.6298  -5.6228  -5.6227  -5.5918
    -5.5916  -5.5915  -5.5911  -5.5910  -5.5818  -5.5817  -5.5800  -5.5799
    -5.5776  -5.5775  -5.5735  -5.5734  -5.5657  -5.5656  -5.5484  -5.5483
    -5.5477  -5.5477  -5.5439  -5.5393  -5.5356  -5.5356  -5.5139  -5.5139
    -5.5113  -5.5089  -5.5088  -5.5061  -5.5020  -5.4829  -5.4827  -5.4811
    -5.4785  -5.4783  -5.4652  -5.4603  -5.4603  -5.4589  -5.4588  -5.4569
    -5.4567  -5.4547  -5.4547  -5.4421  -5.4421  -5.4397  -5.4397  -5.4326
    -5.4325  -5.4298  -5.4170  -5.4170  -5.4088  -5.4088  -5.4086  -5.3978
    -5.3940  -5.3855  -5.3854  -5.3736  -5.3736  -5.3736  -5.3679  -5.3667
    -5.3639  -5.3637  -5.3343  -5.3268  -5.3268  -5.3075  -5.3074  -5.2811
    -5.2752  -5.2750  -5.2719  -5.2719  -5.2710  -5.2709  -5.2561  -5.2278
    -5.1862  -5.1862  -5.1822  -5.1822  -5.1434  -5.1434  -5.0641  -5.0640
    -4.4559  -4.2330  -4.2328  -4.0437  -4.0437  -3.2450  -3.2450  -3.1953
    -3.1448  -2.8773  -2.8773  -2.8495  -2.8494  -2.7805  -2.7803  -1.7960
    -1.7960  -1.7014  -1.7014  -1.4133  -1.4133  -0.8449  -0.4759  -0.4757
    -0.4122  -0.4122  -0.3233  -0.2414   0.2946   0.3500   0.3501   0.4234
     0.4234   0.6997   0.6997   0.7890   0.9701   0.9701   1.0866   1.4156
     1.4158   1.9758   1.9758   2.5309   2.5520   2.8205   2.9856   3.0906
     3.3259   3.3259   3.3640   3.3642   3.4434   3.4465   3.4467   3.5747
     3.5747   3.6672   3.8900   3.8901   4.3747   4.3747   4.3917   4.4248
     4.4434   4.4434   4.5667   4.5667   4.8788   4.9328   5.1390   5.1390
     5.2201   5.2201   5.4128   5.4441   5.4443   5.4521   5.4521   5.6101
     5.8639   5.8640   6.0696   6.0696   6.0903   6.1238   6.1239   6.5418
     6.5419   6.5471   6.6436   6.6456   6.6456   6.7350   6.9519   6.9990
     6.9990   7.0018   7.0096   7.0097   7.0437   7.0437   7.1634   7.1634
     7.1843   7.1844   7.2112   7.2112   7.2217   7.2217   7.4453   7.4453
     8.0916   8.2143   8.2143   8.3522   8.3618   8.3829   8.3829   8.5219
     8.5219   8.5391   8.5526   8.5824   8.5824   8.6231   8.6231   8.6579
     8.6782   8.6783   8.7001   8.7426   8.8051   8.8051   9.0124   9.0124

     occupation numbers 
     1.0000   1.0000   1.0000   1.0000   1.0000   1.0000   1.0000   1.0000
     1.0000   1.0000   1.0000   1.0000   1.0000   1.0000   1.0000   1.0000
     1.0000   1.0000   1.0000   1.0000   1.0000   1.0000   1.0000   1.0000
     1.0000   1.0000   1.0000   1.0000   1.0000   1.0000   1.0000   1.0000
     1.0000   1.0000   1.0000   1.0000   1.0000   1.0000   1.0000   1.0000
     1.0000   1.0000   1.0000   1.0000   1.0000   1.0000   1.0000   1.0000
     1.0000   1.0000   1.0000   1.0000   1.0000   1.0000   1.0000   1.0000
     1.0000   1.0000   1.0000   1.0000   1.0000   1.0000   1.0000   1.0000
     1.0000   1.0000   1.0000   1.0000   1.0000   1.0000   1.0000   1.0000
     1.0000   1.0000   1.0000   1.0000   1.0000   1.0000   1.0000   1.0000
     1.0000   1.0000   1.0000   1.0000   1.0000   1.0000   1.0000   1.0000
     1.0000   1.0000   1.0000   1.0000   1.0000   1.0000   1.0000   1.0000
     1.0000   1.0000   1.0000   1.0000   1.0000   1.0000   1.0000   1.0000
     1.0000   1.0000   1.0000   1.0000   1.0000   1.0000   1.0000   1.0000
     1.0000   1.0000   1.0000   1.0000   1.0000   1.0000   1.0000   1.0000
     1.0000   1.0000   1.0000   1.0000   1.0000   1.0000   1.0000   1.0000
     1.0000   1.0000   1.0000   1.0000   1.0000   1.0000   1.0000   1.0000
     1.0000   1.0000   1.0000   1.0000   1.0000   1.0000   1.0000   1.0000
     1.0000   1.0000   1.0000   1.0000   1.0000   1.0000   1.0000   1.0000
     1.0000   1.0000   1.0000   1.0000   1.0000   1.0000   1.0000   1.0000
     1.0000   1.0000   1.0000   1.0000   1.0000   1.0000   1.0000   1.0000
     1.0000   1.0000   1.0000   1.0000   1.0000   1.0000   1.0000   1.0000
     1.0000   1.0000   1.0000   1.0000   1.0000   1.0000   1.0000   1.0000
     1.0000   1.0000   1.0000   1.0000   1.0000   1.0000   1.0000   1.0000
     1.0000   1.0000   1.0000   1.0000   1.0000   1.0000   1.0000   1.0000
     1.0000   1.0000   1.0000   1.0000   1.0000   1.0000   1.0000   1.0000
     1.0000   1.0000   1.0000   1.0000   1.0000   1.0000   1.0000   1.0000
     1.0000   1.0000   1.0000   1.0000   1.0000   1.0000   1.0000   1.0000
     1.0000   1.0000   1.0000   1.0000   1.0000   1.0000   1.0000   1.0000
     1.0000   1.0000   1.0000   1.0000   1.0000   1.0000   1.0000   1.0000
     1.0000   1.0000   1.0000   1.0000   1.0000   1.0000   1.0000   1.0000
     1.0000   1.0000   1.0000   1.0000   1.0000   1.0000   1.0000   1.0000
     1.0000   1.0000   1.0000   1.0000   1.0000   1.0000   1.0000   1.0000
     1.0000   1.0000   1.0000   1.0000   1.0000   1.0000   1.0000   1.0000
     1.0000   1.0000   1.0000   1.0000   1.0000   1.0000   1.0000   1.0000
     1.0000   1.0000   1.0000   1.0000   1.0000   1.0000   1.0000   1.0000
     1.0000   1.0000   1.0000   1.0000   1.0000   1.0000   1.0000   1.0000
     1.0000   1.0000   1.0000   1.0000   1.0000   1.0000   1.0000   1.0000
     1.0000   1.0000   1.0000   1.0000   1.0000   1.0000   1.0000   1.0000
     1.0000   1.0000   1.0000   1.0000   1.0000   1.0000   1.0000   1.0000
     1.0000   1.0000   1.0000   1.0000   1.0000   1.0000   1.0000   1.0000
     1.0000   1.0000   1.0000   1.0000   1.0000   1.0000   1.0000   1.0000
     1.0000   1.0000   1.0000   1.0000   1.0000   1.0000   1.0000   1.0000
     1.0000   1.0000   1.0000   1.0000   1.0000   1.0000   1.0000   1.0000
     1.0000   1.0000   1.0000   1.0000   1.0000   1.0000   1.0000   1.0000
     1.0000   1.0000   1.0000   1.0000   1.0000   1.0000   1.0000   1.0000
     1.0000   1.0000   1.0000   1.0000   1.0000   1.0000   1.0000   1.0000
     1.0000   1.0000   1.0000   1.0000   1.0000   1.0000   1.0000   1.0000
     1.0000   1.0000   1.0000   1.0000   1.0000   1.0000   1.0000   1.0000
     1.0000   1.0000   1.0000   1.0000   1.0000   1.0000   1.0000   1.0000
     1.0000   1.0000   1.0000   1.0000   1.0000   1.0000   1.0000   1.0000
     1.0000   1.0000   1.0000   1.0000   1.0000   1.0000   1.0000   1.0000
     1.0000   1.0000   1.0000   1.0000   1.0000   1.0000   1.0000   1.0000
     1.0000   1.0000   1.0000   1.0000   1.0000   1.0000   1.0000   1.0000
     1.0000   1.0000   1.0000   1.0000   1.0000   1.0000   1.0000   1.0000
     1.0000   1.0000   1.0000   1.0000   1.0000   1.0000   1.0000   1.0000
     1.0000   1.0000   1.0000   1.0000   1.0000   1.0000   1.0000   1.0000
     1.0000   1.0000   1.0000   1.0000   1.0000   1.0000   1.0000   1.0000
     1.0000   1.0000   1.0000   1.0000   1.0000   1.0000   1.0000   1.0000
     1.0000   1.0052   1.0052   1.0159   1.0686   1.0686   1.0779   0.4455
     0.4450   0.0003   0.0003   0.0000   0.0000   0.0000   0.0000   0.0000
     0.0000   0.0000   0.0000   0.0000   0.0000   0.0000   0.0000   0.0000
     0.0000   0.0000   0.0000   0.0000   0.0000   0.0000   0.0000   0.0000
     0.0000   0.0000   0.0000   0.0000   0.0000   0.0000   0.0000   0.0000
     0.0000   0.0000   0.0000   0.0000   0.0000   0.0000   0.0000   0.0000
     0.0000   0.0000   0.0000   0.0000   0.0000   0.0000   0.0000   0.0000
     0.0000   0.0000   0.0000   0.0000   0.0000   0.0000   0.0000   0.0000
     0.0000   0.0000   0.0000   0.0000   0.0000   0.0000   0.0000   0.0000
     0.0000   0.0000   0.0000   0.0000   0.0000   0.0000   0.0000   0.0000
     0.0000   0.0000   0.0000   0.0000   0.0000   0.0000   0.0000   0.0000
     0.0000   0.0000   0.0000   0.0000   0.0000   0.0000   0.0000   0.0000
     0.0000   0.0000   0.0000   0.0000   0.0000   0.0000   0.0000   0.0000

          k = 0.2500-0.4330 0.0000 ( 64876 PWs)   bands (ev):

  -125.0661-125.0655-125.0653-125.0644-125.0643-125.0638-125.0637-125.0634
  -125.0634-125.0631-125.0629-125.0628-125.0627-125.0624-125.0623-125.0622
  -124.8620-124.8619-124.8615-124.8614-124.8613-124.8613-124.8603-124.8603
  -124.8602-124.8602-124.8598-124.8597-124.8597-124.8595-124.8594-124.8594
  -124.8593-124.8592-124.8591-124.8591-124.8589-124.8589-124.8588-124.8588
  -124.8587-124.8586-124.8584-124.8584-124.8583-124.8583-124.8582-124.8582
   -79.2312 -79.2296 -79.2296 -79.2290 -79.2289 -79.2270 -79.2267 -79.2249
   -79.2246 -79.2242 -79.2208 -79.2200 -79.2163 -79.2163 -79.2143 -79.2137
   -79.2135 -79.2129 -79.2128 -79.2124 -79.2123 -79.2118 -79.2116 -79.2113
   -79.2113 -79.2110 -79.2108 -79.2107 -79.2106 -79.2102 -79.2101 -79.2100
   -79.2095 -79.2077 -79.2075 -79.2064 -79.2062 -79.2060 -79.2055 -79.2055
   -79.2049 -79.2047 -79.2033 -79.2033 -79.2007 -79.1992 -79.1992 -79.1978
   -79.0238 -79.0238 -79.0222 -79.0222 -79.0221 -79.0221 -79.0216 -79.0216
   -79.0215 -79.0215 -79.0196 -79.0195 -79.0194 -79.0193 -79.0186 -79.0184
   -79.0180 -79.0178 -79.0178 -79.0177 -79.0175 -79.0174 -79.0173 -79.0173
   -79.0169 -79.0169 -79.0167 -79.0167 -79.0166 -79.0166 -79.0161 -79.0160
   -79.0160 -79.0158 -79.0157 -79.0157 -79.0156 -79.0155 -79.0154 -79.0153
   -79.0152 -79.0152 -79.0151 -79.0151 -79.0150 -79.0149 -79.0147 -79.0146
   -79.0146 -79.0146 -79.0145 -79.0144 -79.0134 -79.0134 -79.0126 -79.0126
   -79.0090 -79.0090 -79.0089 -79.0089 -79.0055 -79.0055 -79.0054 -79.0054
   -79.0021 -79.0021 -79.0004 -79.0003 -79.0002 -79.0002 -78.9991 -78.9989
   -78.9989 -78.9988 -78.9988 -78.9987 -78.9982 -78.9982 -78.9982 -78.9982
   -78.9976 -78.9975 -78.9974 -78.9974 -78.9960 -78.9960 -78.9960 -78.9960
   -78.9934 -78.9934 -78.9919 -78.9919 -78.9919 -78.9919 -78.9905 -78.9905
    -8.2700  -7.8233  -7.8231  -7.1115  -6.9137  -6.8393  -6.8393  -6.8034
    -6.8034  -6.7965  -6.7964  -6.7925  -6.7923  -6.7681  -6.7270  -6.7268
    -6.6978  -6.6976  -6.6545  -6.6545  -6.6225  -6.6086  -6.6086  -6.6038
    -6.6037  -6.5874  -6.5873  -6.5673  -6.5672  -6.5593  -6.5590  -6.5432
    -6.5335  -6.5334  -6.4913  -6.4911  -6.4712  -6.4712  -6.4686  -6.4611
    -6.4611  -6.4394  -6.4392  -6.4168  -6.4117  -6.4117  -6.4113  -6.4112
    -6.4023  -6.4022  -6.3915  -6.3692  -6.3690  -6.3117  -6.3012  -6.3012
    -6.2964  -6.2964  -6.2912  -6.2912  -6.2908  -6.2777  -6.2664  -6.2624
    -6.2623  -6.2538  -6.2483  -6.2481  -6.2429  -6.2428  -6.2409  -6.2215
    -6.2215  -6.2012  -6.2011  -6.1768  -6.1767  -6.1649  -6.1466  -6.1448
    -6.1406  -6.1406  -6.1171  -6.1171  -6.1073  -6.1072  -6.0938  -6.0882
    -6.0553  -6.0553  -6.0458  -6.0456  -6.0412  -6.0322  -6.0192  -6.0192
    -5.9965  -5.9909  -5.9908  -5.9883  -5.9794  -5.9794  -5.9718  -5.9718
    -5.9694  -5.9694  -5.9563  -5.9479  -5.9413  -5.9146  -5.9146  -5.9066
    -5.9065  -5.9057  -5.8981  -5.8902  -5.8902  -5.8852  -5.8851  -5.8765
    -5.8764  -5.8524  -5.8524  -5.8455  -5.8454  -5.8327  -5.8325  -5.8323
    -5.8316  -5.8278  -5.8278  -5.8077  -5.7958  -5.7957  -5.7929  -5.7717
    -5.7621  -5.7621  -5.7547  -5.7512  -5.7512  -5.7488  -5.7121  -5.7121
[...]
     1.0000   1.0000   1.0000   1.0000   1.0000   1.0000   1.0000   1.0000
     1.0000   1.0000   1.0000   1.0000   1.0000   1.0000   1.0000   1.0000
     1.0000   1.0000   1.0000   1.0000   1.0000   1.0000   1.0000   1.0000
     1.0000   1.0000   1.0000   1.0000   1.0000   1.0000   1.0000   1.0000
     1.0000   1.0000   1.0000   1.0000   1.0000   1.0000   1.0000   1.0000
     1.0000   1.0000   1.0000   1.0000   1.0000   1.0000   1.0000   1.0000
     1.0000   1.0000   1.0000   1.0000   1.0000   1.0000   1.0000   1.0000
     1.0000   1.0000   1.0000   1.0000   1.0000   1.0000   1.0000   1.0000
     1.0000   1.0000   1.0000   1.0000   1.0000   1.0000   1.0000   1.0000
     1.0000   1.0000   1.0000   1.0000   1.0000   1.0000   1.0000   1.0000
     1.0000   1.0000   1.0000   1.0000   1.0000   1.0000   1.0000   1.0000
     1.0000   1.0000   1.0000   1.0000   1.0000   1.0000   1.0000   1.0000
     1.0000   1.0000   1.0000   1.0000   1.0000   1.0000   1.0000   1.0000
     1.0000   1.0000   1.0000   1.0000   1.0000   1.0000   1.0000   1.0000
     1.0000   1.0000   1.0000   1.0000   1.0000   1.0000   1.0000   1.0000
     1.0000   1.0000   1.0000   1.0000   1.0000   1.0000   1.0000   1.0000
     1.0000   1.0000   1.0000   1.0000   1.0000   1.0000   1.0000   1.0000
     1.0000   1.0000   1.0000   1.0000   1.0000   1.0000   1.0000   1.0000
     1.0000   1.0000   1.0000   1.0000   1.0000   1.0000   1.0000   1.0000
     1.0000   1.0000   1.0000   1.0000   1.0000   1.0000   1.0000   1.0000
     1.0000   1.0000   1.0000   1.0000   1.0000   1.0000   1.0000   1.0000
     1.0000   1.0000   1.0000   1.0000   1.0000   1.0000   1.0000   1.0000
     1.0000   1.0000   1.0000   1.0000   1.0000   1.0000   1.0000   1.0000
     1.0000   1.0000   1.0000   1.0000   1.0000   1.0000   1.0000   1.0000
     1.0000   1.0000   1.0000   1.0000   1.0000   1.0000   1.0000   1.0000
     1.0000   1.0000   1.0000   1.0000   1.0000   1.0000   1.0000   1.0000
     1.0000   1.0000   1.0000   1.0000   1.0000   1.0000   1.0000   1.0000
     1.0000   1.0000   1.0000   1.0000   1.0000   1.0000   1.0000   1.0000
     1.0000   1.0000   1.0000   1.0000   1.0000   1.0000   1.0000   1.0000
     1.0000   1.0000   1.0000   1.0000   1.0000   1.0000   1.0000   1.0000
     1.0000   1.0000   1.0000   1.0000   1.0000   1.0000   1.0000   1.0000
     1.0000   1.0000   1.0000   1.0000   1.0000   1.0000   1.0000   1.0000
     1.0000   1.0000   1.0000   1.0000   1.0000   1.0000   1.0000   1.0000
     1.0000   1.0000   1.0000   1.0000   1.0000   1.0000   1.0000   1.0000
     1.0000   1.0000   1.0000   1.0000   1.0000   1.0000   1.0000   1.0000
     1.0000   1.0000   1.0000   1.0000   1.0000   1.0000   1.0000   1.0000
     1.0000   1.0000   1.0000   1.0000   1.0000   1.0000   1.0000   1.0000
     1.0000   1.0000   1.0000   1.0000   1.0000   1.0000   1.0000   1.0000
     1.0000   1.0000   1.0000   1.0000   1.0000   1.0000   1.0000   1.0000
     1.0000   1.0000   1.0000   1.0000   1.0000   1.0000   1.0000   1.0000
     1.0000   1.0000   1.0000   1.0000   1.0000   1.0000   1.0000   1.0000
     1.0000   1.0000   1.0000   1.0000   1.0000   1.0000   1.0000   1.0000
     1.0000   1.0000   1.0000   1.0000   1.0000   1.0000   1.0000   1.0000
     1.0000   1.0000   1.0000   1.0000   1.0000   1.0000   1.0000   1.0000
     1.0000   1.0000   1.0000   1.0000   1.0000   1.0000   1.0000   1.0000
     1.0000   1.0000   1.0000   1.0000   1.0000   1.0000   1.0000   1.0000
     1.0000   1.0000   1.0000   1.0000   1.0000   1.0000   1.0000   1.0000
     1.0000   1.0000   1.0000   1.0000   1.0000   1.0000   1.0000   1.0000
     1.0000   1.0000   1.0000   1.0000   1.0000   1.0000   1.0000   1.0000
     1.0000   1.0000   1.0000   1.0000   1.0000   1.0000   1.0000   1.0000
     1.0000   1.0000   1.0000   1.0000   1.0000   1.0000   1.0000   1.0000
     1.0000   1.0000   1.0000   1.0000   1.0000   1.0000   1.0000   1.0000
     1.0000   1.0052   1.0052   1.0159   1.0686   1.0686   1.0779   0.4456
     0.4448   0.0003   0.0003   0.0000   0.0000   0.0000   0.0000   0.0000
     0.0000   0.0000   0.0000   0.0000   0.0000   0.0000   0.0000   0.0000
     0.0000   0.0000   0.0000   0.0000   0.0000   0.0000   0.0000   0.0000
     0.0000   0.0000   0.0000   0.0000   0.0000   0.0000   0.0000   0.0000
     0.0000   0.0000   0.0000   0.0000   0.0000   0.0000   0.0000   0.0000
     0.0000   0.0000   0.0000   0.0000   0.0000   0.0000   0.0000   0.0000
     0.0000   0.0000   0.0000   0.0000   0.0000   0.0000   0.0000   0.0000
     0.0000   0.0000   0.0000   0.0000   0.0000   0.0000   0.0000   0.0000
     0.0000   0.0000   0.0000   0.0000   0.0000   0.0000   0.0000   0.0000
     0.0000   0.0000   0.0000   0.0000   0.0000   0.0000   0.0000   0.0000
     0.0000   0.0000   0.0000   0.0000   0.0000   0.0000   0.0000   0.0000
     0.0000   0.0000   0.0000   0.0000   0.0000   0.0000   0.0000   0.0000

          k =-0.5000-0.8660 0.0000 ( 64842 PWs)   bands (ev):

  -125.0661-125.0656-125.0650-125.0648-125.0639-125.0638-125.0637-125.0636
  -125.0633-125.0630-125.0629-125.0628-125.0626-125.0625-125.0622-125.0622
  -124.8620-124.8618-124.8616-124.8616-124.8609-124.8608-124.8608-124.8608
  -124.8598-124.8598-124.8597-124.8597-124.8597-124.8596-124.8596-124.8596
  -124.8593-124.8592-124.8591-124.8591-124.8589-124.8588-124.8588-124.8587
  -124.8586-124.8586-124.8585-124.8585-124.8583-124.8583-124.8582-124.8582
   -79.2302 -79.2302 -79.2299 -79.2299 -79.2278 -79.2274 -79.2265 -79.2264
   -79.2220 -79.2220 -79.2220 -79.2220 -79.2171 -79.2171 -79.2143 -79.2139
   -79.2131 -79.2129 -79.2119 -79.2117 -79.2117 -79.2116 -79.2112 -79.2110
   -79.2107 -79.2107 -79.2105 -79.2105 -79.2104 -79.2104 -79.2100 -79.2100
   -79.2092 -79.2092 -79.2088 -79.2088 -79.2057 -79.2056 -79.2056 -79.2056
   -79.2049 -79.2046 -79.2023 -79.2019 -79.2010 -79.2009 -79.1983 -79.1980
   -79.0229 -79.0228 -79.0228 -79.0227 -79.0226 -79.0226 -79.0225 -79.0225
   -79.0204 -79.0203 -79.0201 -79.0201 -79.0192 -79.0191 -79.0191 -79.0191
   -79.0185 -79.0183 -79.0182 -79.0181 -79.0174 -79.0173 -79.0172 -79.0172
   -79.0162 -79.0161 -79.0161 -79.0160 -79.0160 -79.0160 -79.0159 -79.0159
   -79.0156 -79.0156 -79.0154 -79.0154 -79.0152 -79.0151 -79.0151 -79.0150
   -79.0149 -79.0149 -79.0148 -79.0148 -79.0147 -79.0147 -79.0147 -79.0147
   -79.0146 -79.0146 -79.0146 -79.0146 -79.0146 -79.0145 -79.0145 -79.0144
   -79.0098 -79.0098 -79.0097 -79.0097 -79.0032 -79.0032 -79.0032 -79.0032
   -79.0019 -79.0018 -79.0018 -79.0017 -79.0016 -79.0016 -79.0015 -79.0015
   -78.9984 -78.9983 -78.9983 -78.9983 -78.9983 -78.9983 -78.9983 -78.9983
   -78.9976 -78.9975 -78.9974 -78.9974 -78.9949 -78.9948 -78.9946 -78.9946
   -78.9937 -78.9937 -78.9937 -78.9937 -78.9909 -78.9909 -78.9907 -78.9907
    -8.1560  -8.1557  -7.3170  -7.3170  -7.0255  -7.0253  -6.8634  -6.8631
    -6.8592  -6.8589  -6.7491  -6.7491  -6.7488  -6.7488  -6.6531  -6.6529
    -6.6464  -6.6464  -6.6464  -6.6464  -6.6241  -6.6239  -6.6064  -6.6064
    -6.6062  -6.6061  -6.5527  -6.5527  -6.5283  -6.5283  -6.5281  -6.5280
    -6.5055  -6.5055  -6.4868  -6.4868  -6.4868  -6.4868  -6.4625  -6.4625
    -6.4625  -6.4624  -6.4601  -6.4599  -6.4489  -6.4489  -6.4254  -6.4254
    -6.4212  -6.4212  -6.4210  -6.4210  -6.3095  -6.3094  -6.3006  -6.3006
    -6.2923  -6.2923  -6.2923  -6.2923  -6.2909  -6.2907  -6.2701  -6.2700
    -6.2698  -6.2698  -6.2353  -6.2352  -6.2204  -6.2204  -6.2204  -6.2204
    -6.2051  -6.2051  -6.2001  -6.2001  -6.1694  -6.1692  -6.1410  -6.1410
    -6.1111  -6.1111  -6.1026  -6.1026  -6.0818  -6.0818  -6.0817  -6.0816
    -6.0607  -6.0607  -6.0607  -6.0607  -6.0412  -6.0412  -6.0316  -6.0316
    -6.0251  -6.0250  -6.0215  -6.0213  -6.0085  -6.0082  -5.9891  -5.9891
    -5.9891  -5.9891  -5.9459  -5.9459  -5.9451  -5.9449  -5.9145  -5.9144
    -5.9046  -5.9046  -5.8711  -5.8710  -5.8709  -5.8708  -5.8143  -5.8140
    -5.8084  -5.8084  -5.8077  -5.8077  -5.8076  -5.8076  -5.8043  -5.8040
    -5.7865  -5.7865  -5.7842  -5.7840  -5.7749  -5.7748  -5.7747  -5.7747
    -5.7670  -5.7668  -5.7665  -5.7665  -5.7665  -5.7664  -5.7549  -5.7549
    -5.7529  -5.7529  -5.7529  -5.7529  -5.6745  -5.6745  -5.6731  -5.6731
    -5.6661  -5.6661  -5.6446  -5.6446  -5.6446  -5.6446  -5.6301  -5.6299
    -5.6229  -5.6229  -5.6038  -5.6037  -5.6037  -5.6035  -5.5935  -5.5935
    -5.5695  -5.5694  -5.5425  -5.5423  -5.5280  -5.5280  -5.5278  -5.5278
    -5.5255  -5.5255  -5.5255  -5.5255  -5.5223  -5.5222  -5.5201  -5.5200
    -5.4982  -5.4981  -5.4980  -5.4979  -5.4882  -5.4880  -5.4874  -5.4872
    -5.4857  -5.4857  -5.4783  -5.4783  -5.4631  -5.4631  -5.4631  -5.4631
    -5.4503  -5.4502  -5.4501  -5.4500  -5.4389  -5.4389  -5.4219  -5.4216
    -5.4147  -5.4146  -5.4145  -5.4145  -5.4115  -5.4115  -5.4106  -5.4106
    -5.4039  -5.4039  -5.4018  -5.4016  -5.3993  -5.3991  -5.3696  -5.3694
    -5.3618  -5.3618  -5.3618  -5.3618  -5.3233  -5.3233  -5.3233  -5.3233
    -5.2535  -5.2534  -5.2533  -5.2532  -5.2345  -5.2345  -5.2335  -5.2334
    -5.2334  -5.2333  -5.2007  -5.2005  -5.1980  -5.1978  -4.7017  -4.7017
    -4.4181  -4.4181  -4.4181  -4.4181  -3.7282  -3.7282  -3.1104  -3.1102
    -3.0615  -3.0615  -3.0615  -3.0615  -2.3913  -2.3913  -2.2398  -2.2397
    -1.7579  -1.7579  -1.7577  -1.7577  -0.7552  -0.7552  -0.7552  -0.7552
    -0.3255  -0.3255  -0.3254  -0.3253  -0.0904  -0.0902   0.0131   0.0131
     1.0213   1.0213   1.0493   1.0493   1.3382   1.3382   1.3699   1.3699
     1.3700   1.3700   2.2236   2.2236   2.9001   2.9001   2.9002   2.9002
     3.1018   3.1018   3.1018   3.1018   3.3224   3.3224   3.5551   3.5552
     3.8667   3.8667   3.8668   3.8668   3.9984   3.9984   4.2581   4.2581
     4.4471   4.4471   4.7460   4.7460   4.8581   4.8581   5.4826   5.4826
     5.5256   5.5256   5.7250   5.7250   5.8011   5.8012   5.9296   5.9297
     5.9298   5.9298   5.9832   5.9832   5.9833   5.9833   6.1539   6.1539
     6.1539   6.1539   6.4271   6.4271   6.5598   6.5598   6.6434   6.6434
     6.6629   6.6629   6.8474   6.8474   6.8666   6.8666   7.0139   7.0139
     7.0139   7.0139   7.5856   7.5856   7.7449   7.7449   8.0646   8.0646
     8.0905   8.0905   8.0905   8.0905   8.2789   8.2789   8.4766   8.4766
     8.4766   8.4766   8.6267   8.6267   8.6267   8.6267   8.6677   8.6678
     8.7367   8.7367   8.8112   8.8113   8.9994   8.9994   8.9995   8.9996

     occupation numbers 
     1.0000   1.0000   1.0000   1.0000   1.0000   1.0000   1.0000   1.0000
     1.0000   1.0000   1.0000   1.0000   1.0000   1.0000   1.0000   1.0000
     1.0000   1.0000   1.0000   1.0000   1.0000   1.0000   1.0000   1.0000
     1.0000   1.0000   1.0000   1.0000   1.0000   1.0000   1.0000   1.0000
     1.0000   1.0000   1.0000   1.0000   1.0000   1.0000   1.0000   1.0000
     1.0000   1.0000   1.0000   1.0000   1.0000   1.0000   1.0000   1.0000
     1.0000   1.0000   1.0000   1.0000   1.0000   1.0000   1.0000   1.0000
     1.0000   1.0000   1.0000   1.0000   1.0000   1.0000   1.0000   1.0000
     1.0000   1.0000   1.0000   1.0000   1.0000   1.0000   1.0000   1.0000
     1.0000   1.0000   1.0000   1.0000   1.0000   1.0000   1.0000   1.0000
     1.0000   1.0000   1.0000   1.0000   1.0000   1.0000   1.0000   1.0000
     1.0000   1.0000   1.0000   1.0000   1.0000   1.0000   1.0000   1.0000
     1.0000   1.0000   1.0000   1.0000   1.0000   1.0000   1.0000   1.0000
     1.0000   1.0000   1.0000   1.0000   1.0000   1.0000   1.0000   1.0000
     1.0000   1.0000   1.0000   1.0000   1.0000   1.0000   1.0000   1.0000
     1.0000   1.0000   1.0000   1.0000   1.0000   1.0000   1.0000   1.0000
     1.0000   1.0000   1.0000   1.0000   1.0000   1.0000   1.0000   1.0000
     1.0000   1.0000   1.0000   1.0000   1.0000   1.0000   1.0000   1.0000
     1.0000   1.0000   1.0000   1.0000   1.0000   1.0000   1.0000   1.0000
     1.0000   1.0000   1.0000   1.0000   1.0000   1.0000   1.0000   1.0000
     1.0000   1.0000   1.0000   1.0000   1.0000   1.0000   1.0000   1.0000
     1.0000   1.0000   1.0000   1.0000   1.0000   1.0000   1.0000   1.0000
     1.0000   1.0000   1.0000   1.0000   1.0000   1.0000   1.0000   1.0000
     1.0000   1.0000   1.0000   1.0000   1.0000   1.0000   1.0000   1.0000
     1.0000   1.0000   1.0000   1.0000   1.0000   1.0000   1.0000   1.0000
     1.0000   1.0000   1.0000   1.0000   1.0000   1.0000   1.0000   1.0000
     1.0000   1.0000   1.0000   1.0000   1.0000   1.0000   1.0000   1.0000
     1.0000   1.0000   1.0000   1.0000   1.0000   1.0000   1.0000   1.0000
     1.0000   1.0000   1.0000   1.0000   1.0000   1.0000   1.0000   1.0000
     1.0000   1.0000   1.0000   1.0000   1.0000   1.0000   1.0000   1.0000
     1.0000   1.0000   1.0000   1.0000   1.0000   1.0000   1.0000   1.0000
     1.0000   1.0000   1.0000   1.0000   1.0000   1.0000   1.0000   1.0000
     1.0000   1.0000   1.0000   1.0000   1.0000   1.0000   1.0000   1.0000
     1.0000   1.0000   1.0000   1.0000   1.0000   1.0000   1.0000   1.0000
     1.0000   1.0000   1.0000   1.0000   1.0000   1.0000   1.0000   1.0000
     1.0000   1.0000   1.0000   1.0000   1.0000   1.0000   1.0000   1.0000
     1.0000   1.0000   1.0000   1.0000   1.0000   1.0000   1.0000   1.0000
     1.0000   1.0000   1.0000   1.0000   1.0000   1.0000   1.0000   1.0000
     1.0000   1.0000   1.0000   1.0000   1.0000   1.0000   1.0000   1.0000
     1.0000   1.0000   1.0000   1.0000   1.0000   1.0000   1.0000   1.0000
     1.0000   1.0000   1.0000   1.0000   1.0000   1.0000   1.0000   1.0000
     1.0000   1.0000   1.0000   1.0000   1.0000   1.0000   1.0000   1.0000
     1.0000   1.0000   1.0000   1.0000   1.0000   1.0000   1.0000   1.0000
     1.0000   1.0000   1.0000   1.0000   1.0000   1.0000   1.0000   1.0000
     1.0000   1.0000   1.0000   1.0000   1.0000   1.0000   1.0000   1.0000
     1.0000   1.0000   1.0000   1.0000   1.0000   1.0000   1.0000   1.0000
     1.0000   1.0000   1.0000   1.0000   1.0000   1.0000   1.0000   1.0000
     1.0000   1.0000   1.0000   1.0000   1.0000   1.0000   1.0000   1.0000
     1.0000   1.0000   1.0000   1.0000   1.0000   1.0000   1.0000   1.0000
     1.0000   1.0000   1.0000   1.0000   1.0000   1.0000   1.0000   1.0000
     1.0000   1.0000   1.0000   1.0000   1.0000   1.0000   1.0000   1.0000
     1.0000   1.0000   1.0000   1.0000   1.0000   1.0000   1.0000   1.0000
     1.0000   1.0000   1.0000   1.0000   1.0000   1.0000   1.0000   1.0000
     1.0000   1.0000   1.0000   1.0000   1.0000   1.0000   1.0000   1.0000
     1.0000   1.0000   1.0000   1.0000   1.0000   1.0000   1.0000   1.0000
     1.0000   1.0000   1.0000   1.0000   1.0000   1.0000   1.0000   1.0000
     1.0000   1.0000   1.0000   1.0000   1.0000   1.0000   1.0000   1.0000
     1.0000   1.0000   1.0000   1.0000   1.0000   1.0000   1.0000   1.0000
     1.0000   1.0000   1.0000   1.0000   1.0000   1.0000   1.0000   1.0000
     1.0812   1.0812   1.0833   1.0833   0.6569   0.6569   0.5692   0.5691
     0.5689   0.5688   0.0000   0.0000   0.0000   0.0000   0.0000   0.0000
     0.0000   0.0000   0.0000   0.0000   0.0000   0.0000   0.0000   0.0000
     0.0000   0.0000   0.0000   0.0000   0.0000   0.0000   0.0000   0.0000
     0.0000   0.0000   0.0000   0.0000   0.0000   0.0000   0.0000   0.0000
     0.0000   0.0000   0.0000   0.0000   0.0000   0.0000   0.0000   0.0000
     0.0000   0.0000   0.0000   0.0000   0.0000   0.0000   0.0000   0.0000
     0.0000   0.0000   0.0000   0.0000   0.0000   0.0000   0.0000   0.0000
     0.0000   0.0000   0.0000   0.0000   0.0000   0.0000   0.0000   0.0000
     0.0000   0.0000   0.0000   0.0000   0.0000   0.0000   0.0000   0.0000
     0.0000   0.0000   0.0000   0.0000   0.0000   0.0000   0.0000   0.0000
     0.0000   0.0000   0.0000   0.0000   0.0000   0.0000   0.0000   0.0000
     0.0000   0.0000   0.0000   0.0000   0.0000   0.0000   0.0000   0.0000

     the Fermi energy is     1.4330 ev

!    total energy              =  -22154.25533491 Ry
     estimated scf accuracy    <       0.00000076 Ry
     smearing contrib. (-TS)   =       0.00133461 Ry
     internal energy E=F+TS    =  -22154.25666952 Ry

     The total energy is F=E-TS. E is the sum of the following terms:
     one-electron contribution = -144865.29281119 Ry
     hartree contribution      =   72365.92729637 Ry
     xc contribution           =   -2024.13909840 Ry
     ewald contribution        =   52369.24794370 Ry

     convergence has been achieved in  10 iterations

     Writing all to output data dir ./tmp/Zn002.save/ :
     XML data file, charge density, pseudopotentials, collected wavefunctions

     init_run     :    135.86s CPU    136.77s WALL (       1 calls)
     electrons    :   7192.39s CPU   7247.25s WALL (       1 calls)

     Called by init_run:
     wfcinit      :    134.46s CPU    135.30s WALL (       1 calls)
     wfcinit:atom :      0.08s CPU      0.14s WALL (      10 calls)
     wfcinit:wfcr :    133.19s CPU    133.86s WALL (      10 calls)
     potinit      :      0.08s CPU      0.09s WALL (       1 calls)
     hinit0       :      0.03s CPU      0.04s WALL (       1 calls)

     Called by electrons:
     c_bands      :   6812.04s CPU   6863.64s WALL (      11 calls)
     sum_band     :    363.24s CPU    365.68s WALL (      11 calls)
     v_of_rho     :      0.99s CPU      1.06s WALL (      11 calls)
     v_h          :      0.06s CPU      0.07s WALL (      11 calls)
     v_xc         :      0.93s CPU      1.00s WALL (      11 calls)
     newd         :     16.96s CPU     17.67s WALL (      11 calls)
     mix_rho      :      0.10s CPU      0.10s WALL (      11 calls)

     Called by c_bands:
     init_us_2    :      5.89s CPU      5.94s WALL (     230 calls)
     cegterg      :   6801.69s CPU   6853.08s WALL (     110 calls)

     Called by sum_band:
     sum_band:wei :      0.05s CPU      0.05s WALL (      11 calls)
     sum_band:loo :    340.61s CPU    342.19s WALL (      11 calls)
     sum_band:buf :      1.12s CPU      1.16s WALL (     110 calls)
     sum_band:ini :      2.84s CPU      2.85s WALL (     110 calls)
     sum_band:cal :    295.55s CPU    296.78s WALL (     110 calls)
     sum_band:bec :      2.27s CPU      2.27s WALL (     110 calls)
     addusdens    :     22.08s CPU     22.94s WALL (      11 calls)
                                        0.00s GPU  (      11 calls)
     addusd:skk   :      0.30s CPU      0.34s WALL (      11 calls)
                                        0.00s GPU  (      11 calls)

     Called by *egterg:
     cdiaghg      :    320.03s CPU    333.48s WALL (     613 calls)
     cegterg:over :   1256.03s CPU   1260.37s WALL (     513 calls)
     cegterg:upda :    445.65s CPU    449.48s WALL (     513 calls)
     cegterg:last :   2315.82s CPU   2328.05s WALL (     220 calls)
     cdiaghg:chol :     19.76s CPU     19.81s WALL (     613 calls)
     cdiaghg:inve :      3.31s CPU      3.32s WALL (     613 calls)
     cdiaghg:para :     88.39s CPU     90.62s WALL (    1226 calls)
     h_psi        :   1649.11s CPU   1658.14s WALL (     633 calls)
     s_psi        :    705.42s CPU    707.12s WALL (     633 calls)
     g_psi        :      0.76s CPU      0.77s WALL (     513 calls)

     Called by h_psi:
     h_psi:calbec :    733.84s CPU    736.98s WALL (     633 calls)
     vloc_psi     :    181.89s CPU    183.31s WALL (     633 calls)
     add_vuspsi   :    731.19s CPU    733.02s WALL (     633 calls)

     General routines
     calbec       :   1029.38s CPU   1033.76s WALL (     743 calls)
     fft          :      0.84s CPU      0.93s WALL (     141 calls)
     ffts         :      0.03s CPU      0.03s WALL (      22 calls)
     fftw         :    191.31s CPU    192.73s WALL (  377042 calls)
     interpolate  :      0.05s CPU      0.05s WALL (      11 calls)

     Parallel routines

     PWSCF        :      2h 2m CPU      2h 3m WALL


   This run was terminated on:  21:43:59  26Mar2025            

=------------------------------------------------------------------------------=
   JOB DONE.
=------------------------------------------------------------------------------=
