--------------------------------------------------------------------------
WARNING: There was an error initializing an OpenFabrics device.

  Local host:   ga01
  Local device: mlx5_0
--------------------------------------------------------------------------
--------------------------------------------------------------------------
WARNING: There is at least one non-excluded one OpenFabrics device found,
but there are no active ports detected (or Open MPI was unable to use
them).  This is most certainly not what you wanted.  Check your
cables, subnet manager configuration, etc.  The openib BTL will be
ignored for this job.

  Local host: ga01
--------------------------------------------------------------------------

     Program PWSCF v.7.3.1 starts on 11Apr2025 at 12:47:12 

     This program is part of the open-source Quantum ESPRESSO suite
     for quantum simulation of materials; please cite
         "P. Giannozzi et al., J. Phys.:Condens. Matter 21 395502 (2009);
         "P. Giannozzi et al., J. Phys.:Condens. Matter 29 465901 (2017);
         "P. Giannozzi et al., J. Chem. Phys. 152 154105 (2020);
          URL http://www.quantum-espresso.org", 
     in publications or presentations arising from this work. More details at
     http://www.quantum-espresso.org/quote

     Parallel version (MPI), running on    31 processors

     MPI processes distributed on     1 nodes
     176290 MiB available memory on the printing compute node when the environment starts

     Waiting for input...
     Reading input from standard input
Warning: card &CELL ignored
Warning: card   CELL_DOFREE = 'ALL' ignored
Warning: card / ignored

     Current dimensions of program PWSCF are:
     Max number of different atomic species (ntypx) = 10
     Max number of k-points (npk) =  40000
     Max angular momentum in pseudopotentials (lmaxx) =  4
     file C.pbe-n-kjpaw_psl.1.0.0.UPF: wavefunction(s)  2S 2P renormalized

     R & G space division:  proc/nbgrp/npool/nimage =      31
     Subspace diagonalization in iterative solution of the eigenvalue problem:
     one sub-group per band group will be used
     custom distributed-memory algorithm (size of sub-group:  5*  5 procs)


     Parallelization info
     --------------------
     sticks:   dense  smooth     PW     G-vecs:    dense   smooth      PW
     Min         243     138     37                38743    16729    2309
     Max         246     140     38                38746    16740    2312
     Sum        7555    4303   1159              1201061   518755   71619

     Using Slab Decomposition



     bravais-lattice index     =            0
     lattice parameter (alat)  =      19.7617  a.u.
     unit-cell volume          =   15176.5939 (a.u.)^3
     number of atoms/cell      =           65
     number of atomic types    =            4
     number of electrons       =      1002.00
     number of Kohn-Sham states=          601
     kinetic-energy cutoff     =      40.0000  Ry
     charge density cutoff     =     280.0000  Ry
     scf convergence threshold =      1.0E-06
     mixing beta               =       0.4000
     number of iterations used =            8  plain     mixing
     energy convergence thresh.=      5.0E-05
     force convergence thresh. =      1.0E-03
     Exchange-correlation= PBE
                           (   1   4   3   4   0   0   0)
     nstep                     =          300


     celldm(1)=  19.761696  celldm(2)=   0.000000  celldm(3)=   0.000000
     celldm(4)=   0.000000  celldm(5)=   0.000000  celldm(6)=   0.000000

     crystal axes: (cart. coord. in units of alat)
               a(1) = (   1.000000   0.000000   0.000000 )  
               a(2) = (  -0.500000   0.866025   0.000000 )  
               a(3) = (   0.000000   0.000000   2.270759 )  

     reciprocal axes: (cart. coord. in units 2 pi/alat)
               b(1) = (  1.000000  0.577350 -0.000000 )  
               b(2) = (  0.000000  1.154701  0.000000 )  
               b(3) = (  0.000000 -0.000000  0.440381 )  


     PseudoPot. # 1 for Zn read from file:
     /home/yongsang/Research/PSID_server_room/qe/[00]QE/qepseudo/SSSP_1.3.0_PBE_efficiency/Zn_pbe_v1.uspp.F.UPF
     MD5 check sum: df62231357ef9e81f77b2b3087fa5675
     Pseudo is Ultrasoft, Zval = 20.0
     Generated by new atomic code, or converted to UPF format
     Using radial grid of  943 points,  6 beta functions with: 
                l(1) =   0
                l(2) =   0
                l(3) =   1
                l(4) =   1
                l(5) =   2
                l(6) =   2
     Q(r) pseudized with  8 coefficients,  rinner =    1.100   1.100   1.100
                                                       1.100   1.100

     PseudoPot. # 2 for N  read from file:
     /home/yongsang/Research/PSID_server_room/qe/[00]QE/qepseudo/SSSP_1.3.0_PBE_efficiency/N.pbe-n-radius_5.UPF
     MD5 check sum: 16739722b17309cd8fe442a2ace49922
     Pseudo is Ultrasoft + core correction, Zval =  5.0
     Generated using "atomic" code by A. Dal Corso  v.5.1
     Using radial grid of 1085 points,  4 beta functions with: 
                l(1) =   0
                l(2) =   0
                l(3) =   1
                l(4) =   1
     Q(r) pseudized with 0 coefficients 


     PseudoPot. # 3 for C  read from file:
     /home/yongsang/Research/PSID_server_room/qe/[00]QE/qepseudo/SSSP_1.3.0_PBE_efficiency/C.pbe-n-kjpaw_psl.1.0.0.UPF
     MD5 check sum: 5d2aebdfa2cae82b50a7e79e9516da0f
     Pseudo is Projector augmented-wave + core cor, Zval =  4.0
     Generated using "atomic" code by A. Dal Corso  v.5.1
     Shape of augmentation charge: PSQ
     Using radial grid of 1073 points,  4 beta functions with: 
                l(1) =   0
                l(2) =   0
                l(3) =   1
                l(4) =   1
     Q(r) pseudized with 0 coefficients 


     PseudoPot. # 4 for H  read from file:
     /home/yongsang/Research/PSID_server_room/qe/[00]QE/qepseudo/SSSP_1.3.0_PBE_efficiency/H.pbe-rrkjus_psl.1.0.0.UPF
     MD5 check sum: f52b6d4d1c606e5624b1dc7b2218f220
     Pseudo is Ultrasoft, Zval =  1.0
     Generated using "atomic" code by A. Dal Corso  v.5.1
     Using radial grid of  929 points,  2 beta functions with: 
                l(1) =   0
                l(2) =   0
     Q(r) pseudized with 0 coefficients 


     atomic species   valence    mass     pseudopotential
     Zn               20.00    65.38000     Zn( 1.00)
     N                 5.00    14.00674     N ( 1.00)
     C                 4.00    12.01070     C ( 1.00)
     H                 1.00     1.00794     H ( 1.00)

     No symmetry found


                                    s                        frac. trans.

      isym =  1     identity                                     

 cryst.   s( 1) = (     1          0          0      )
                  (     0          1          0      )
                  (     0          0          1      )

 cart.    s( 1) = (  1.0000000  0.0000000  0.0000000 )
                  (  0.0000000  1.0000000  0.0000000 )
                  (  0.0000000  0.0000000  1.0000000 )


   Cartesian axes

     site n.     atom                  positions (alat units)
         1        Zn     tau(   1) = (   0.0000000   0.1443375   0.1164998  )
         2        Zn     tau(   2) = (   0.5000000   0.1443375   0.1164998  )
         3        Zn     tau(   3) = (   0.0000471   0.1446681   0.5705620  )
         4        Zn     tau(   4) = (   0.5004439   0.1444067   0.5692694  )
         5        Zn     tau(   5) = (  -0.1250000   0.3608439   0.1164998  )
         6        Zn     tau(   6) = (   0.3750000   0.3608439   0.1164998  )
         7        Zn     tau(   7) = (  -0.1247790   0.3608079   0.5696384  )
         8        Zn     tau(   8) = (   0.3753555   0.3608588   0.5711505  )
         9        Zn     tau(   9) = (  -0.2500000   0.5773502   0.1164998  )
        10        Zn     tau(  10) = (   0.2500000   0.5773502   0.1164998  )
        11        Zn     tau(  11) = (  -0.2498267   0.5774963   0.5691692  )
        12        Zn     tau(  12) = (   0.2501722   0.5777682   0.5709803  )
        13        Zn     tau(  13) = (  -0.3750000   0.7938567   0.1164998  )
        14        Zn     tau(  14) = (   0.1250000   0.7938567   0.1164998  )
        15        Zn     tau(  15) = (  -0.3748071   0.7939567   0.5693896  )
        16        Zn     tau(  16) = (   0.1251931   0.7942314   0.5691715  )
        17        Zn     tau(  17) = (   0.2500000   0.1443375   0.1164998  )
        18        Zn     tau(  18) = (   0.7500000   0.1443375   0.1164998  )
        19        Zn     tau(  19) = (   0.2499947   0.1441915   0.5687195  )
        20        Zn     tau(  20) = (   0.7502410   0.1445260   0.5694385  )
        21        Zn     tau(  21) = (   0.1250000   0.3608439   0.1164998  )
        22        Zn     tau(  22) = (   0.6250000   0.3608439   0.1164998  )
        23        Zn     tau(  23) = (   0.1256537   0.3615004   0.5699865  )
        24        Zn     tau(  24) = (   0.6254843   0.3612896   0.5689846  )
        25        Zn     tau(  25) = (   0.0000000   0.5773502   0.1164998  )
        26        Zn     tau(  26) = (   0.5000000   0.5773502   0.1164998  )
        27        Zn     tau(  27) = (  -0.0001682   0.5773809   0.5694833  )
        28        Zn     tau(  28) = (   0.5005384   0.5776428   0.5691814  )
        29        Zn     tau(  29) = (  -0.1250000   0.7938567   0.1164998  )
        30        Zn     tau(  30) = (   0.3750000   0.7938567   0.1164998  )
        31        Zn     tau(  31) = (  -0.1245891   0.7940565   0.5689817  )
        32        Zn     tau(  32) = (   0.3754471   0.7941272   0.5690108  )
        33        Zn     tau(  33) = (   0.1249882   0.0722090   0.3431001  )
        34        Zn     tau(  34) = (   0.6253088   0.0724251   0.3425817  )
        35        Zn     tau(  35) = (   0.0002153   0.2887856   0.3428370  )
        36        Zn     tau(  36) = (   0.4999055   0.2887786   0.3428743  )
        37        Zn     tau(  37) = (  -0.1250180   0.5052081   0.3433545  )
        38        Zn     tau(  38) = (   0.3751941   0.5052993   0.3430727  )
        39        Zn     tau(  39) = (  -0.2500298   0.7217586   0.3426313  )
        40        Zn     tau(  40) = (   0.2501273   0.7216433   0.3430042  )
        41        Zn     tau(  41) = (   0.3749031   0.0722995   0.3425499  )
        42        Zn     tau(  42) = (   0.8752714   0.0723542   0.3431785  )
        43        Zn     tau(  43) = (   0.2501284   0.2888928   0.3432013  )
        44        Zn     tau(  44) = (   0.7502095   0.2888673   0.3432448  )
        45        Zn     tau(  45) = (   0.1251763   0.5052071   0.3433490  )
        46        Zn     tau(  46) = (   0.6250335   0.5052394   0.3426376  )
        47        Zn     tau(  47) = (   0.0000371   0.7215809   0.3427633  )
        48        Zn     tau(  48) = (   0.5000676   0.7217124   0.3425847  )
        49        C      tau(  49) = (   0.1018705   0.3319520   1.4378334  )
        50        C      tau(  50) = (   0.0290434   0.4224633   1.0905915  )
        51        C      tau(  51) = (   0.1707403   0.2419527   1.2236641  )
        52        C      tau(  52) = (   0.1009125   0.3329366   1.0214050  )
        53        C      tau(  53) = (   0.0998341   0.3315847   1.2936896  )
        54        C      tau(  54) = (   0.1719682   0.2422558   1.0904187  )
        55        C      tau(  55) = (   0.0287174   0.4210489   1.2241078  )
        56        N      tau(  56) = (   0.1049604   0.3360282   0.8869579  )
        57        H      tau(  57) = (   0.1997123   0.3461251   1.4739862  )
        58        H      tau(  58) = (  -0.0276570   0.4935647   1.0392058  )
        59        H      tau(  59) = (   0.2258942   0.1692429   1.2745604  )
        60        H      tau(  60) = (   0.0420454   0.4093177   1.4761106  )
        61        H      tau(  61) = (   0.1256683   0.2505381   0.8453361  )
        62        H      tau(  62) = (   0.0264529   0.3753887   0.8450184  )
        63        H      tau(  63) = (   0.2284571   0.1710653   1.0389062  )
        64        H      tau(  64) = (  -0.0294291   0.4912106   1.2752523  )
        65        H      tau(  65) = (   0.0668193   0.2412258   1.4781545  )

     --------------------------------------------
     DFT-D3 Dispersion Correction (3-body terms):
     --------------------------------------------
       Reference C6 values for interpolation: 

         atom   Coordination number   C6
         H          0.912             6.05
         H          0.000            15.18
         C          0.000            98.23
         C          0.987            86.49
         C          1.998            58.72
         C          2.999            51.56
         C          3.984            36.41
         N          0.000            50.54
         N          0.994            44.25
         N          2.014            39.35
         N          2.990            31.16
         Zn         0.000           681.04
         Zn         1.942           306.91

       Values used:

         atom   Coordination number  R0_AB[au]  C6      C8
         Zn         7.164            3.053    306.91  23930.67
         Zn         7.173            3.053    306.91  23930.67
         Zn         7.129            3.053    306.91  23930.67
         Zn         7.157            3.053    306.91  23930.67
         Zn         7.159            3.053    306.91  23930.67
         Zn         7.164            3.053    306.91  23930.67
         Zn         7.171            3.053    306.91  23930.67
         Zn         7.097            3.053    306.91  23930.67
         Zn         7.168            3.053    306.91  23930.67
         Zn         7.159            3.053    306.91  23930.67
         Zn         7.179            3.053    306.91  23930.67
         Zn         7.108            3.053    306.91  23930.67
         Zn         7.173            3.053    306.91  23930.67
         Zn         7.168            3.053    306.91  23930.67
         Zn         7.164            3.053    306.91  23930.67
         Zn         7.165            3.053    306.91  23930.67
         Zn         7.165            3.053    306.91  23930.67
         Zn         7.164            3.053    306.91  23930.67
         Zn         7.187            3.053    306.91  23930.67
         Zn         7.172            3.053    306.91  23930.67
         Zn         7.160            3.053    306.91  23930.67
         Zn         7.165            3.053    306.91  23930.67
         Zn         7.163            3.053    306.91  23930.67
         Zn         7.181            3.053    306.91  23930.67
         Zn         7.158            3.053    306.91  23930.67
         Zn         7.174            3.053    306.91  23930.67
         Zn         7.170            3.053    306.91  23930.67
         Zn         7.170            3.053    306.91  23930.67
         Zn         7.174            3.053    306.91  23930.67
         Zn         7.165            3.053    306.91  23930.67
         Zn         7.170            3.053    306.91  23930.67
         Zn         7.179            3.053    306.91  23930.67
         Zn         9.144            3.053    306.91  23930.67
         Zn         9.146            3.053    306.91  23930.67
         Zn         9.123            3.053    306.91  23930.67
         Zn         9.130            3.053    306.91  23930.67
         Zn         9.148            3.053    306.91  23930.67
         Zn         9.109            3.053    306.91  23930.67
         Zn         9.154            3.053    306.91  23930.67
         Zn         9.131            3.053    306.91  23930.67
         Zn         9.155            3.053    306.91  23930.67
         Zn         9.139            3.053    306.91  23930.67
         Zn         9.127            3.053    306.91  23930.67
         Zn         9.150            3.053    306.91  23930.67
         Zn         9.122            3.053    306.91  23930.67
         Zn         9.163            3.053    306.91  23930.67
         Zn         9.146            3.053    306.91  23930.67
         Zn         9.159            3.053    306.91  23930.67
         C          4.038            2.750     36.59   1058.25
         C          3.163            2.750     50.42   1458.31
         C          3.166            2.750     50.39   1457.44
         C          3.143            2.750     50.59   1463.18
         C          3.130            2.750     50.69   1466.02
         C          3.163            2.750     50.42   1458.24
         C          3.166            2.750     50.40   1457.65
         N          3.087            2.478     31.24    689.23
         H          0.998            2.062      6.18     74.75
         H          1.003            2.062      6.18     74.68
         H          1.003            2.062      6.18     74.68
         H          0.998            2.062      6.18     74.74
         H          1.011            2.062      6.17     74.60
         H          1.011            2.062      6.17     74.60
         H          1.003            2.062      6.18     74.68
         H          1.003            2.062      6.18     74.68
         H          0.997            2.062      6.18     74.75

         Molecular C6 ( Ry / a.u.^6 ) =    839472.45


   Crystallographic axes

     site n.     atom                  positions (cryst. coord.)
         1        Zn     tau(   1) = (  0.0833333  0.1666666  0.0513044  )
         2        Zn     tau(   2) = (  0.5833333  0.1666666  0.0513044  )
         3        Zn     tau(   3) = (  0.0835712  0.1670483  0.2512649  )
         4        Zn     tau(   4) = (  0.5838172  0.1667465  0.2506957  )
         5        Zn     tau(   5) = (  0.0833333  0.4166666  0.0513044  )
         6        Zn     tau(   6) = (  0.5833333  0.4166666  0.0513044  )
         7        Zn     tau(   7) = (  0.0835335  0.4166250  0.2508582  )
         8        Zn     tau(   8) = (  0.5836975  0.4166839  0.2515241  )
         9        Zn     tau(   9) = (  0.0833333  0.6666666  0.0513044  )
        10        Zn     tau(  10) = (  0.5833333  0.6666666  0.0513044  )
        11        Zn     tau(  11) = (  0.0835909  0.6668353  0.2506515  )
        12        Zn     tau(  12) = (  0.5837468  0.6671493  0.2514491  )
        13        Zn     tau(  13) = (  0.0833333  0.9166667  0.0513044  )
        14        Zn     tau(  14) = (  0.5833334  0.9166667  0.0513044  )
        15        Zn     tau(  15) = (  0.0835840  0.9167823  0.2507486  )
        16        Zn     tau(  16) = (  0.5837428  0.9170994  0.2506525  )
        17        Zn     tau(  17) = (  0.3333333  0.1666666  0.0513044  )
        18        Zn     tau(  18) = (  0.8333334  0.1666666  0.0513044  )
        19        Zn     tau(  19) = (  0.3332437  0.1664980  0.2504535  )
        20        Zn     tau(  20) = (  0.8336831  0.1668842  0.2507701  )
        21        Zn     tau(  21) = (  0.3333333  0.4166666  0.0513044  )
        22        Zn     tau(  22) = (  0.8333333  0.4166666  0.0513044  )
        23        Zn     tau(  23) = (  0.3343661  0.4174247  0.2510115  )
        24        Zn     tau(  24) = (  0.8340750  0.4171812  0.2505702  )
        25        Zn     tau(  25) = (  0.3333333  0.6666666  0.0513044  )
        26        Zn     tau(  26) = (  0.8333333  0.6666666  0.0513044  )
        27        Zn     tau(  27) = (  0.3331828  0.6667020  0.2507899  )
        28        Zn     tau(  28) = (  0.8340406  0.6670045  0.2506569  )
        29        Zn     tau(  29) = (  0.3333334  0.9166667  0.0513044  )
        30        Zn     tau(  30) = (  0.8333334  0.9166667  0.0513044  )
        31        Zn     tau(  31) = (  0.3338596  0.9168975  0.2505690  )
        32        Zn     tau(  32) = (  0.8339367  0.9169791  0.2505818  )
        33        Zn     tau(  33) = (  0.1666781  0.0833798  0.1510949  )
        34        Zn     tau(  34) = (  0.6671235  0.0836293  0.1508666  )
        35        Zn     tau(  35) = (  0.1669458  0.3334609  0.1509790  )
        36        Zn     tau(  36) = (  0.6666319  0.3334528  0.1509955  )
        37        Zn     tau(  37) = (  0.1666641  0.5833641  0.1512069  )
        38        Zn     tau(  38) = (  0.6669288  0.5834694  0.1510828  )
        39        Zn     tau(  39) = (  0.1666777  0.8334150  0.1508885  )
        40        Zn     tau(  40) = (  0.6667682  0.8332820  0.1510527  )
        41        Zn     tau(  41) = (  0.4166453  0.0834843  0.1508526  )
        42        Zn     tau(  42) = (  0.9170451  0.0835474  0.1511294  )
        43        Zn     tau(  43) = (  0.4169208  0.3335847  0.1511395  )
        44        Zn     tau(  44) = (  0.9169871  0.3335552  0.1511586  )
        45        Zn     tau(  45) = (  0.4168577  0.5833629  0.1512045  )
        46        Zn     tau(  46) = (  0.9167336  0.5834002  0.1508912  )
        47        Zn     tau(  47) = (  0.4166421  0.8332099  0.1509466  )
        48        Zn     tau(  48) = (  0.9167484  0.8333617  0.1508679  )
        49        C      tau(  49) = (  0.2935230  0.3833051  0.6331951  )
        50        C      tau(  50) = (  0.2729527  0.4878186  0.4802762  )
        51        C      tau(  51) = (  0.3104317  0.2793829  0.5388789  )
        52        C      tau(  52) = (  0.2931335  0.3844420  0.4498078  )
        53        C      tau(  53) = (  0.2912747  0.3828810  0.5697169  )
        54        C      tau(  54) = (  0.3118346  0.2797329  0.4802002  )
        55        C      tau(  55) = (  0.2718102  0.4861854  0.5390743  )
        56        N      tau(  56) = (  0.2989663  0.3880119  0.3905998  )
        57        H      tau(  57) = (  0.3995477  0.3996708  0.6491162  )
        58        H      tau(  58) = (  0.2573027  0.5699194  0.4576469  )
        59        H      tau(  59) = (  0.3236066  0.1954249  0.5612927  )
        60        H      tau(  60) = (  0.2783650  0.4726393  0.6500517  )
        61        H      tau(  61) = (  0.2703165  0.2892965  0.3722703  )
        62        H      tau(  62) = (  0.2431837  0.4334616  0.3721304  )
        63        H      tau(  63) = (  0.3272217  0.1975292  0.4575150  )
        64        H      tau(  64) = (  0.2541715  0.5672011  0.5615974  )
        65        H      tau(  65) = (  0.2060910  0.2785435  0.6509518  )

     number of k points=     5  Marzari-Vanderbilt smearing, width (Ry)=  0.0200
                       cart. coord. in units 2pi/alat
        k(    1) = (   0.0000000   0.0000000   0.0000000), wk =   0.2222222
        k(    2) = (   0.0000000   0.3849002   0.0000000), wk =   0.4444444
        k(    3) = (   0.3333333   0.1924501   0.0000000), wk =   0.4444444
        k(    4) = (   0.3333333   0.5773503   0.0000000), wk =   0.4444444
        k(    5) = (   0.3333333  -0.1924501   0.0000000), wk =   0.4444444

                       cryst. coord.
        k(    1) = (   0.0000000   0.0000000   0.0000000), wk =   0.2222222
        k(    2) = (   0.0000000   0.3333333   0.0000000), wk =   0.4444444
        k(    3) = (   0.3333333   0.0000000   0.0000000), wk =   0.4444444
        k(    4) = (   0.3333333   0.3333333   0.0000000), wk =   0.4444444
        k(    5) = (   0.3333333  -0.3333333   0.0000000), wk =   0.4444444

     Dense  grid:  1201061 G-vectors     FFT dimensions: ( 108, 108, 240)

     Smooth grid:   518755 G-vectors     FFT dimensions: (  80,  80, 192)

     Dynamical RAM for                 wfc:      19.18 MB

     Dynamical RAM for     wfc (w. buffer):     115.05 MB

     Dynamical RAM for           str. fact:       2.36 MB

     Dynamical RAM for           local pot:       0.00 MB

     Dynamical RAM for          nlocal pot:      30.18 MB

     Dynamical RAM for                qrad:       5.37 MB

     Dynamical RAM for          rho,v,vnew:       3.91 MB

     Dynamical RAM for               rhoin:       1.30 MB

     Dynamical RAM for            rho*nmix:       9.46 MB

     Dynamical RAM for           G-vectors:       2.34 MB

     Dynamical RAM for          h,s,v(r/c):       2.64 MB

     Dynamical RAM for          <psi|beta>:       8.68 MB

     Dynamical RAM for                 psi:      38.35 MB

     Dynamical RAM for                hpsi:      38.35 MB

     Dynamical RAM for                spsi:      38.35 MB

     Dynamical RAM for      wfcinit/wfcrot:      52.56 MB

     Dynamical RAM for           addusdens:     138.34 MB

     Dynamical RAM for          addusforce:     194.40 MB

     Dynamical RAM for         addusstress:     118.83 MB

     Estimated static dynamical RAM per process >     167.05 MB

     Estimated max dynamical RAM per process >     370.91 MB

     Estimated total dynamical RAM >      11.23 GB

     Initial potential from superposition of free atoms

     starting charge    1001.9928, renormalised to    1002.0000

     negative rho (up, down):  1.776E-03 0.000E+00
     Starting wfcs are  665 randomized atomic wfcs
[ga01:4106208] 25 more processes have sent help message help-mpi-btl-openib.txt / error in device init
[ga01:4106208] Set MCA parameter "orte_base_help_aggregate" to 0 to see all help / error messages
[ga01:4106208] 4 more processes have sent help message help-mpi-btl-openib.txt / no active ports found
     Checking if some PAW data can be deallocated... 
       PAW data deallocated on   27 nodes for type:  3

     total cpu time spent up to now is       26.8 secs

     Self-consistent Calculation

     iteration #  1     ecut=    40.00 Ry     beta= 0.40
     Davidson diagonalization with overlap

---- Real-time Memory Report at c_bands before calling an iterative solver
           408 MiB given to the printing process from OS
             0 MiB allocation reported by mallinfo(arena+hblkhd)
        170324 MiB available memory on the node where the printing process lives
------------------
     ethr =  1.00E-02,  avg # of iterations =  8.0

     negative rho (up, down):  2.318E-03 0.000E+00

     total cpu time spent up to now is      132.9 secs

     total energy              =  -22308.90989842 Ry
     estimated scf accuracy    <      12.70265730 Ry

     iteration #  2     ecut=    40.00 Ry     beta= 0.40
     Davidson diagonalization with overlap

---- Real-time Memory Report at c_bands before calling an iterative solver
           513 MiB given to the printing process from OS
             0 MiB allocation reported by mallinfo(arena+hblkhd)
        169157 MiB available memory on the node where the printing process lives
------------------
     ethr =  1.27E-03,  avg # of iterations = 11.6

     negative rho (up, down):  3.363E-03 0.000E+00

     total cpu time spent up to now is      247.0 secs

     total energy              =  -22291.21603746 Ry
     estimated scf accuracy    <     385.56226525 Ry

     iteration #  3     ecut=    40.00 Ry     beta= 0.40
     Davidson diagonalization with overlap

---- Real-time Memory Report at c_bands before calling an iterative solver
           532 MiB given to the printing process from OS
             0 MiB allocation reported by mallinfo(arena+hblkhd)
        169134 MiB available memory on the node where the printing process lives
------------------
     ethr =  1.27E-03,  avg # of iterations =  8.0

     negative rho (up, down):  3.179E-03 0.000E+00

     total cpu time spent up to now is      382.1 secs

     total energy              =  -22314.13957752 Ry
     estimated scf accuracy    <       7.30834064 Ry

     iteration #  4     ecut=    40.00 Ry     beta= 0.40
     Davidson diagonalization with overlap

---- Real-time Memory Report at c_bands before calling an iterative solver
           533 MiB given to the printing process from OS
             0 MiB allocation reported by mallinfo(arena+hblkhd)
        169108 MiB available memory on the node where the printing process lives
------------------
     ethr =  7.29E-04,  avg # of iterations =  5.4

     negative rho (up, down):  3.157E-03 0.000E+00

     total cpu time spent up to now is      469.7 secs

     total energy              =  -22314.65871610 Ry
     estimated scf accuracy    <       5.01531025 Ry

     iteration #  5     ecut=    40.00 Ry     beta= 0.40
     Davidson diagonalization with overlap

---- Real-time Memory Report at c_bands before calling an iterative solver
           534 MiB given to the printing process from OS
             0 MiB allocation reported by mallinfo(arena+hblkhd)
        169077 MiB available memory on the node where the printing process lives
------------------
     ethr =  5.01E-04,  avg # of iterations =  2.8

     negative rho (up, down):  3.356E-03 0.000E+00

     total cpu time spent up to now is      551.1 secs

     total energy              =  -22314.98819514 Ry
     estimated scf accuracy    <       0.34032766 Ry

     iteration #  6     ecut=    40.00 Ry     beta= 0.40
     Davidson diagonalization with overlap

---- Real-time Memory Report at c_bands before calling an iterative solver
           539 MiB given to the printing process from OS
             0 MiB allocation reported by mallinfo(arena+hblkhd)
        169056 MiB available memory on the node where the printing process lives
------------------
     ethr =  3.40E-05,  avg # of iterations = 10.6

     negative rho (up, down):  3.649E-03 0.000E+00

     total cpu time spent up to now is      651.0 secs

     total energy              =  -22314.98263584 Ry
     estimated scf accuracy    <       0.18902399 Ry

     iteration #  7     ecut=    40.00 Ry     beta= 0.40
     Davidson diagonalization with overlap

---- Real-time Memory Report at c_bands before calling an iterative solver
           539 MiB given to the printing process from OS
             0 MiB allocation reported by mallinfo(arena+hblkhd)
        169031 MiB available memory on the node where the printing process lives
------------------
     ethr =  1.89E-05,  avg # of iterations =  5.0

     negative rho (up, down):  3.776E-03 0.000E+00

     total cpu time spent up to now is      735.7 secs

     total energy              =  -22314.98280373 Ry
     estimated scf accuracy    <       0.06679610 Ry

     iteration #  8     ecut=    40.00 Ry     beta= 0.40
     Davidson diagonalization with overlap

---- Real-time Memory Report at c_bands before calling an iterative solver
           540 MiB given to the printing process from OS
             0 MiB allocation reported by mallinfo(arena+hblkhd)
        169009 MiB available memory on the node where the printing process lives
------------------
     c_bands:  1 eigenvalues not converged
     c_bands:  1 eigenvalues not converged
     ethr =  6.67E-06,  avg # of iterations = 16.2

     negative rho (up, down):  3.822E-03 0.000E+00

     total cpu time spent up to now is      836.4 secs

     total energy              =  -22314.97998471 Ry
     estimated scf accuracy    <       0.05001004 Ry

     iteration #  9     ecut=    40.00 Ry     beta= 0.40
     Davidson diagonalization with overlap

---- Real-time Memory Report at c_bands before calling an iterative solver
           547 MiB given to the printing process from OS
             0 MiB allocation reported by mallinfo(arena+hblkhd)
        168978 MiB available memory on the node where the printing process lives
------------------
     c_bands:  1 eigenvalues not converged
     ethr =  4.99E-06,  avg # of iterations =  8.0

     negative rho (up, down):  3.860E-03 0.000E+00

     total cpu time spent up to now is      922.3 secs

     total energy              =  -22314.97633264 Ry
     estimated scf accuracy    <       0.04169235 Ry

     iteration # 10     ecut=    40.00 Ry     beta= 0.40
     Davidson diagonalization with overlap

---- Real-time Memory Report at c_bands before calling an iterative solver
           547 MiB given to the printing process from OS
             0 MiB allocation reported by mallinfo(arena+hblkhd)
        168952 MiB available memory on the node where the printing process lives
------------------
     c_bands:  2 eigenvalues not converged
     ethr =  4.16E-06,  avg # of iterations = 14.0

     negative rho (up, down):  3.900E-03 0.000E+00

     total cpu time spent up to now is     1017.8 secs

     total energy              =  -22314.96911712 Ry
     estimated scf accuracy    <       0.03380330 Ry

     iteration # 11     ecut=    40.00 Ry     beta= 0.40
     Davidson diagonalization with overlap

---- Real-time Memory Report at c_bands before calling an iterative solver
           548 MiB given to the printing process from OS
             0 MiB allocation reported by mallinfo(arena+hblkhd)
        168951 MiB available memory on the node where the printing process lives
------------------
     c_bands:  2 eigenvalues not converged
     c_bands:  1 eigenvalues not converged
     c_bands:  4 eigenvalues not converged
     ethr =  3.37E-06,  avg # of iterations = 17.4

     negative rho (up, down):  4.001E-03 0.000E+00

     total cpu time spent up to now is     1122.2 secs

     total energy              =  -22314.95427160 Ry
     estimated scf accuracy    <       0.02086404 Ry

     iteration # 12     ecut=    40.00 Ry     beta= 0.40
     Davidson diagonalization with overlap

---- Real-time Memory Report at c_bands before calling an iterative solver
           548 MiB given to the printing process from OS
             0 MiB allocation reported by mallinfo(arena+hblkhd)
        168949 MiB available memory on the node where the printing process lives
------------------
     ethr =  2.08E-06,  avg # of iterations = 18.4

     negative rho (up, down):  4.001E-03 0.000E+00

     total cpu time spent up to now is     1252.8 secs

     total energy              =  -22314.95562346 Ry
     estimated scf accuracy    <       0.00311627 Ry

     iteration # 13     ecut=    40.00 Ry     beta= 0.40
     Davidson diagonalization with overlap

---- Real-time Memory Report at c_bands before calling an iterative solver
           548 MiB given to the printing process from OS
             0 MiB allocation reported by mallinfo(arena+hblkhd)
        168937 MiB available memory on the node where the printing process lives
------------------
     c_bands:  1 eigenvalues not converged
     c_bands:  1 eigenvalues not converged
     ethr =  3.11E-07,  avg # of iterations = 17.2

     negative rho (up, down):  3.956E-03 0.000E+00

     total cpu time spent up to now is     1358.1 secs

     total energy              =  -22314.95431097 Ry
     estimated scf accuracy    <       0.00980735 Ry

     iteration # 14     ecut=    40.00 Ry     beta= 0.40
     Davidson diagonalization with overlap

---- Real-time Memory Report at c_bands before calling an iterative solver
           548 MiB given to the printing process from OS
             0 MiB allocation reported by mallinfo(arena+hblkhd)
        168937 MiB available memory on the node where the printing process lives
------------------
     c_bands:  1 eigenvalues not converged
     c_bands:  1 eigenvalues not converged
     ethr =  3.11E-07,  avg # of iterations = 16.0

     negative rho (up, down):  3.949E-03 0.000E+00

     total cpu time spent up to now is     1456.9 secs

     total energy              =  -22314.95572255 Ry
     estimated scf accuracy    <       0.00340017 Ry

     iteration # 15     ecut=    40.00 Ry     beta= 0.40
     Davidson diagonalization with overlap

---- Real-time Memory Report at c_bands before calling an iterative solver
           548 MiB given to the printing process from OS
             0 MiB allocation reported by mallinfo(arena+hblkhd)
        168934 MiB available memory on the node where the printing process lives
------------------
     ethr =  3.11E-07,  avg # of iterations =  4.8

     negative rho (up, down):  3.943E-03 0.000E+00

     total cpu time spent up to now is     1538.7 secs

     total energy              =  -22314.95593222 Ry
     estimated scf accuracy    <       0.00034596 Ry

     iteration # 16     ecut=    40.00 Ry     beta= 0.40
     Davidson diagonalization with overlap

---- Real-time Memory Report at c_bands before calling an iterative solver
           548 MiB given to the printing process from OS
             0 MiB allocation reported by mallinfo(arena+hblkhd)
        168927 MiB available memory on the node where the printing process lives
------------------
     ethr =  3.45E-08,  avg # of iterations =  2.6

     negative rho (up, down):  3.934E-03 0.000E+00

     total cpu time spent up to now is     1618.1 secs

     total energy              =  -22314.95589753 Ry
     estimated scf accuracy    <       0.00045816 Ry

     iteration # 17     ecut=    40.00 Ry     beta= 0.40
     Davidson diagonalization with overlap

---- Real-time Memory Report at c_bands before calling an iterative solver
           548 MiB given to the printing process from OS
             0 MiB allocation reported by mallinfo(arena+hblkhd)
        168922 MiB available memory on the node where the printing process lives
------------------
     ethr =  3.45E-08,  avg # of iterations =  2.0

     negative rho (up, down):  3.931E-03 0.000E+00

     total cpu time spent up to now is     1696.6 secs

     total energy              =  -22314.95595912 Ry
     estimated scf accuracy    <       0.00020457 Ry

     iteration # 18     ecut=    40.00 Ry     beta= 0.40
     Davidson diagonalization with overlap

---- Real-time Memory Report at c_bands before calling an iterative solver
           548 MiB given to the printing process from OS
             0 MiB allocation reported by mallinfo(arena+hblkhd)
        168921 MiB available memory on the node where the printing process lives
------------------
     ethr =  2.04E-08,  avg # of iterations =  1.2

     negative rho (up, down):  3.928E-03 0.000E+00

     total cpu time spent up to now is     1763.6 secs

     total energy              =  -22314.95596284 Ry
     estimated scf accuracy    <       0.00001524 Ry

     iteration # 19     ecut=    40.00 Ry     beta= 0.40
     Davidson diagonalization with overlap

---- Real-time Memory Report at c_bands before calling an iterative solver
           548 MiB given to the printing process from OS
             0 MiB allocation reported by mallinfo(arena+hblkhd)
        168921 MiB available memory on the node where the printing process lives
------------------
     ethr =  1.52E-09,  avg # of iterations =  2.0

     negative rho (up, down):  3.927E-03 0.000E+00

     total cpu time spent up to now is     1842.3 secs

     total energy              =  -22314.95596304 Ry
     estimated scf accuracy    <       0.00002253 Ry

     iteration # 20     ecut=    40.00 Ry     beta= 0.40
     Davidson diagonalization with overlap

---- Real-time Memory Report at c_bands before calling an iterative solver
           548 MiB given to the printing process from OS
             0 MiB allocation reported by mallinfo(arena+hblkhd)
        168920 MiB available memory on the node where the printing process lives
------------------
     ethr =  1.52E-09,  avg # of iterations =  2.0

     negative rho (up, down):  3.926E-03 0.000E+00

     total cpu time spent up to now is     1920.7 secs

     total energy              =  -22314.95596594 Ry
     estimated scf accuracy    <       0.00000688 Ry

     iteration # 21     ecut=    40.00 Ry     beta= 0.40
     Davidson diagonalization with overlap

---- Real-time Memory Report at c_bands before calling an iterative solver
           548 MiB given to the printing process from OS
             0 MiB allocation reported by mallinfo(arena+hblkhd)
        168912 MiB available memory on the node where the printing process lives
------------------
     ethr =  6.86E-10,  avg # of iterations =  1.2

     negative rho (up, down):  3.926E-03 0.000E+00

     total cpu time spent up to now is     1987.7 secs

     total energy              =  -22314.95596572 Ry
     estimated scf accuracy    <       0.00000252 Ry

     iteration # 22     ecut=    40.00 Ry     beta= 0.40
     Davidson diagonalization with overlap

---- Real-time Memory Report at c_bands before calling an iterative solver
           548 MiB given to the printing process from OS
             0 MiB allocation reported by mallinfo(arena+hblkhd)
        168906 MiB available memory on the node where the printing process lives
------------------
     ethr =  2.51E-10,  avg # of iterations =  1.0

     negative rho (up, down):  3.926E-03 0.000E+00

     total cpu time spent up to now is     2051.8 secs

     End of self-consistent calculation

          k = 0.0000 0.0000 0.0000 ( 64855 PWs)   bands (ev):

  -125.0449-125.0433-125.0424-125.0423-125.0416-125.0416-125.0410-125.0404
  -125.0395-125.0388-125.0388-125.0380-125.0375-125.0371-125.0363-125.0353
  -124.7181-124.7152-124.7118-124.7109-124.7101-124.7098-124.7093-124.7088
  -124.7088-124.7086-124.7086-124.7081-124.7079-124.7077-124.7077-124.7074
  -124.7069-124.7065-124.7064-124.7063-124.7063-124.7060-124.7057-124.7057
  -124.7055-124.7052-124.7047-124.7042-124.7035-124.7034-124.6890-124.6882
   -79.2142 -79.2139 -79.2138 -79.2079 -79.2077 -79.2069 -79.2064 -79.2063
   -79.2058 -79.1966 -79.1963 -79.1958 -79.1955 -79.1951 -79.1944 -79.1943
   -79.1941 -79.1938 -79.1932 -79.1925 -79.1918 -79.1871 -79.1867 -79.1861
   -79.1839 -79.1828 -79.1823 -79.1821 -79.1820 -79.1816 -79.1812 -79.1811
   -79.1810 -79.1805 -79.1803 -79.1802 -79.1796 -79.1790 -79.1782 -79.1776
   -79.1776 -79.1767 -79.1766 -79.1764 -79.1761 -79.1758 -79.1749 -79.1740
   -78.8761 -78.8752 -78.8743 -78.8738 -78.8732 -78.8732 -78.8729 -78.8712
   -78.8702 -78.8687 -78.8675 -78.8672 -78.8669 -78.8668 -78.8668 -78.8666
   -78.8666 -78.8663 -78.8661 -78.8660 -78.8656 -78.8655 -78.8655 -78.8649
   -78.8643 -78.8642 -78.8641 -78.8640 -78.8636 -78.8634 -78.8631 -78.8630
   -78.8628 -78.8627 -78.8622 -78.8618 -78.8618 -78.8616 -78.8615 -78.8614
   -78.8612 -78.8610 -78.8608 -78.8605 -78.8600 -78.8595 -78.8587 -78.8587
   -78.8586 -78.8575 -78.8563 -78.8559 -78.8556 -78.8554 -78.8552 -78.8551
   -78.8551 -78.8549 -78.8546 -78.8546 -78.8546 -78.8541 -78.8535 -78.8534
   -78.8533 -78.8532 -78.8529 -78.8527 -78.8526 -78.8515 -78.8501 -78.8485
   -78.8481 -78.8466 -78.8465 -78.8464 -78.8460 -78.8448 -78.8441 -78.8439
   -78.8435 -78.8421 -78.8421 -78.8420 -78.8418 -78.8417 -78.8416 -78.8411
   -78.8402 -78.8397 -78.8370 -78.8369 -78.8362 -78.8321 -78.8299 -78.8267
   -16.5409 -14.4744 -12.2981 -11.9097 -10.2122  -8.6852  -8.6805  -7.9143
    -7.2809  -7.1186  -7.1179  -7.1162  -7.1122  -7.1115  -7.1090  -7.0131
    -6.9118  -6.9114  -6.9110  -6.6813  -6.6809  -6.6807  -6.5607  -6.5599
    -6.5588  -6.5405  -6.5400  -6.5395  -6.5388  -6.5375  -6.5362  -6.4743
    -6.4740  -6.4729  -6.4727  -6.4721  -6.4710  -6.4696  -6.4661  -6.4652
    -6.4641  -6.4625  -6.4606  -6.4281  -6.4278  -6.4275  -6.4250  -6.4242
    -6.4236  -6.4227  -6.4223  -6.4219  -6.4092  -6.2896  -6.2877  -6.2873
    -6.2868  -6.2841  -6.2817  -6.2383  -6.2355  -6.2347  -6.1948  -6.1946
    -6.1941  -6.1932  -6.1925  -6.1919  -6.1799  -6.1614  -6.1177  -6.1170
    -6.1170  -6.1167  -6.1165  -6.1160  -6.1153  -6.1149  -6.1145  -6.1144
    -6.1141  -6.1134  -6.1079  -6.1078  -6.0878  -6.0877  -6.0864  -6.0863
    -6.0854  -6.0853  -6.0526  -6.0521  -6.0513  -6.0506  -6.0505  -6.0499
    -5.9919  -5.9913  -5.9904  -5.9890  -5.9883  -5.9875  -5.9563  -5.9562
    -5.9558  -5.8880  -5.8879  -5.8869  -5.8867  -5.8864  -5.8856  -5.8084
    -5.8083  -5.8079  -5.7867  -5.7867  -5.7450  -5.7449  -5.7391  -5.7388
    -5.7385  -5.7376  -5.7357  -5.7353  -5.7238  -5.7227  -5.7220  -5.7216
    -5.7211  -5.7208  -5.7200  -5.7197  -5.7191  -5.7188  -5.7177  -5.7173
    -5.7127  -5.7120  -5.7114  -5.7105  -5.7102  -5.7092  -5.6436  -5.6428
    -5.6424  -5.6423  -5.6409  -5.6405  -5.6329  -5.6324  -5.6322  -5.6320
    -5.6313  -5.6308  -5.6302  -5.6300  -5.6289  -5.6287  -5.6283  -5.6279
    -5.6106  -5.6089  -5.6082  -5.6078  -5.6075  -5.6058  -5.5936  -5.5927
    -5.5921  -5.5915  -5.5695  -5.5684  -5.5678  -5.5671  -5.5665  -5.5655
    -5.5615  -5.5613  -5.4325  -5.4324  -5.4322  -5.4313  -5.4310  -5.4305
    -5.4261  -5.4252  -5.4249  -5.4244  -5.4236  -5.4233  -5.4080  -5.4078
    -5.4074  -5.4049  -5.4044  -5.4041  -5.3816  -5.3812  -5.3803  -5.3512
    -5.3509  -5.3499  -5.3492  -5.3486  -5.3480  -5.3414  -5.3410  -5.3405
    -5.3398  -5.3391  -5.3381  -5.3085  -5.3077  -5.3073  -5.2955  -5.2953
    -5.2948  -5.2935  -5.2932  -5.2928  -5.2827  -5.2823  -5.2822  -5.2610
    -5.2608  -5.2606  -5.2419  -5.2416  -5.2415  -5.2408  -5.2404  -5.2401
    -5.2377  -5.2373  -5.2368  -5.2290  -5.2285  -5.2111  -5.2107  -5.1671
    -5.1670  -5.1668  -5.1664  -5.1662  -5.1660  -5.1634  -5.1632  -5.1630
    -5.1621  -5.1614  -5.1608  -4.9182  -4.9179  -4.9178  -4.9177  -4.9170
    -4.9160  -4.8440  -4.3437  -4.2685  -4.2658  -4.2637  -4.2626  -4.2601
    -4.2454  -3.9458  -3.7530  -3.6545  -3.1719  -2.8102  -2.7361  -2.1130
    -2.1111  -2.1105  -2.1096  -2.1093  -2.1085  -2.0744  -1.7321  -1.7292
    -1.7204  -1.7177  -1.7176  -1.7112  -1.5800  -0.9735  -0.8754  -0.8742
    -0.8727  -0.5156  -0.5152  -0.5137  -0.5119  -0.5108  -0.5103  -0.4703
    -0.0699  -0.0696  -0.0691   0.2169   0.3455   0.3467   0.3483   1.3793
     1.7883   1.8001   1.8008   1.8046   1.8082   1.8091   1.8153   1.8197
     1.8210   1.8256   1.8295   1.8827   2.4603   2.4617   2.4636   3.5546
     3.5719   3.5730   3.5788   4.4018   4.4059   4.4086   5.1567   5.1956
     5.2442   5.2620   5.3161   5.3326   5.3484   5.4099   5.4149   5.4184
     5.4189   5.4202   5.4227   5.4434   5.4861   5.5806   5.5830   5.5835
     5.5863   5.5876   5.5891   5.6200   5.6396   5.6534   5.6595   5.6707
     5.6723   5.7742   6.3667   6.5016   6.7659   6.7862   6.8025   6.8363
     6.9166   7.1083   7.1109   7.1359   7.1373   7.1390   7.1396   7.1417
     7.1434   7.2158   7.2275   7.2436   7.2737   7.3278   7.3290   7.3346
     7.3366   7.3371   7.3403   7.3684   7.3937   7.5143   7.6536   7.9883
     8.0553   8.0780   8.1227   8.1694   8.2850   8.3200   8.3351   8.3791
     8.4029   8.4381   8.4500   8.4613   8.4814   8.4874   8.5270   8.5502
     8.6016   8.6337   8.6396   8.6587   8.6979   8.7969   9.2356   9.2429
     9.2499

     occupation numbers 
     1.0000   1.0000   1.0000   1.0000   1.0000   1.0000   1.0000   1.0000
     1.0000   1.0000   1.0000   1.0000   1.0000   1.0000   1.0000   1.0000
     1.0000   1.0000   1.0000   1.0000   1.0000   1.0000   1.0000   1.0000
     1.0000   1.0000   1.0000   1.0000   1.0000   1.0000   1.0000   1.0000
     1.0000   1.0000   1.0000   1.0000   1.0000   1.0000   1.0000   1.0000
     1.0000   1.0000   1.0000   1.0000   1.0000   1.0000   1.0000   1.0000
     1.0000   1.0000   1.0000   1.0000   1.0000   1.0000   1.0000   1.0000
     1.0000   1.0000   1.0000   1.0000   1.0000   1.0000   1.0000   1.0000
     1.0000   1.0000   1.0000   1.0000   1.0000   1.0000   1.0000   1.0000
     1.0000   1.0000   1.0000   1.0000   1.0000   1.0000   1.0000   1.0000
     1.0000   1.0000   1.0000   1.0000   1.0000   1.0000   1.0000   1.0000
     1.0000   1.0000   1.0000   1.0000   1.0000   1.0000   1.0000   1.0000
     1.0000   1.0000   1.0000   1.0000   1.0000   1.0000   1.0000   1.0000
     1.0000   1.0000   1.0000   1.0000   1.0000   1.0000   1.0000   1.0000
     1.0000   1.0000   1.0000   1.0000   1.0000   1.0000   1.0000   1.0000
     1.0000   1.0000   1.0000   1.0000   1.0000   1.0000   1.0000   1.0000
     1.0000   1.0000   1.0000   1.0000   1.0000   1.0000   1.0000   1.0000
     1.0000   1.0000   1.0000   1.0000   1.0000   1.0000   1.0000   1.0000
     1.0000   1.0000   1.0000   1.0000   1.0000   1.0000   1.0000   1.0000
     1.0000   1.0000   1.0000   1.0000   1.0000   1.0000   1.0000   1.0000
     1.0000   1.0000   1.0000   1.0000   1.0000   1.0000   1.0000   1.0000
     1.0000   1.0000   1.0000   1.0000   1.0000   1.0000   1.0000   1.0000
     1.0000   1.0000   1.0000   1.0000   1.0000   1.0000   1.0000   1.0000
     1.0000   1.0000   1.0000   1.0000   1.0000   1.0000   1.0000   1.0000
     1.0000   1.0000   1.0000   1.0000   1.0000   1.0000   1.0000   1.0000
     1.0000   1.0000   1.0000   1.0000   1.0000   1.0000   1.0000   1.0000
     1.0000   1.0000   1.0000   1.0000   1.0000   1.0000   1.0000   1.0000
     1.0000   1.0000   1.0000   1.0000   1.0000   1.0000   1.0000   1.0000
     1.0000   1.0000   1.0000   1.0000   1.0000   1.0000   1.0000   1.0000
     1.0000   1.0000   1.0000   1.0000   1.0000   1.0000   1.0000   1.0000
     1.0000   1.0000   1.0000   1.0000   1.0000   1.0000   1.0000   1.0000
     1.0000   1.0000   1.0000   1.0000   1.0000   1.0000   1.0000   1.0000
     1.0000   1.0000   1.0000   1.0000   1.0000   1.0000   1.0000   1.0000
     1.0000   1.0000   1.0000   1.0000   1.0000   1.0000   1.0000   1.0000
     1.0000   1.0000   1.0000   1.0000   1.0000   1.0000   1.0000   1.0000
     1.0000   1.0000   1.0000   1.0000   1.0000   1.0000   1.0000   1.0000
     1.0000   1.0000   1.0000   1.0000   1.0000   1.0000   1.0000   1.0000
     1.0000   1.0000   1.0000   1.0000   1.0000   1.0000   1.0000   1.0000
     1.0000   1.0000   1.0000   1.0000   1.0000   1.0000   1.0000   1.0000
     1.0000   1.0000   1.0000   1.0000   1.0000   1.0000   1.0000   1.0000
     1.0000   1.0000   1.0000   1.0000   1.0000   1.0000   1.0000   1.0000
     1.0000   1.0000   1.0000   1.0000   1.0000   1.0000   1.0000   1.0000
     1.0000   1.0000   1.0000   1.0000   1.0000   1.0000   1.0000   1.0000
     1.0000   1.0000   1.0000   1.0000   1.0000   1.0000   1.0000   1.0000
     1.0000   1.0000   1.0000   1.0000   1.0000   1.0000   1.0000   1.0000
     1.0000   1.0000   1.0000   1.0000   1.0000   1.0000   1.0000   1.0000
     1.0000   1.0000   1.0000   1.0000   1.0000   1.0000   1.0000   1.0000
     1.0000   1.0000   1.0000   1.0000   1.0000   1.0000   1.0000   1.0000
     1.0000   1.0000   1.0000   1.0000   1.0000   1.0000   1.0000   1.0000
     1.0000   1.0000   1.0000   1.0000   1.0000   1.0000   1.0000   1.0000
     1.0000   1.0000   1.0000   1.0000   1.0000   1.0000   1.0000   1.0000
     1.0000   1.0000   1.0000   1.0000   1.0000   1.0000   1.0000   1.0000
     1.0000   1.0000   1.0000   1.0000   1.0000   1.0000   1.0000   1.0000
     1.0000   1.0000   1.0000   1.0000   1.0000   1.0000   1.0000   1.0000
     1.0000   1.0000   1.0000   1.0000   1.0000   1.0000   1.0000   1.0000
     1.0000   1.0000   1.0000   1.0000   1.0000   1.0000   1.0000   1.0000
     1.0000   1.0000   1.0000   1.0000   1.0000   1.0000   1.0000   1.0000
     1.0000   1.0000   1.0000   1.0000   1.0000   1.0000   1.0000   1.0000
     1.0000   1.0000   1.0000   1.0000   1.0000   1.0000   1.0000   1.0000
     1.0000   1.0000   1.0000   1.0000   1.0000   1.0000   1.0000   1.0000
     1.0000   1.0000   1.0000   1.0000   1.0000   1.0000   1.0000   1.0000
     1.0000   1.0000   1.0000   1.0000   1.0000   1.0000   1.0000   1.0736
     0.2352   0.2135   0.2123   0.2056   0.1994   0.1979   0.1877   0.1806
     0.1786   0.1714   0.1654   0.0987   0.0000   0.0000   0.0000   0.0000
     0.0000   0.0000   0.0000   0.0000   0.0000   0.0000   0.0000   0.0000
     0.0000   0.0000   0.0000   0.0000   0.0000   0.0000   0.0000   0.0000
     0.0000   0.0000   0.0000   0.0000   0.0000   0.0000   0.0000   0.0000
     0.0000   0.0000   0.0000   0.0000   0.0000   0.0000   0.0000   0.0000
     0.0000   0.0000   0.0000   0.0000   0.0000   0.0000   0.0000   0.0000
     0.0000   0.0000   0.0000   0.0000   0.0000   0.0000   0.0000   0.0000
     0.0000   0.0000   0.0000   0.0000   0.0000   0.0000   0.0000   0.0000
     0.0000   0.0000   0.0000   0.0000   0.0000   0.0000   0.0000   0.0000
     0.0000   0.0000   0.0000   0.0000   0.0000   0.0000   0.0000   0.0000
     0.0000   0.0000   0.0000   0.0000   0.0000   0.0000   0.0000   0.0000
     0.0000   0.0000   0.0000   0.0000   0.0000   0.0000   0.0000   0.0000
     0.0000

          k = 0.0000 0.3849 0.0000 ( 64840 PWs)   bands (ev):

  -125.0449-125.0433-125.0426-125.0420-125.0417-125.0416-125.0410-125.0404
  -125.0395-125.0389-125.0388-125.0380-125.0375-125.0371-125.0363-125.0353
  -124.7181-124.7152-124.7118-124.7109-124.7100-124.7099-124.7093-124.7091
  -124.7088-124.7087-124.7086-124.7083-124.7077-124.7077-124.7075-124.7073
  -124.7070-124.7066-124.7064-124.7063-124.7063-124.7061-124.7057-124.7057
  -124.7055-124.7053-124.7047-124.7042-124.7035-124.7034-124.6890-124.6882
   -79.2127 -79.2126 -79.2119 -79.2093 -79.2092 -79.2076 -79.2070 -79.2044
   -79.2042 -79.2039 -79.2003 -79.2000 -79.1976 -79.1967 -79.1925 -79.1921
   -79.1914 -79.1912 -79.1895 -79.1892 -79.1877 -79.1872 -79.1862 -79.1856
   -79.1847 -79.1841 -79.1839 -79.1831 -79.1821 -79.1818 -79.1813 -79.1809
   -79.1806 -79.1803 -79.1802 -79.1796 -79.1793 -79.1790 -79.1784 -79.1783
   -79.1777 -79.1775 -79.1773 -79.1766 -79.1761 -79.1758 -79.1749 -79.1740
   -78.8749 -78.8742 -78.8736 -78.8729 -78.8720 -78.8717 -78.8712 -78.8708
   -78.8707 -78.8701 -78.8691 -78.8687 -78.8685 -78.8673 -78.8670 -78.8668
   -78.8667 -78.8666 -78.8655 -78.8655 -78.8649 -78.8646 -78.8643 -78.8643
   -78.8642 -78.8641 -78.8641 -78.8641 -78.8639 -78.8638 -78.8637 -78.8631
   -78.8630 -78.8628 -78.8626 -78.8622 -78.8619 -78.8619 -78.8617 -78.8616
   -78.8615 -78.8614 -78.8614 -78.8610 -78.8608 -78.8605 -78.8603 -78.8600
   -78.8600 -78.8599 -78.8595 -78.8588 -78.8586 -78.8585 -78.8569 -78.8567
   -78.8567 -78.8553 -78.8536 -78.8530 -78.8516 -78.8514 -78.8513 -78.8510
   -78.8510 -78.8508 -78.8500 -78.8495 -78.8484 -78.8482 -78.8478 -78.8478
   -78.8475 -78.8469 -78.8461 -78.8459 -78.8456 -78.8448 -78.8447 -78.8443
   -78.8440 -78.8440 -78.8439 -78.8438 -78.8428 -78.8416 -78.8414 -78.8411
   -78.8399 -78.8394 -78.8393 -78.8376 -78.8352 -78.8321 -78.8302 -78.8273
   -16.5409 -14.4744 -12.2981 -11.9097 -10.2121  -8.6806  -8.4758  -7.9166
    -7.8762  -7.3484  -7.3470  -7.1078  -6.9099  -6.8846  -6.8470  -6.8362
    -6.8361  -6.7922  -6.7916  -6.6870  -6.6746  -6.6475  -6.6355  -6.6353
    -6.6270  -6.6268  -6.5553  -6.5401  -6.5391  -6.5388  -6.5339  -6.5337
    -6.5231  -6.5221  -6.5120  -6.4981  -6.4976  -6.4778  -6.4774  -6.4703
    -6.4690  -6.4668  -6.4654  -6.4490  -6.4465  -6.4456  -6.4380  -6.4171
    -6.4164  -6.4079  -6.3929  -6.3661  -6.3657  -6.3599  -6.3596  -6.3561
    -6.3554  -6.3015  -6.2607  -6.2591  -6.2508  -6.2501  -6.2178  -6.2058
    -6.2034  -6.1992  -6.1976  -6.1968  -6.1857  -6.1837  -6.1788  -6.1671
    -6.1652  -6.1634  -6.1588  -6.1375  -6.1367  -6.1333  -6.1331  -6.1245
    -6.1240  -6.1167  -6.1058  -6.1054  -6.0938  -6.0937  -6.0753  -6.0575
    -6.0564  -6.0418  -6.0416  -6.0350  -6.0345  -6.0235  -6.0230  -6.0051
    -6.0044  -5.9763  -5.9759  -5.9707  -5.9698  -5.9669  -5.9665  -5.9652
    -5.9646  -5.9224  -5.9129  -5.8696  -5.8531  -5.8529  -5.8522  -5.8520
    -5.8384  -5.8380  -5.8327  -5.8324  -5.8274  -5.8153  -5.8150  -5.8112
    -5.8109  -5.7994  -5.7990  -5.7957  -5.7782  -5.7775  -5.7703  -5.7634
    -5.7615  -5.7608  -5.7512  -5.7488  -5.7454  -5.7451  -5.7353  -5.7344
    -5.7339  -5.7167  -5.7162  -5.7031  -5.7026  -5.6976  -5.6934  -5.6519
    -5.6514  -5.6463  -5.6459  -5.6452  -5.6447  -5.6304  -5.6298  -5.6237
    -5.6215  -5.6212  -5.6016  -5.6011  -5.5686  -5.5682  -5.5622  -5.5566
    -5.5563  -5.5505  -5.5372  -5.5370  -5.5337  -5.5336  -5.5324  -5.5320
    -5.5318  -5.5316  -5.5095  -5.5047  -5.5028  -5.4782  -5.4672  -5.4668
    -5.4533  -5.4529  -5.4332  -5.4331  -5.4303  -5.4302  -5.4228  -5.4128
    -5.4118  -5.4093  -5.4044  -5.4040  -5.3918  -5.3909  -5.3872  -5.3864
    -5.3854  -5.3850  -5.3786  -5.3782  -5.3775  -5.3770  -5.3747  -5.3743
    -5.3730  -5.3728  -5.3590  -5.3506  -5.3505  -5.3365  -5.3360  -5.3243
    -5.3139  -5.3131  -5.3108  -5.3104  -5.3058  -5.2885  -5.2881  -5.2828
    -5.2820  -5.2794  -5.2783  -5.2778  -5.2691  -5.2689  -5.2657  -5.2624
    -5.2551  -5.2549  -5.2522  -5.2518  -5.2396  -5.2392  -5.2380  -5.2291
    -5.2288  -5.2265  -5.2151  -5.2101  -5.2099  -5.2008  -5.1985  -5.1984
    -5.1484  -5.1482  -5.1451  -5.1449  -5.1445  -5.1442  -5.1374  -5.1310
    -5.0160  -5.0154  -5.0087  -5.0080  -4.9776  -4.9759  -4.9382  -4.8615
    -4.8590  -4.8369  -4.5474  -4.5418  -4.5390  -4.3226  -3.9519  -3.7543
    -3.7463  -3.7452  -3.6552  -3.5079  -3.5061  -3.0191  -2.9694  -2.8101
    -2.7578  -2.7353  -2.5465  -2.2338  -2.2317  -2.0939  -2.0563  -2.0243
    -1.9651  -1.9645  -1.5859  -1.4868  -1.4860  -1.1668  -1.0297  -0.9952
    -0.9390  -0.4677  -0.3753  -0.3746  -0.1908  -0.0361  -0.0350   0.0165
     0.0170   0.1837   0.1879   0.2169   0.6041   0.9011   0.9019   0.9553
     1.3075   1.3486   1.4546   1.5557   1.5595   1.7715   1.7764   2.3792
     2.3809   2.7303   2.7433   3.0368   3.0802   3.0807   3.2375   3.2391
     3.3790   3.5110   3.5120   3.7512   4.0366   4.0485   4.1062   4.1101
     4.2798   4.3266   4.3309   4.3401   4.8798   4.8827   4.8945   4.9259
     5.0708   5.0726   5.2190   5.3911   5.4259   5.4305   5.5524   5.6492
     5.7168   5.7455   5.9841   6.0172   6.0396   6.0730   6.1961   6.2709
     6.3123   6.3153   6.4143   6.4265   6.5272   6.5894   6.6349   6.6411
     6.6691   6.7228   6.7259   6.7419   6.8112   6.8637   6.9026   7.0238
     7.1354   7.1587   7.1782   7.2414   7.2930   7.3541   7.4277   7.4529
     7.6415   7.6447   7.7058   7.7194   7.7430   7.8575   7.9192   7.9694
     8.0097   8.0240   8.0326   8.0468   8.0477   8.0986   8.2536   8.3487
     8.5454   8.5692   8.6381   8.7121   8.7334   8.7389   8.7513   8.7979
     8.8893   8.9733   9.0090   9.0458   9.0536   9.1374   9.1648   9.2244
     9.2460

     occupation numbers 
     1.0000   1.0000   1.0000   1.0000   1.0000   1.0000   1.0000   1.0000
     1.0000   1.0000   1.0000   1.0000   1.0000   1.0000   1.0000   1.0000
     1.0000   1.0000   1.0000   1.0000   1.0000   1.0000   1.0000   1.0000
     1.0000   1.0000   1.0000   1.0000   1.0000   1.0000   1.0000   1.0000
     1.0000   1.0000   1.0000   1.0000   1.0000   1.0000   1.0000   1.0000
     1.0000   1.0000   1.0000   1.0000   1.0000   1.0000   1.0000   1.0000
     1.0000   1.0000   1.0000   1.0000   1.0000   1.0000   1.0000   1.0000
     1.0000   1.0000   1.0000   1.0000   1.0000   1.0000   1.0000   1.0000
     1.0000   1.0000   1.0000   1.0000   1.0000   1.0000   1.0000   1.0000
     1.0000   1.0000   1.0000   1.0000   1.0000   1.0000   1.0000   1.0000
     1.0000   1.0000   1.0000   1.0000   1.0000   1.0000   1.0000   1.0000
     1.0000   1.0000   1.0000   1.0000   1.0000   1.0000   1.0000   1.0000
     1.0000   1.0000   1.0000   1.0000   1.0000   1.0000   1.0000   1.0000
     1.0000   1.0000   1.0000   1.0000   1.0000   1.0000   1.0000   1.0000
     1.0000   1.0000   1.0000   1.0000   1.0000   1.0000   1.0000   1.0000
     1.0000   1.0000   1.0000   1.0000   1.0000   1.0000   1.0000   1.0000
     1.0000   1.0000   1.0000   1.0000   1.0000   1.0000   1.0000   1.0000
     1.0000   1.0000   1.0000   1.0000   1.0000   1.0000   1.0000   1.0000
     1.0000   1.0000   1.0000   1.0000   1.0000   1.0000   1.0000   1.0000
     1.0000   1.0000   1.0000   1.0000   1.0000   1.0000   1.0000   1.0000
     1.0000   1.0000   1.0000   1.0000   1.0000   1.0000   1.0000   1.0000
     1.0000   1.0000   1.0000   1.0000   1.0000   1.0000   1.0000   1.0000
     1.0000   1.0000   1.0000   1.0000   1.0000   1.0000   1.0000   1.0000
     1.0000   1.0000   1.0000   1.0000   1.0000   1.0000   1.0000   1.0000
     1.0000   1.0000   1.0000   1.0000   1.0000   1.0000   1.0000   1.0000
     1.0000   1.0000   1.0000   1.0000   1.0000   1.0000   1.0000   1.0000
     1.0000   1.0000   1.0000   1.0000   1.0000   1.0000   1.0000   1.0000
     1.0000   1.0000   1.0000   1.0000   1.0000   1.0000   1.0000   1.0000
     1.0000   1.0000   1.0000   1.0000   1.0000   1.0000   1.0000   1.0000
     1.0000   1.0000   1.0000   1.0000   1.0000   1.0000   1.0000   1.0000
     1.0000   1.0000   1.0000   1.0000   1.0000   1.0000   1.0000   1.0000
     1.0000   1.0000   1.0000   1.0000   1.0000   1.0000   1.0000   1.0000
     1.0000   1.0000   1.0000   1.0000   1.0000   1.0000   1.0000   1.0000
     1.0000   1.0000   1.0000   1.0000   1.0000   1.0000   1.0000   1.0000
     1.0000   1.0000   1.0000   1.0000   1.0000   1.0000   1.0000   1.0000
     1.0000   1.0000   1.0000   1.0000   1.0000   1.0000   1.0000   1.0000
     1.0000   1.0000   1.0000   1.0000   1.0000   1.0000   1.0000   1.0000
     1.0000   1.0000   1.0000   1.0000   1.0000   1.0000   1.0000   1.0000
     1.0000   1.0000   1.0000   1.0000   1.0000   1.0000   1.0000   1.0000
     1.0000   1.0000   1.0000   1.0000   1.0000   1.0000   1.0000   1.0000
     1.0000   1.0000   1.0000   1.0000   1.0000   1.0000   1.0000   1.0000
     1.0000   1.0000   1.0000   1.0000   1.0000   1.0000   1.0000   1.0000
     1.0000   1.0000   1.0000   1.0000   1.0000   1.0000   1.0000   1.0000
     1.0000   1.0000   1.0000   1.0000   1.0000   1.0000   1.0000   1.0000
     1.0000   1.0000   1.0000   1.0000   1.0000   1.0000   1.0000   1.0000
     1.0000   1.0000   1.0000   1.0000   1.0000   1.0000   1.0000   1.0000
     1.0000   1.0000   1.0000   1.0000   1.0000   1.0000   1.0000   1.0000
     1.0000   1.0000   1.0000   1.0000   1.0000   1.0000   1.0000   1.0000
     1.0000   1.0000   1.0000   1.0000   1.0000   1.0000   1.0000   1.0000
     1.0000   1.0000   1.0000   1.0000   1.0000   1.0000   1.0000   1.0000
     1.0000   1.0000   1.0000   1.0000   1.0000   1.0000   1.0000   1.0000
     1.0000   1.0000   1.0000   1.0000   1.0000   1.0000   1.0000   1.0000
     1.0000   1.0000   1.0000   1.0000   1.0000   1.0000   1.0000   1.0000
     1.0000   1.0000   1.0000   1.0000   1.0000   1.0000   1.0000   1.0000
     1.0000   1.0000   1.0000   1.0000   1.0000   1.0000   1.0000   1.0000
     1.0000   1.0000   1.0000   1.0000   1.0000   1.0000   1.0000   1.0000
     1.0000   1.0000   1.0000   1.0000   1.0000   1.0000   1.0000   1.0000
     1.0000   1.0000   1.0000   1.0000   1.0000   1.0000   1.0000   1.0000
     1.0000   1.0000   1.0000   1.0000   1.0000   1.0000   1.0000   1.0000
     1.0000   1.0000   1.0000   1.0000   1.0000   1.0000   1.0000   1.0000
     1.0000   1.0000   1.0000   1.0000   1.0000   1.0000   1.0000   1.0000
     1.0000   1.0000   1.0000   1.0000   1.0000   1.0016   1.0016   1.0036
     1.0819   1.0820   1.0114   0.8221   0.8130   0.2685   0.2585   0.0000
     0.0000   0.0000   0.0000   0.0000   0.0000   0.0000   0.0000   0.0000
     0.0000   0.0000   0.0000   0.0000   0.0000   0.0000   0.0000   0.0000
     0.0000   0.0000   0.0000   0.0000   0.0000   0.0000   0.0000   0.0000
     0.0000   0.0000   0.0000   0.0000   0.0000   0.0000   0.0000   0.0000
     0.0000   0.0000   0.0000   0.0000   0.0000   0.0000   0.0000   0.0000
     0.0000   0.0000   0.0000   0.0000   0.0000   0.0000   0.0000   0.0000
     0.0000   0.0000   0.0000   0.0000   0.0000   0.0000   0.0000   0.0000
     0.0000   0.0000   0.0000   0.0000   0.0000   0.0000   0.0000   0.0000
     0.0000   0.0000   0.0000   0.0000   0.0000   0.0000   0.0000   0.0000
     0.0000   0.0000   0.0000   0.0000   0.0000   0.0000   0.0000   0.0000
     0.0000   0.0000   0.0000   0.0000   0.0000   0.0000   0.0000   0.0000
     0.0000   0.0000   0.0000   0.0000   0.0000   0.0000   0.0000   0.0000
     0.0000

          k = 0.3333 0.1925 0.0000 ( 64840 PWs)   bands (ev):

  -125.0449-125.0433-125.0424-125.0423-125.0418-125.0416-125.0410-125.0403
  -125.0396-125.0389-125.0388-125.0380-125.0375-125.0371-125.0363-125.0353
  -124.7181-124.7152-124.7118-124.7109-124.7099-124.7098-124.7093-124.7092
  -124.7087-124.7086-124.7084-124.7083-124.7080-124.7077-124.7075-124.7071
  -124.7070-124.7066-124.7064-124.7063-124.7063-124.7060-124.7057-124.7057
  -124.7055-124.7053-124.7047-124.7042-124.7035-124.7034-124.6890-124.6882
   -79.2131 -79.2128 -79.2117 -79.2091 -79.2081 -79.2077 -79.2073 -79.2045
   -79.2044 -79.2040 -79.2004 -79.2003 -79.1971 -79.1970 -79.1926 -79.1919
   -79.1917 -79.1913 -79.1889 -79.1885 -79.1876 -79.1871 -79.1865 -79.1863
   -79.1844 -79.1839 -79.1839 -79.1836 -79.1820 -79.1814 -79.1811 -79.1810
   -79.1809 -79.1805 -79.1801 -79.1797 -79.1795 -79.1789 -79.1787 -79.1783
   -79.1777 -79.1776 -79.1768 -79.1766 -79.1761 -79.1758 -79.1749 -79.1740
   -78.8757 -78.8743 -78.8738 -78.8728 -78.8719 -78.8717 -78.8712 -78.8707
   -78.8701 -78.8692 -78.8688 -78.8685 -78.8681 -78.8672 -78.8671 -78.8667
   -78.8666 -78.8663 -78.8655 -78.8654 -78.8649 -78.8647 -78.8645 -78.8643
   -78.8643 -78.8642 -78.8641 -78.8641 -78.8639 -78.8638 -78.8638 -78.8634
   -78.8630 -78.8630 -78.8629 -78.8625 -78.8623 -78.8619 -78.8618 -78.8616
   -78.8615 -78.8613 -78.8612 -78.8611 -78.8607 -78.8605 -78.8600 -78.8600
   -78.8600 -78.8599 -78.8595 -78.8591 -78.8587 -78.8587 -78.8571 -78.8566
   -78.8566 -78.8562 -78.8538 -78.8530 -78.8521 -78.8517 -78.8513 -78.8511
   -78.8509 -78.8509 -78.8486 -78.8485 -78.8484 -78.8483 -78.8477 -78.8477
   -78.8475 -78.8470 -78.8460 -78.8458 -78.8458 -78.8448 -78.8446 -78.8443
   -78.8440 -78.8440 -78.8439 -78.8437 -78.8424 -78.8416 -78.8410 -78.8408
   -78.8401 -78.8394 -78.8393 -78.8376 -78.8366 -78.8322 -78.8305 -78.8267
   -16.5409 -14.4744 -12.2981 -11.9097 -10.2121  -8.6805  -8.4758  -7.9167
    -7.8760  -7.3485  -7.3470  -7.1078  -6.9099  -6.8847  -6.8470  -6.8365
    -6.8357  -6.7921  -6.7916  -6.6869  -6.6746  -6.6474  -6.6360  -6.6350
    -6.6273  -6.6263  -6.5551  -6.5400  -6.5394  -6.5387  -6.5346  -6.5330
    -6.5228  -6.5224  -6.5119  -6.4988  -6.4968  -6.4780  -6.4776  -6.4697
    -6.4692  -6.4671  -6.4656  -6.4476  -6.4467  -6.4459  -6.4389  -6.4171
    -6.4167  -6.4076  -6.3927  -6.3663  -6.3662  -6.3603  -6.3590  -6.3570
    -6.3544  -6.3014  -6.2602  -6.2593  -6.2508  -6.2502  -6.2168  -6.2076
    -6.2029  -6.1991  -6.1971  -6.1969  -6.1868  -6.1835  -6.1763  -6.1673
    -6.1651  -6.1648  -6.1588  -6.1374  -6.1370  -6.1333  -6.1331  -6.1243
    -6.1240  -6.1168  -6.1063  -6.1049  -6.0940  -6.0936  -6.0753  -6.0574
    -6.0565  -6.0420  -6.0416  -6.0355  -6.0340  -6.0233  -6.0229  -6.0051
    -6.0046  -5.9763  -5.9760  -5.9705  -5.9700  -5.9667  -5.9665  -5.9651
    -5.9650  -5.9225  -5.9129  -5.8696  -5.8532  -5.8531  -5.8524  -5.8513
    -5.8383  -5.8379  -5.8328  -5.8324  -5.8275  -5.8156  -5.8148  -5.8113
    -5.8107  -5.7994  -5.7990  -5.7959  -5.7781  -5.7774  -5.7702  -5.7632
    -5.7619  -5.7610  -5.7515  -5.7488  -5.7455  -5.7449  -5.7350  -5.7345
    -5.7339  -5.7167  -5.7165  -5.7029  -5.7026  -5.6980  -5.6931  -5.6520
    -5.6514  -5.6464  -5.6458  -5.6453  -5.6446  -5.6304  -5.6294  -5.6241
    -5.6215  -5.6212  -5.6016  -5.6010  -5.5685  -5.5683  -5.5625  -5.5569
    -5.5556  -5.5504  -5.5370  -5.5370  -5.5345  -5.5340  -5.5326  -5.5317
    -5.5315  -5.5310  -5.5096  -5.5047  -5.5029  -5.4781  -5.4671  -5.4666
    -5.4534  -5.4527  -5.4338  -5.4327  -5.4314  -5.4290  -5.4228  -5.4123
    -5.4119  -5.4095  -5.4042  -5.4041  -5.3916  -5.3909  -5.3873  -5.3864
    -5.3859  -5.3851  -5.3787  -5.3782  -5.3773  -5.3770  -5.3746  -5.3739
    -5.3733  -5.3730  -5.3588  -5.3507  -5.3505  -5.3365  -5.3360  -5.3244
    -5.3132  -5.3131  -5.3109  -5.3107  -5.3058  -5.2884  -5.2881  -5.2824
    -5.2818  -5.2807  -5.2782  -5.2778  -5.2691  -5.2690  -5.2659  -5.2623
    -5.2552  -5.2550  -5.2523  -5.2513  -5.2395  -5.2394  -5.2381  -5.2293
    -5.2291  -5.2264  -5.2147  -5.2099  -5.2098  -5.2010  -5.1985  -5.1984
    -5.1483  -5.1482  -5.1457  -5.1448  -5.1447  -5.1435  -5.1374  -5.1310
    -5.0162  -5.0152  -5.0090  -5.0076  -4.9776  -4.9759  -4.9387  -4.8612
    -4.8591  -4.8365  -4.5466  -4.5441  -4.5388  -4.3208  -3.9522  -3.7543
    -3.7466  -3.7450  -3.6546  -3.5074  -3.5065  -3.0197  -2.9703  -2.8099
    -2.7569  -2.7362  -2.5471  -2.2335  -2.2324  -2.0898  -2.0559  -2.0270
    -1.9650  -1.9647  -1.5850  -1.4870  -1.4855  -1.1688  -1.0284  -0.9952
    -0.9402  -0.4671  -0.3762  -0.3741  -0.1908  -0.0361  -0.0350   0.0155
     0.0181   0.1846   0.1867   0.2175   0.6028   0.9006   0.9028   0.9539
     1.3387   1.3474   1.4262   1.5556   1.5634   1.7702   1.7732   2.3797
     2.3809   2.7286   2.7455   3.0368   3.0796   3.0810   3.2380   3.2389
     3.3792   3.5111   3.5117   3.7512   4.0360   4.0511   4.1081   4.1085
     4.2795   4.3277   4.3315   4.3373   4.8760   4.8840   4.8990   4.9337
     5.0712   5.0720   5.2172   5.3796   5.4240   5.4318   5.5294   5.6356
     5.7041   5.7471   5.9899   6.0019   6.0332   6.0890   6.2020   6.3113
     6.3134   6.3726   6.4140   6.4186   6.5379   6.5527   6.6301   6.6389
     6.6548   6.6860   6.7236   6.7257   6.7428   6.8400   6.8726   6.9922
     7.1487   7.1539   7.2117   7.2342   7.2913   7.4349   7.4858   7.6262
     7.6416   7.7015   7.7187   7.7446   7.7728   7.8255   7.9139   7.9643
     8.0087   8.0212   8.0259   8.0439   8.0476   8.0878   8.1170   8.2209
     8.5317   8.6391   8.6958   8.7160   8.7379   8.7726   8.8314   8.8695
     8.9431   8.9931   9.0458   9.0482   9.0905   9.1134   9.1734   9.1824
     9.2514

     occupation numbers 
     1.0000   1.0000   1.0000   1.0000   1.0000   1.0000   1.0000   1.0000
     1.0000   1.0000   1.0000   1.0000   1.0000   1.0000   1.0000   1.0000
     1.0000   1.0000   1.0000   1.0000   1.0000   1.0000   1.0000   1.0000
     1.0000   1.0000   1.0000   1.0000   1.0000   1.0000   1.0000   1.0000
     1.0000   1.0000   1.0000   1.0000   1.0000   1.0000   1.0000   1.0000
     1.0000   1.0000   1.0000   1.0000   1.0000   1.0000   1.0000   1.0000
     1.0000   1.0000   1.0000   1.0000   1.0000   1.0000   1.0000   1.0000
     1.0000   1.0000   1.0000   1.0000   1.0000   1.0000   1.0000   1.0000
     1.0000   1.0000   1.0000   1.0000   1.0000   1.0000   1.0000   1.0000
     1.0000   1.0000   1.0000   1.0000   1.0000   1.0000   1.0000   1.0000
     1.0000   1.0000   1.0000   1.0000   1.0000   1.0000   1.0000   1.0000
     1.0000   1.0000   1.0000   1.0000   1.0000   1.0000   1.0000   1.0000
     1.0000   1.0000   1.0000   1.0000   1.0000   1.0000   1.0000   1.0000
     1.0000   1.0000   1.0000   1.0000   1.0000   1.0000   1.0000   1.0000
     1.0000   1.0000   1.0000   1.0000   1.0000   1.0000   1.0000   1.0000
     1.0000   1.0000   1.0000   1.0000   1.0000   1.0000   1.0000   1.0000
     1.0000   1.0000   1.0000   1.0000   1.0000   1.0000   1.0000   1.0000
     1.0000   1.0000   1.0000   1.0000   1.0000   1.0000   1.0000   1.0000
     1.0000   1.0000   1.0000   1.0000   1.0000   1.0000   1.0000   1.0000
     1.0000   1.0000   1.0000   1.0000   1.0000   1.0000   1.0000   1.0000
     1.0000   1.0000   1.0000   1.0000   1.0000   1.0000   1.0000   1.0000
     1.0000   1.0000   1.0000   1.0000   1.0000   1.0000   1.0000   1.0000
     1.0000   1.0000   1.0000   1.0000   1.0000   1.0000   1.0000   1.0000
     1.0000   1.0000   1.0000   1.0000   1.0000   1.0000   1.0000   1.0000
     1.0000   1.0000   1.0000   1.0000   1.0000   1.0000   1.0000   1.0000
     1.0000   1.0000   1.0000   1.0000   1.0000   1.0000   1.0000   1.0000
     1.0000   1.0000   1.0000   1.0000   1.0000   1.0000   1.0000   1.0000
     1.0000   1.0000   1.0000   1.0000   1.0000   1.0000   1.0000   1.0000
     1.0000   1.0000   1.0000   1.0000   1.0000   1.0000   1.0000   1.0000
     1.0000   1.0000   1.0000   1.0000   1.0000   1.0000   1.0000   1.0000
     1.0000   1.0000   1.0000   1.0000   1.0000   1.0000   1.0000   1.0000
     1.0000   1.0000   1.0000   1.0000   1.0000   1.0000   1.0000   1.0000
     1.0000   1.0000   1.0000   1.0000   1.0000   1.0000   1.0000   1.0000
     1.0000   1.0000   1.0000   1.0000   1.0000   1.0000   1.0000   1.0000
     1.0000   1.0000   1.0000   1.0000   1.0000   1.0000   1.0000   1.0000
     1.0000   1.0000   1.0000   1.0000   1.0000   1.0000   1.0000   1.0000
     1.0000   1.0000   1.0000   1.0000   1.0000   1.0000   1.0000   1.0000
     1.0000   1.0000   1.0000   1.0000   1.0000   1.0000   1.0000   1.0000
     1.0000   1.0000   1.0000   1.0000   1.0000   1.0000   1.0000   1.0000
     1.0000   1.0000   1.0000   1.0000   1.0000   1.0000   1.0000   1.0000
     1.0000   1.0000   1.0000   1.0000   1.0000   1.0000   1.0000   1.0000
     1.0000   1.0000   1.0000   1.0000   1.0000   1.0000   1.0000   1.0000
     1.0000   1.0000   1.0000   1.0000   1.0000   1.0000   1.0000   1.0000
     1.0000   1.0000   1.0000   1.0000   1.0000   1.0000   1.0000   1.0000
     1.0000   1.0000   1.0000   1.0000   1.0000   1.0000   1.0000   1.0000
     1.0000   1.0000   1.0000   1.0000   1.0000   1.0000   1.0000   1.0000
     1.0000   1.0000   1.0000   1.0000   1.0000   1.0000   1.0000   1.0000
     1.0000   1.0000   1.0000   1.0000   1.0000   1.0000   1.0000   1.0000
     1.0000   1.0000   1.0000   1.0000   1.0000   1.0000   1.0000   1.0000
     1.0000   1.0000   1.0000   1.0000   1.0000   1.0000   1.0000   1.0000
     1.0000   1.0000   1.0000   1.0000   1.0000   1.0000   1.0000   1.0000
     1.0000   1.0000   1.0000   1.0000   1.0000   1.0000   1.0000   1.0000
     1.0000   1.0000   1.0000   1.0000   1.0000   1.0000   1.0000   1.0000
     1.0000   1.0000   1.0000   1.0000   1.0000   1.0000   1.0000   1.0000
     1.0000   1.0000   1.0000   1.0000   1.0000   1.0000   1.0000   1.0000
     1.0000   1.0000   1.0000   1.0000   1.0000   1.0000   1.0000   1.0000
     1.0000   1.0000   1.0000   1.0000   1.0000   1.0000   1.0000   1.0000
     1.0000   1.0000   1.0000   1.0000   1.0000   1.0000   1.0000   1.0000
     1.0000   1.0000   1.0000   1.0000   1.0000   1.0000   1.0000   1.0000
     1.0000   1.0000   1.0000   1.0000   1.0000   1.0000   1.0000   1.0000
     1.0000   1.0000   1.0000   1.0000   1.0000   1.0000   1.0000   1.0000
     1.0000   1.0000   1.0000   1.0000   1.0000   1.0016   1.0016   1.0036
     1.0830   1.0822   1.0427   0.8224   0.8034   0.2710   0.2650   0.0000
     0.0000   0.0000   0.0000   0.0000   0.0000   0.0000   0.0000   0.0000
     0.0000   0.0000   0.0000   0.0000   0.0000   0.0000   0.0000   0.0000
     0.0000   0.0000   0.0000   0.0000   0.0000   0.0000   0.0000   0.0000
     0.0000   0.0000   0.0000   0.0000   0.0000   0.0000   0.0000   0.0000
     0.0000   0.0000   0.0000   0.0000   0.0000   0.0000   0.0000   0.0000
     0.0000   0.0000   0.0000   0.0000   0.0000   0.0000   0.0000   0.0000
     0.0000   0.0000   0.0000   0.0000   0.0000   0.0000   0.0000   0.0000
     0.0000   0.0000   0.0000   0.0000   0.0000   0.0000   0.0000   0.0000
     0.0000   0.0000   0.0000   0.0000   0.0000   0.0000   0.0000   0.0000
     0.0000   0.0000   0.0000   0.0000   0.0000   0.0000   0.0000   0.0000
     0.0000   0.0000   0.0000   0.0000   0.0000   0.0000   0.0000   0.0000
     0.0000   0.0000   0.0000   0.0000   0.0000   0.0000   0.0000   0.0000
     0.0000

          k = 0.3333 0.5774 0.0000 ( 64848 PWs)   bands (ev):

  -125.0449-125.0433-125.0426-125.0420-125.0418-125.0416-125.0410-125.0403
  -125.0396-125.0390-125.0387-125.0380-125.0375-125.0371-125.0363-125.0353
  -124.7181-124.7152-124.7118-124.7109-124.7099-124.7099-124.7093-124.7092
  -124.7088-124.7087-124.7086-124.7082-124.7078-124.7077-124.7075-124.7071
  -124.7069-124.7066-124.7065-124.7063-124.7063-124.7062-124.7057-124.7057
  -124.7055-124.7053-124.7047-124.7042-124.7035-124.7034-124.6890-124.6882
   -79.2120 -79.2114 -79.2107 -79.2093 -79.2088 -79.2080 -79.2074 -79.2066
   -79.2065 -79.2026 -79.2025 -79.1986 -79.1982 -79.1980 -79.1932 -79.1927
   -79.1918 -79.1883 -79.1879 -79.1869 -79.1868 -79.1864 -79.1857 -79.1852
   -79.1848 -79.1843 -79.1839 -79.1839 -79.1829 -79.1826 -79.1820 -79.1813
   -79.1806 -79.1804 -79.1801 -79.1796 -79.1794 -79.1789 -79.1784 -79.1783
   -79.1778 -79.1777 -79.1774 -79.1766 -79.1760 -79.1759 -79.1749 -79.1740
   -78.8746 -78.8740 -78.8732 -78.8717 -78.8711 -78.8710 -78.8706 -78.8702
   -78.8701 -78.8700 -78.8690 -78.8680 -78.8679 -78.8675 -78.8675 -78.8673
   -78.8672 -78.8671 -78.8669 -78.8666 -78.8656 -78.8655 -78.8654 -78.8649
   -78.8647 -78.8644 -78.8643 -78.8642 -78.8641 -78.8636 -78.8632 -78.8630
   -78.8629 -78.8625 -78.8625 -78.8625 -78.8622 -78.8619 -78.8618 -78.8618
   -78.8616 -78.8616 -78.8615 -78.8614 -78.8610 -78.8609 -78.8608 -78.8605
   -78.8599 -78.8595 -78.8591 -78.8588 -78.8586 -78.8580 -78.8580 -78.8579
   -78.8568 -78.8559 -78.8540 -78.8528 -78.8523 -78.8520 -78.8518 -78.8514
   -78.8500 -78.8489 -78.8474 -78.8470 -78.8470 -78.8469 -78.8465 -78.8464
   -78.8463 -78.8461 -78.8460 -78.8455 -78.8449 -78.8448 -78.8447 -78.8446
   -78.8445 -78.8443 -78.8441 -78.8439 -78.8435 -78.8434 -78.8430 -78.8422
   -78.8404 -78.8392 -78.8388 -78.8386 -78.8354 -78.8322 -78.8304 -78.8273
   -16.5409 -14.4744 -12.2981 -11.9097 -10.2121  -8.6806  -8.0751  -8.0709
    -8.0657  -7.9119  -6.8061  -6.8028  -6.7976  -6.7853  -6.7844  -6.7838
    -6.7830  -6.7821  -6.7813  -6.7370  -6.7348  -6.7319  -6.6942  -6.6922
    -6.6901  -6.6621  -6.6612  -6.6602  -6.5763  -6.5759  -6.5743  -6.5731
    -6.5725  -6.5713  -6.5538  -6.5519  -6.5516  -6.4692  -6.4685  -6.4678
    -6.4659  -6.4649  -6.4632  -6.4220  -6.3990  -6.3984  -6.3980  -6.3977
    -6.3969  -6.3941  -6.3718  -6.3700  -6.3678  -6.3506  -6.3184  -6.3178
    -6.3171  -6.3024  -6.3012  -6.3008  -6.2998  -6.2989  -6.2975  -6.2748
    -6.2192  -6.2180  -6.2170  -6.2161  -6.2122  -6.2070  -6.2061  -6.2049
    -6.1871  -6.1840  -6.1726  -6.1721  -6.1712  -6.1696  -6.1690  -6.1630
    -6.1171  -6.1158  -6.1150  -6.0844  -6.0830  -6.0817  -6.0427  -6.0411
    -6.0408  -6.0064  -6.0059  -6.0053  -5.9887  -5.9877  -5.9865  -5.9562
    -5.9558  -5.9550  -5.9491  -5.9485  -5.9479  -5.9475  -5.9472  -5.9462
    -5.9206  -5.9201  -5.9191  -5.9172  -5.9169  -5.9158  -5.8711  -5.8700
    -5.8693  -5.8460  -5.8445  -5.8430  -5.8190  -5.8181  -5.8176  -5.8101
    -5.8098  -5.8089  -5.8073  -5.8070  -5.8062  -5.8036  -5.7707  -5.7699
    -5.7691  -5.7686  -5.7675  -5.7660  -5.7422  -5.7418  -5.7413  -5.7402
    -5.7400  -5.7387  -5.7334  -5.7329  -5.7315  -5.7089  -5.7076  -5.7062
    -5.7029  -5.7021  -5.6977  -5.6969  -5.6771  -5.6290  -5.6276  -5.6265
    -5.5874  -5.5851  -5.5842  -5.5577  -5.5569  -5.5549  -5.5360  -5.5349
    -5.5346  -5.5339  -5.5334  -5.5331  -5.5055  -5.4973  -5.4967  -5.4962
    -5.4956  -5.4950  -5.4947  -5.4487  -5.4478  -5.4459  -5.4351  -5.4350
    -5.4333  -5.4318  -5.4317  -5.4307  -5.4104  -5.4101  -5.4095  -5.4085
    -5.4083  -5.4079  -5.3980  -5.3969  -5.3960  -5.3781  -5.3773  -5.3769
    -5.3760  -5.3755  -5.3749  -5.3557  -5.3555  -5.3551  -5.3541  -5.3404
    -5.3398  -5.3391  -5.3387  -5.3377  -5.3371  -5.3256  -5.3158  -5.3154
    -5.3147  -5.3051  -5.3049  -5.3041  -5.3025  -5.3019  -5.3010  -5.3003
    -5.2990  -5.2989  -5.2801  -5.2789  -5.2773  -5.2607  -5.2581  -5.2567
    -5.2558  -5.2506  -5.2498  -5.2485  -5.2345  -5.2335  -5.2322  -5.2288
    -5.2283  -5.2279  -5.2114  -5.2111  -5.2102  -5.1684  -5.1672  -5.1664
    -5.1196  -5.1185  -5.1180  -5.1172  -5.1166  -5.1155  -5.0887  -5.0876
    -5.0872  -5.0864  -5.0857  -5.0845  -5.0365  -5.0318  -5.0295  -4.8702
    -4.8685  -4.8680  -4.8342  -4.3250  -3.9542  -3.7543  -3.6575  -3.6524
    -3.6486  -3.6462  -3.4967  -3.4955  -3.4935  -3.4927  -3.4903  -3.4891
    -2.8271  -2.7411  -2.7087  -2.7004  -2.6858  -2.0694  -1.9142  -1.9126
    -1.9103  -1.9096  -1.9050  -1.9035  -1.5858  -1.1719  -1.1593  -1.1566
    -0.9596   0.0144   0.0169   0.0188   0.2169   0.3339   0.3418   0.3615
     0.4682   0.4688   0.4757   0.4769   0.4776   0.4805   0.5776   0.5784
     0.5817   1.2832   1.2868   1.2911   1.4253   2.0573   2.3661   2.4342
     2.5085   2.5174   2.5336   2.8955   2.8975   2.9000   3.4073   4.0448
     4.1021   4.1322   4.1753   4.2209   4.2273   4.2331   4.3714   4.3858
     4.3877   4.3898   4.3904   4.3916   4.3944   4.3962   4.4020   4.4069
     4.4111   4.4210   4.6268   4.9071   4.9096   4.9192   5.2150   5.5757
     5.8116   5.8355   5.9051   5.9337   5.9545   6.0132   6.0400   6.0820
     6.0853   6.0893   6.0903   6.0929   6.0939   6.1072   6.1588   6.3403
     6.4548   6.7904   6.8923   6.9731   7.0242   7.1322   7.2087   7.2368
     7.2906   7.3630   7.3691   7.3808   7.3889   7.4068   7.4572   7.4818
     7.4947   7.4972   7.7284   7.7473   7.8208   7.8278   7.8295   7.8310
     7.8890   8.1419   8.3515   8.4102   8.5478   8.6238   8.6727   8.7141
[...]
------------------
     ethr =  5.67E-10,  avg # of iterations =  2.0

     negative rho (up, down):  3.314E-03 0.000E+00

     total cpu time spent up to now is    50583.2 secs

     total energy              =  -22314.97779900 Ry
     estimated scf accuracy    <       0.00000772 Ry

     iteration #169     ecut=    40.00 Ry     beta= 0.40
     Davidson diagonalization with overlap

---- Real-time Memory Report at c_bands before calling an iterative solver
           653 MiB given to the printing process from OS
             0 MiB allocation reported by mallinfo(arena+hblkhd)
        168395 MiB available memory on the node where the printing process lives
------------------
     ethr =  5.67E-10,  avg # of iterations =  2.0

     negative rho (up, down):  3.313E-03 0.000E+00

     total cpu time spent up to now is    50663.1 secs

     total energy              =  -22314.97781465 Ry
     estimated scf accuracy    <       0.00001136 Ry

     iteration #170     ecut=    40.00 Ry     beta= 0.40
     Davidson diagonalization with overlap

---- Real-time Memory Report at c_bands before calling an iterative solver
           653 MiB given to the printing process from OS
             0 MiB allocation reported by mallinfo(arena+hblkhd)
        168395 MiB available memory on the node where the printing process lives
------------------
     ethr =  5.67E-10,  avg # of iterations =  3.0

     negative rho (up, down):  3.313E-03 0.000E+00

     total cpu time spent up to now is    50747.0 secs

     total energy              =  -22314.97798104 Ry
     estimated scf accuracy    <       0.00004977 Ry

     iteration #171     ecut=    40.00 Ry     beta= 0.40
     Davidson diagonalization with overlap

---- Real-time Memory Report at c_bands before calling an iterative solver
           653 MiB given to the printing process from OS
             0 MiB allocation reported by mallinfo(arena+hblkhd)
        168394 MiB available memory on the node where the printing process lives
------------------
     ethr =  5.67E-10,  avg # of iterations = 11.6

     negative rho (up, down):  3.313E-03 0.000E+00

     total cpu time spent up to now is    50870.3 secs

     total energy              =  -22314.97704738 Ry
     estimated scf accuracy    <       0.00435154 Ry

     iteration #172     ecut=    40.00 Ry     beta= 0.40
     Davidson diagonalization with overlap

---- Real-time Memory Report at c_bands before calling an iterative solver
           653 MiB given to the printing process from OS
             0 MiB allocation reported by mallinfo(arena+hblkhd)
        168384 MiB available memory on the node where the printing process lives
------------------
     ethr =  5.67E-10,  avg # of iterations =  9.4

     negative rho (up, down):  3.314E-03 0.000E+00

     total cpu time spent up to now is    50994.2 secs

     total energy              =  -22314.97780025 Ry
     estimated scf accuracy    <       0.00000600 Ry

     iteration #173     ecut=    40.00 Ry     beta= 0.40
     Davidson diagonalization with overlap

---- Real-time Memory Report at c_bands before calling an iterative solver
           653 MiB given to the printing process from OS
             0 MiB allocation reported by mallinfo(arena+hblkhd)
        168484 MiB available memory on the node where the printing process lives
------------------
     ethr =  5.67E-10,  avg # of iterations =  6.0

     negative rho (up, down):  3.314E-03 0.000E+00

     total cpu time spent up to now is    51093.2 secs

     total energy              =  -22314.97777046 Ry
     estimated scf accuracy    <       0.00003593 Ry

     iteration #174     ecut=    40.00 Ry     beta= 0.40
     Davidson diagonalization with overlap

---- Real-time Memory Report at c_bands before calling an iterative solver
           653 MiB given to the printing process from OS
             0 MiB allocation reported by mallinfo(arena+hblkhd)
        168483 MiB available memory on the node where the printing process lives
------------------
     ethr =  5.67E-10,  avg # of iterations =  2.4

     negative rho (up, down):  3.314E-03 0.000E+00

     total cpu time spent up to now is    51174.7 secs

     total energy              =  -22314.97781264 Ry
     estimated scf accuracy    <       0.00002266 Ry

     iteration #175     ecut=    40.00 Ry     beta= 0.40
     Davidson diagonalization with overlap

---- Real-time Memory Report at c_bands before calling an iterative solver
           653 MiB given to the printing process from OS
             0 MiB allocation reported by mallinfo(arena+hblkhd)
        168482 MiB available memory on the node where the printing process lives
------------------
     ethr =  5.67E-10,  avg # of iterations =  4.0

     negative rho (up, down):  3.314E-03 0.000E+00

     total cpu time spent up to now is    51262.1 secs

     total energy              =  -22314.97778518 Ry
     estimated scf accuracy    <       0.00000562 Ry

     iteration #176     ecut=    40.00 Ry     beta= 0.40
     Davidson diagonalization with overlap

---- Real-time Memory Report at c_bands before calling an iterative solver
           653 MiB given to the printing process from OS
             0 MiB allocation reported by mallinfo(arena+hblkhd)
        168481 MiB available memory on the node where the printing process lives
------------------
     ethr =  5.61E-10,  avg # of iterations =  3.0

     negative rho (up, down):  3.314E-03 0.000E+00

     total cpu time spent up to now is    51345.2 secs

     total energy              =  -22314.97778605 Ry
     estimated scf accuracy    <       0.00000865 Ry

     iteration #177     ecut=    40.00 Ry     beta= 0.40
     Davidson diagonalization with overlap

---- Real-time Memory Report at c_bands before calling an iterative solver
           653 MiB given to the printing process from OS
             0 MiB allocation reported by mallinfo(arena+hblkhd)
        168481 MiB available memory on the node where the printing process lives
------------------
     ethr =  5.61E-10,  avg # of iterations =  2.0

     negative rho (up, down):  3.314E-03 0.000E+00

     total cpu time spent up to now is    51425.2 secs

     total energy              =  -22314.97778848 Ry
     estimated scf accuracy    <       0.00000668 Ry

     iteration #178     ecut=    40.00 Ry     beta= 0.40
     Davidson diagonalization with overlap

---- Real-time Memory Report at c_bands before calling an iterative solver
           653 MiB given to the printing process from OS
             0 MiB allocation reported by mallinfo(arena+hblkhd)
        168480 MiB available memory on the node where the printing process lives
------------------
     ethr =  5.61E-10,  avg # of iterations =  2.0

     negative rho (up, down):  3.314E-03 0.000E+00

     total cpu time spent up to now is    51505.1 secs

     total energy              =  -22314.97779266 Ry
     estimated scf accuracy    <       0.00000578 Ry

     iteration #179     ecut=    40.00 Ry     beta= 0.40
     Davidson diagonalization with overlap

---- Real-time Memory Report at c_bands before calling an iterative solver
           653 MiB given to the printing process from OS
             0 MiB allocation reported by mallinfo(arena+hblkhd)
        168478 MiB available memory on the node where the printing process lives
------------------
     ethr =  5.61E-10,  avg # of iterations =  2.0

     negative rho (up, down):  3.313E-03 0.000E+00

     total cpu time spent up to now is    51585.8 secs

     total energy              =  -22314.97781725 Ry
     estimated scf accuracy    <       0.00000586 Ry

     iteration #180     ecut=    40.00 Ry     beta= 0.40
     Davidson diagonalization with overlap

---- Real-time Memory Report at c_bands before calling an iterative solver
           653 MiB given to the printing process from OS
             0 MiB allocation reported by mallinfo(arena+hblkhd)
        168478 MiB available memory on the node where the printing process lives
------------------
     ethr =  5.61E-10,  avg # of iterations =  4.0

     negative rho (up, down):  3.314E-03 0.000E+00

     total cpu time spent up to now is    51672.6 secs

     total energy              =  -22314.97778328 Ry
     estimated scf accuracy    <       0.00004526 Ry

     iteration #181     ecut=    40.00 Ry     beta= 0.40
     Davidson diagonalization with overlap

---- Real-time Memory Report at c_bands before calling an iterative solver
           653 MiB given to the printing process from OS
             0 MiB allocation reported by mallinfo(arena+hblkhd)
        168475 MiB available memory on the node where the printing process lives
------------------
     ethr =  5.61E-10,  avg # of iterations =  4.0

     negative rho (up, down):  3.314E-03 0.000E+00

     total cpu time spent up to now is    51761.6 secs

     total energy              =  -22314.97778372 Ry
     estimated scf accuracy    <       0.00000603 Ry

     iteration #182     ecut=    40.00 Ry     beta= 0.40
     Davidson diagonalization with overlap

---- Real-time Memory Report at c_bands before calling an iterative solver
           653 MiB given to the printing process from OS
             0 MiB allocation reported by mallinfo(arena+hblkhd)
        168476 MiB available memory on the node where the printing process lives
------------------
     ethr =  5.61E-10,  avg # of iterations =  2.6

     negative rho (up, down):  3.314E-03 0.000E+00

     total cpu time spent up to now is    51843.8 secs

     total energy              =  -22314.97778874 Ry
     estimated scf accuracy    <       0.00000914 Ry

     iteration #183     ecut=    40.00 Ry     beta= 0.40
     Davidson diagonalization with overlap

---- Real-time Memory Report at c_bands before calling an iterative solver
           653 MiB given to the printing process from OS
             0 MiB allocation reported by mallinfo(arena+hblkhd)
        168475 MiB available memory on the node where the printing process lives
------------------
     ethr =  5.61E-10,  avg # of iterations =  2.0

     negative rho (up, down):  3.314E-03 0.000E+00

     total cpu time spent up to now is    51925.1 secs

     total energy              =  -22314.97778255 Ry
     estimated scf accuracy    <       0.00000608 Ry

     iteration #184     ecut=    40.00 Ry     beta= 0.40
     Davidson diagonalization with overlap

---- Real-time Memory Report at c_bands before calling an iterative solver
           653 MiB given to the printing process from OS
             0 MiB allocation reported by mallinfo(arena+hblkhd)
        168473 MiB available memory on the node where the printing process lives
------------------
     ethr =  5.61E-10,  avg # of iterations =  3.0

     negative rho (up, down):  3.314E-03 0.000E+00

     total cpu time spent up to now is    52009.2 secs

     total energy              =  -22314.97777005 Ry
     estimated scf accuracy    <       0.00001646 Ry

     iteration #185     ecut=    40.00 Ry     beta= 0.40
     Davidson diagonalization with overlap

---- Real-time Memory Report at c_bands before calling an iterative solver
           653 MiB given to the printing process from OS
             0 MiB allocation reported by mallinfo(arena+hblkhd)
        168473 MiB available memory on the node where the printing process lives
------------------
     ethr =  5.61E-10,  avg # of iterations =  2.0

     negative rho (up, down):  3.314E-03 0.000E+00

     total cpu time spent up to now is    52088.9 secs

     total energy              =  -22314.97776210 Ry
     estimated scf accuracy    <       0.00002108 Ry

     iteration #186     ecut=    40.00 Ry     beta= 0.40
     Davidson diagonalization with overlap

---- Real-time Memory Report at c_bands before calling an iterative solver
           653 MiB given to the printing process from OS
             0 MiB allocation reported by mallinfo(arena+hblkhd)
        168472 MiB available memory on the node where the printing process lives
------------------
     ethr =  5.61E-10,  avg # of iterations =  2.4

     negative rho (up, down):  3.315E-03 0.000E+00

     total cpu time spent up to now is    52170.6 secs

     total energy              =  -22314.97774395 Ry
     estimated scf accuracy    <       0.00003260 Ry

     iteration #187     ecut=    40.00 Ry     beta= 0.40
     Davidson diagonalization with overlap

---- Real-time Memory Report at c_bands before calling an iterative solver
           653 MiB given to the printing process from OS
             0 MiB allocation reported by mallinfo(arena+hblkhd)
        168471 MiB available memory on the node where the printing process lives
------------------
     ethr =  5.61E-10,  avg # of iterations =  3.0

     negative rho (up, down):  3.315E-03 0.000E+00

     total cpu time spent up to now is    52254.5 secs

     total energy              =  -22314.97772333 Ry
     estimated scf accuracy    <       0.00006219 Ry

     iteration #188     ecut=    40.00 Ry     beta= 0.40
     Davidson diagonalization with overlap

---- Real-time Memory Report at c_bands before calling an iterative solver
           653 MiB given to the printing process from OS
             0 MiB allocation reported by mallinfo(arena+hblkhd)
        168473 MiB available memory on the node where the printing process lives
------------------
     ethr =  5.61E-10,  avg # of iterations =  2.4

     negative rho (up, down):  3.315E-03 0.000E+00

     total cpu time spent up to now is    52336.1 secs

     total energy              =  -22314.97774181 Ry
     estimated scf accuracy    <       0.00007840 Ry

     iteration #189     ecut=    40.00 Ry     beta= 0.40
     Davidson diagonalization with overlap

---- Real-time Memory Report at c_bands before calling an iterative solver
           653 MiB given to the printing process from OS
             0 MiB allocation reported by mallinfo(arena+hblkhd)
        168468 MiB available memory on the node where the printing process lives
------------------
     ethr =  5.61E-10,  avg # of iterations =  2.4

     negative rho (up, down):  3.314E-03 0.000E+00

     total cpu time spent up to now is    52417.9 secs

     total energy              =  -22314.97793645 Ry
     estimated scf accuracy    <       0.00005793 Ry

     iteration #190     ecut=    40.00 Ry     beta= 0.40
     Davidson diagonalization with overlap

---- Real-time Memory Report at c_bands before calling an iterative solver
           653 MiB given to the printing process from OS
             0 MiB allocation reported by mallinfo(arena+hblkhd)
        168468 MiB available memory on the node where the printing process lives
------------------
     ethr =  5.61E-10,  avg # of iterations =  5.0

     negative rho (up, down):  3.313E-03 0.000E+00

     total cpu time spent up to now is    52523.7 secs

     total energy              =  -22314.97781464 Ry
     estimated scf accuracy    <       0.00001425 Ry

     iteration #191     ecut=    40.00 Ry     beta= 0.40
     Davidson diagonalization with overlap

---- Real-time Memory Report at c_bands before calling an iterative solver
           653 MiB given to the printing process from OS
             0 MiB allocation reported by mallinfo(arena+hblkhd)
        168467 MiB available memory on the node where the printing process lives
------------------
     ethr =  5.61E-10,  avg # of iterations =  3.0

     negative rho (up, down):  3.313E-03 0.000E+00

     total cpu time spent up to now is    52607.0 secs

     total energy              =  -22314.97782632 Ry
     estimated scf accuracy    <       0.00004957 Ry

     iteration #192     ecut=    40.00 Ry     beta= 0.40
     Davidson diagonalization with overlap

---- Real-time Memory Report at c_bands before calling an iterative solver
           653 MiB given to the printing process from OS
             0 MiB allocation reported by mallinfo(arena+hblkhd)
        168466 MiB available memory on the node where the printing process lives
------------------
     ethr =  5.61E-10,  avg # of iterations =  2.0

     negative rho (up, down):  3.314E-03 0.000E+00

     total cpu time spent up to now is    52687.2 secs

     total energy              =  -22314.97778043 Ry
     estimated scf accuracy    <       0.00008931 Ry

     iteration #193     ecut=    40.00 Ry     beta= 0.40
     Davidson diagonalization with overlap

---- Real-time Memory Report at c_bands before calling an iterative solver
           653 MiB given to the printing process from OS
             0 MiB allocation reported by mallinfo(arena+hblkhd)
        168464 MiB available memory on the node where the printing process lives
------------------
     ethr =  5.61E-10,  avg # of iterations =  4.0

     negative rho (up, down):  3.314E-03 0.000E+00

     total cpu time spent up to now is    52774.5 secs

     total energy              =  -22314.97778899 Ry
     estimated scf accuracy    <       0.00000697 Ry

     iteration #194     ecut=    40.00 Ry     beta= 0.40
     Davidson diagonalization with overlap

---- Real-time Memory Report at c_bands before calling an iterative solver
           653 MiB given to the printing process from OS
             0 MiB allocation reported by mallinfo(arena+hblkhd)
        168467 MiB available memory on the node where the printing process lives
------------------
     ethr =  5.61E-10,  avg # of iterations =  3.0

     negative rho (up, down):  3.314E-03 0.000E+00

     total cpu time spent up to now is    52859.0 secs

     total energy              =  -22314.97778922 Ry
     estimated scf accuracy    <       0.00000741 Ry

     iteration #195     ecut=    40.00 Ry     beta= 0.40
     Davidson diagonalization with overlap

---- Real-time Memory Report at c_bands before calling an iterative solver
           653 MiB given to the printing process from OS
             0 MiB allocation reported by mallinfo(arena+hblkhd)
        168463 MiB available memory on the node where the printing process lives
------------------
     ethr =  5.61E-10,  avg # of iterations =  2.0

     negative rho (up, down):  3.314E-03 0.000E+00

     total cpu time spent up to now is    52939.4 secs

     total energy              =  -22314.97780923 Ry
     estimated scf accuracy    <       0.00000575 Ry

     iteration #196     ecut=    40.00 Ry     beta= 0.40
     Davidson diagonalization with overlap

---- Real-time Memory Report at c_bands before calling an iterative solver
           653 MiB given to the printing process from OS
             0 MiB allocation reported by mallinfo(arena+hblkhd)
        168449 MiB available memory on the node where the printing process lives
------------------
     ethr =  5.61E-10,  avg # of iterations =  4.0

     negative rho (up, down):  3.313E-03 0.000E+00

     total cpu time spent up to now is    53025.4 secs

     total energy              =  -22314.97781081 Ry
     estimated scf accuracy    <       0.00001710 Ry

     iteration #197     ecut=    40.00 Ry     beta= 0.40
     Davidson diagonalization with overlap

---- Real-time Memory Report at c_bands before calling an iterative solver
           653 MiB given to the printing process from OS
             0 MiB allocation reported by mallinfo(arena+hblkhd)
        168448 MiB available memory on the node where the printing process lives
------------------
     ethr =  5.61E-10,  avg # of iterations =  2.0

     negative rho (up, down):  3.313E-03 0.000E+00

     total cpu time spent up to now is    53106.8 secs

     total energy              =  -22314.97780315 Ry
     estimated scf accuracy    <       0.00003622 Ry

     iteration #198     ecut=    40.00 Ry     beta= 0.40
     Davidson diagonalization with overlap

---- Real-time Memory Report at c_bands before calling an iterative solver
           653 MiB given to the printing process from OS
             0 MiB allocation reported by mallinfo(arena+hblkhd)
        168449 MiB available memory on the node where the printing process lives
------------------
