
     Program PWSCF v.7.3.1 starts on 27Mar2025 at  1:11:43 

     This program is part of the open-source Quantum ESPRESSO suite
     for quantum simulation of materials; please cite
         "P. Giannozzi et al., J. Phys.:Condens. Matter 21 395502 (2009);
         "P. Giannozzi et al., J. Phys.:Condens. Matter 29 465901 (2017);
         "P. Giannozzi et al., J. Chem. Phys. 152 154105 (2020);
          URL http://www.quantum-espresso.org", 
     in publications or presentations arising from this work. More details at
     http://www.quantum-espresso.org/quote

     Parallel version (MPI), running on    33 processors

     MPI processes distributed on     1 nodes
     24562 MiB available memory on the printing compute node when the environment starts

     Waiting for input...
     Reading input from standard input

     Current dimensions of program PWSCF are:
     Max number of different atomic species (ntypx) = 10
     Max number of k-points (npk) =  40000
     Max angular momentum in pseudopotentials (lmaxx) =  4
     Found identity + ( -0.5000  0.0000  0.0000) symmetry
     This is a supercell, fractional translations are disabled

     R & G space division:  proc/nbgrp/npool/nimage =      33
     Subspace diagonalization in iterative solution of the eigenvalue problem:
     one sub-group per band group will be used
     custom distributed-memory algorithm (size of sub-group:  5*  5 procs)


     Parallelization info
     --------------------
     sticks:   dense  smooth     PW     G-vecs:    dense   smooth      PW
     Min         228     130     36                36393    15714    2270
     Max         230     131     37                36401    15723    2280
     Sum        7555    4303   1189              1201061   518755   75035

     Using Slab Decomposition



     bravais-lattice index     =            0
     lattice parameter (alat)  =      19.7617  a.u.
     unit-cell volume          =   15176.5939 (a.u.)^3
     number of atoms/cell      =           48
     number of atomic types    =            1
     number of electrons       =       960.00
     number of Kohn-Sham states=          576
     kinetic-energy cutoff     =      40.0000  Ry
     charge density cutoff     =     280.0000  Ry
     scf convergence threshold =      1.0E-05
     mixing beta               =       0.4000
     number of iterations used =            8  plain     mixing
     Exchange-correlation= SLA  PW   PBE  PBE
                           (   1   4   3   4   0   0   0)

     celldm(1)=  19.761696  celldm(2)=   0.000000  celldm(3)=   0.000000
     celldm(4)=   0.000000  celldm(5)=   0.000000  celldm(6)=   0.000000

     crystal axes: (cart. coord. in units of alat)
               a(1) = (   1.000000   0.000000   0.000000 )  
               a(2) = (  -0.500000   0.866025   0.000000 )  
               a(3) = (   0.000000   0.000000   2.270759 )  

     reciprocal axes: (cart. coord. in units 2 pi/alat)
               b(1) = (  1.000000  0.577350 -0.000000 )  
               b(2) = (  0.000000  1.154701  0.000000 )  
               b(3) = (  0.000000 -0.000000  0.440381 )  


     PseudoPot. # 1 for Zn read from file:
     /home/ys/qepseudo/SSSP_1.3.0_PBE_efficiency/Zn_pbe_v1.uspp.F.UPF
     MD5 check sum: df62231357ef9e81f77b2b3087fa5675
     Pseudo is Ultrasoft, Zval = 20.0
     Generated by new atomic code, or converted to UPF format
     Using radial grid of  943 points,  6 beta functions with: 
                l(1) =   0
                l(2) =   0
                l(3) =   1
                l(4) =   1
                l(5) =   2
                l(6) =   2
     Q(r) pseudized with  8 coefficients,  rinner =    1.100   1.100   1.100
                                                       1.100   1.100

     atomic species   valence    mass     pseudopotential
     Zn               20.00    65.38000     Zn( 1.00)

     No symmetry found


                                    s                        frac. trans.

      isym =  1     identity                                     

 cryst.   s( 1) = (     1          0          0      )
                  (     0          1          0      )
                  (     0          0          1      )

 cart.    s( 1) = (  1.0000000  0.0000000  0.0000000 )
                  (  0.0000000  1.0000000  0.0000000 )
                  (  0.0000000  0.0000000  1.0000000 )


   Cartesian axes

     site n.     atom                  positions (alat units)
         1        Zn     tau(   1) = (   0.0000000   0.1443375   0.1164998  )
         2        Zn     tau(   2) = (   0.5000000   0.1443375   0.1164998  )
         3        Zn     tau(   3) = (   0.0000000   0.1443375   0.5824993  )
         4        Zn     tau(   4) = (   0.5000000   0.1443375   0.5824993  )
         5        Zn     tau(   5) = (  -0.1250000   0.3608439   0.1164998  )
         6        Zn     tau(   6) = (   0.3750000   0.3608439   0.1164998  )
         7        Zn     tau(   7) = (  -0.1250000   0.3608439   0.5824993  )
         8        Zn     tau(   8) = (   0.3750000   0.3608439   0.5824993  )
         9        Zn     tau(   9) = (  -0.2500000   0.5773502   0.1164998  )
        10        Zn     tau(  10) = (   0.2500000   0.5773502   0.1164998  )
        11        Zn     tau(  11) = (  -0.2500000   0.5773502   0.5824993  )
        12        Zn     tau(  12) = (   0.2500000   0.5773502   0.5824993  )
        13        Zn     tau(  13) = (  -0.3750000   0.7938567   0.1164998  )
        14        Zn     tau(  14) = (   0.1250000   0.7938567   0.1164998  )
        15        Zn     tau(  15) = (  -0.3750000   0.7938567   0.5824993  )
        16        Zn     tau(  16) = (   0.1250000   0.7938567   0.5824993  )
        17        Zn     tau(  17) = (   0.2500000   0.1443375   0.1164998  )
        18        Zn     tau(  18) = (   0.7500000   0.1443375   0.1164998  )
        19        Zn     tau(  19) = (   0.2500000   0.1443375   0.5824993  )
        20        Zn     tau(  20) = (   0.7500000   0.1443375   0.5824993  )
        21        Zn     tau(  21) = (   0.1250000   0.3608439   0.1164998  )
        22        Zn     tau(  22) = (   0.6250000   0.3608439   0.1164998  )
        23        Zn     tau(  23) = (   0.1250000   0.3608439   0.5824993  )
        24        Zn     tau(  24) = (   0.6250000   0.3608439   0.5824993  )
        25        Zn     tau(  25) = (   0.0000000   0.5773502   0.1164998  )
        26        Zn     tau(  26) = (   0.5000000   0.5773502   0.1164998  )
        27        Zn     tau(  27) = (   0.0000000   0.5773502   0.5824993  )
        28        Zn     tau(  28) = (   0.5000000   0.5773502   0.5824993  )
        29        Zn     tau(  29) = (  -0.1250000   0.7938567   0.1164998  )
        30        Zn     tau(  30) = (   0.3750000   0.7938567   0.1164998  )
        31        Zn     tau(  31) = (  -0.1250000   0.7938567   0.5824993  )
        32        Zn     tau(  32) = (   0.3750000   0.7938567   0.5824993  )
        33        Zn     tau(  33) = (   0.1250000   0.0721688   0.3494996  )
        34        Zn     tau(  34) = (   0.6250000   0.0721688   0.3494996  )
        35        Zn     tau(  35) = (   0.0000000   0.2886752   0.3494996  )
        36        Zn     tau(  36) = (   0.5000000   0.2886752   0.3494996  )
        37        Zn     tau(  37) = (  -0.1250000   0.5051815   0.3494996  )
        38        Zn     tau(  38) = (   0.3750000   0.5051815   0.3494996  )
        39        Zn     tau(  39) = (  -0.2500000   0.7216879   0.3494996  )
        40        Zn     tau(  40) = (   0.2500000   0.7216879   0.3494996  )
        41        Zn     tau(  41) = (   0.3750000   0.0721688   0.3494996  )
        42        Zn     tau(  42) = (   0.8750000   0.0721688   0.3494996  )
        43        Zn     tau(  43) = (   0.2500000   0.2886752   0.3494996  )
        44        Zn     tau(  44) = (   0.7500000   0.2886752   0.3494996  )
        45        Zn     tau(  45) = (   0.1250000   0.5051815   0.3494996  )
        46        Zn     tau(  46) = (   0.6250000   0.5051815   0.3494996  )
        47        Zn     tau(  47) = (   0.0000000   0.7216879   0.3494996  )
        48        Zn     tau(  48) = (   0.5000000   0.7216879   0.3494996  )

   Crystallographic axes

     site n.     atom                  positions (cryst. coord.)
         1        Zn     tau(   1) = (  0.0833333  0.1666666  0.0513044  )
         2        Zn     tau(   2) = (  0.5833333  0.1666666  0.0513044  )
         3        Zn     tau(   3) = (  0.0833333  0.1666666  0.2565219  )
         4        Zn     tau(   4) = (  0.5833333  0.1666666  0.2565219  )
         5        Zn     tau(   5) = (  0.0833333  0.4166666  0.0513044  )
         6        Zn     tau(   6) = (  0.5833333  0.4166666  0.0513044  )
         7        Zn     tau(   7) = (  0.0833333  0.4166666  0.2565219  )
         8        Zn     tau(   8) = (  0.5833333  0.4166666  0.2565219  )
         9        Zn     tau(   9) = (  0.0833333  0.6666666  0.0513044  )
        10        Zn     tau(  10) = (  0.5833333  0.6666666  0.0513044  )
        11        Zn     tau(  11) = (  0.0833333  0.6666666  0.2565219  )
        12        Zn     tau(  12) = (  0.5833333  0.6666666  0.2565219  )
        13        Zn     tau(  13) = (  0.0833333  0.9166667  0.0513044  )
        14        Zn     tau(  14) = (  0.5833334  0.9166667  0.0513044  )
        15        Zn     tau(  15) = (  0.0833333  0.9166667  0.2565219  )
        16        Zn     tau(  16) = (  0.5833334  0.9166667  0.2565219  )
        17        Zn     tau(  17) = (  0.3333333  0.1666666  0.0513044  )
        18        Zn     tau(  18) = (  0.8333334  0.1666666  0.0513044  )
        19        Zn     tau(  19) = (  0.3333333  0.1666666  0.2565219  )
        20        Zn     tau(  20) = (  0.8333334  0.1666666  0.2565219  )
        21        Zn     tau(  21) = (  0.3333333  0.4166666  0.0513044  )
        22        Zn     tau(  22) = (  0.8333333  0.4166666  0.0513044  )
        23        Zn     tau(  23) = (  0.3333333  0.4166666  0.2565219  )
        24        Zn     tau(  24) = (  0.8333333  0.4166666  0.2565219  )
        25        Zn     tau(  25) = (  0.3333333  0.6666666  0.0513044  )
        26        Zn     tau(  26) = (  0.8333333  0.6666666  0.0513044  )
        27        Zn     tau(  27) = (  0.3333333  0.6666666  0.2565219  )
        28        Zn     tau(  28) = (  0.8333333  0.6666666  0.2565219  )
        29        Zn     tau(  29) = (  0.3333334  0.9166667  0.0513044  )
        30        Zn     tau(  30) = (  0.8333334  0.9166667  0.0513044  )
        31        Zn     tau(  31) = (  0.3333334  0.9166667  0.2565219  )
        32        Zn     tau(  32) = (  0.8333334  0.9166667  0.2565219  )
        33        Zn     tau(  33) = (  0.1666667  0.0833334  0.1539131  )
        34        Zn     tau(  34) = (  0.6666667  0.0833334  0.1539131  )
        35        Zn     tau(  35) = (  0.1666667  0.3333334  0.1539131  )
        36        Zn     tau(  36) = (  0.6666667  0.3333334  0.1539131  )
        37        Zn     tau(  37) = (  0.1666667  0.5833334  0.1539131  )
        38        Zn     tau(  38) = (  0.6666667  0.5833334  0.1539131  )
        39        Zn     tau(  39) = (  0.1666667  0.8333334  0.1539131  )
        40        Zn     tau(  40) = (  0.6666667  0.8333334  0.1539131  )
        41        Zn     tau(  41) = (  0.4166667  0.0833334  0.1539131  )
        42        Zn     tau(  42) = (  0.9166667  0.0833334  0.1539131  )
        43        Zn     tau(  43) = (  0.4166667  0.3333334  0.1539131  )
        44        Zn     tau(  44) = (  0.9166667  0.3333334  0.1539131  )
        45        Zn     tau(  45) = (  0.4166667  0.5833334  0.1539131  )
        46        Zn     tau(  46) = (  0.9166667  0.5833334  0.1539131  )
        47        Zn     tau(  47) = (  0.4166667  0.8333334  0.1539131  )
        48        Zn     tau(  48) = (  0.9166667  0.8333334  0.1539131  )

     number of k points=     4  Marzari-Vanderbilt smearing, width (Ry)=  0.0200
                       cart. coord. in units 2pi/alat
        k(    1) = (   0.0000000   0.0000000   0.0000000), wk =   0.5000000
        k(    2) = (   0.0000000  -0.5773503   0.0000000), wk =   0.5000000
        k(    3) = (  -0.5000000  -0.2886751   0.0000000), wk =   0.5000000
        k(    4) = (  -0.5000000  -0.8660254   0.0000000), wk =   0.5000000

                       cryst. coord.
        k(    1) = (   0.0000000   0.0000000   0.0000000), wk =   0.5000000
        k(    2) = (   0.0000000  -0.5000000   0.0000000), wk =   0.5000000
        k(    3) = (  -0.5000000   0.0000000   0.0000000), wk =   0.5000000
        k(    4) = (  -0.5000000  -0.5000000   0.0000000), wk =   0.5000000

     Dense  grid:  1201061 G-vectors     FFT dimensions: ( 108, 108, 240)

     Smooth grid:   518755 G-vectors     FFT dimensions: (  80,  80, 192)

     Dynamical RAM for                 wfc:      17.26 MB

     Dynamical RAM for     wfc (w. buffer):      86.31 MB

     Dynamical RAM for           str. fact:       0.56 MB

     Dynamical RAM for           local pot:       0.00 MB

     Dynamical RAM for          nlocal pot:      25.89 MB

     Dynamical RAM for                qrad:       1.34 MB

     Dynamical RAM for          rho,v,vnew:       3.80 MB

     Dynamical RAM for               rhoin:       1.27 MB

     Dynamical RAM for            rho*nmix:       8.89 MB

     Dynamical RAM for           G-vectors:       2.20 MB

     Dynamical RAM for          h,s,v(r/c):       2.42 MB

     Dynamical RAM for          <psi|beta>:       7.59 MB

     Dynamical RAM for                 psi:      34.52 MB

     Dynamical RAM for                hpsi:      34.52 MB

     Dynamical RAM for                spsi:      34.52 MB

     Dynamical RAM for      wfcinit/wfcrot:      46.32 MB

     Dynamical RAM for           addusdens:     129.95 MB

     Estimated static dynamical RAM per process >     126.04 MB

     Estimated max dynamical RAM per process >     264.88 MB

     Estimated total dynamical RAM >       8.54 GB

     Initial potential from superposition of free atoms

     starting charge     959.9932, renormalised to     960.0000

     negative rho (up, down):  4.194E-03 0.000E+00
     Starting wfcs are  624 randomized atomic wfcs

     total cpu time spent up to now is       47.1 secs

     Self-consistent Calculation

     iteration #  1     ecut=    40.00 Ry     beta= 0.40
     Davidson diagonalization with overlap

---- Real-time Memory Report at c_bands before calling an iterative solver
           191 MiB given to the printing process from OS
             0 MiB allocation reported by mallinfo(arena+hblkhd)
         20049 MiB available memory on the node where the printing process lives
------------------
     ethr =  1.00E-02,  avg # of iterations =  9.2

     Threshold (ethr) on eigenvalues was too large:
     Diagonalizing with lowered threshold

     Davidson diagonalization with overlap

---- Real-time Memory Report at c_bands before calling an iterative solver
           284 MiB given to the printing process from OS
             0 MiB allocation reported by mallinfo(arena+hblkhd)
         18923 MiB available memory on the node where the printing process lives
------------------
     ethr =  1.65E-04,  avg # of iterations = 10.5

     negative rho (up, down):  4.980E-03 0.000E+00

     total cpu time spent up to now is      414.8 secs

     total energy              =  -22153.70642164 Ry
     estimated scf accuracy    <       1.61498437 Ry

     iteration #  2     ecut=    40.00 Ry     beta= 0.40
     Davidson diagonalization with overlap

---- Real-time Memory Report at c_bands before calling an iterative solver
           292 MiB given to the printing process from OS
             0 MiB allocation reported by mallinfo(arena+hblkhd)
         18817 MiB available memory on the node where the printing process lives
------------------
     ethr =  1.68E-04,  avg # of iterations =  2.0

     negative rho (up, down):  5.484E-03 0.000E+00

     total cpu time spent up to now is      595.0 secs

     total energy              =  -22154.08574587 Ry
     estimated scf accuracy    <       0.33692724 Ry

     iteration #  3     ecut=    40.00 Ry     beta= 0.40
     Davidson diagonalization with overlap

---- Real-time Memory Report at c_bands before calling an iterative solver
           295 MiB given to the printing process from OS
             0 MiB allocation reported by mallinfo(arena+hblkhd)
         18795 MiB available memory on the node where the printing process lives
------------------
     ethr =  3.51E-05,  avg # of iterations = 10.2

     negative rho (up, down):  5.825E-03 0.000E+00

     total cpu time spent up to now is      764.2 secs

     total energy              =  -22154.10853307 Ry
     estimated scf accuracy    <       0.10639233 Ry

     iteration #  4     ecut=    40.00 Ry     beta= 0.40
     Davidson diagonalization with overlap

---- Real-time Memory Report at c_bands before calling an iterative solver
           295 MiB given to the printing process from OS
             0 MiB allocation reported by mallinfo(arena+hblkhd)
         18768 MiB available memory on the node where the printing process lives
------------------
     ethr =  1.11E-05,  avg # of iterations =  8.2

     negative rho (up, down):  5.944E-03 0.000E+00

     total cpu time spent up to now is      936.7 secs

     total energy              =  -22154.11819726 Ry
     estimated scf accuracy    <       0.06328066 Ry

     iteration #  5     ecut=    40.00 Ry     beta= 0.40
     Davidson diagonalization with overlap

---- Real-time Memory Report at c_bands before calling an iterative solver
           296 MiB given to the printing process from OS
             0 MiB allocation reported by mallinfo(arena+hblkhd)
         18745 MiB available memory on the node where the printing process lives
------------------
     ethr =  6.59E-06,  avg # of iterations =  2.0

     negative rho (up, down):  5.985E-03 0.000E+00

     total cpu time spent up to now is     1091.0 secs

     total energy              =  -22154.12340588 Ry
     estimated scf accuracy    <       0.00188269 Ry

     iteration #  6     ecut=    40.00 Ry     beta= 0.40
     Davidson diagonalization with overlap

---- Real-time Memory Report at c_bands before calling an iterative solver
           296 MiB given to the printing process from OS
             0 MiB allocation reported by mallinfo(arena+hblkhd)
         18726 MiB available memory on the node where the printing process lives
------------------
     ethr =  1.96E-07,  avg # of iterations =  5.0

     negative rho (up, down):  6.019E-03 0.000E+00

     total cpu time spent up to now is     1283.4 secs

     total energy              =  -22154.12343305 Ry
     estimated scf accuracy    <       0.00628069 Ry

     iteration #  7     ecut=    40.00 Ry     beta= 0.40
     Davidson diagonalization with overlap

---- Real-time Memory Report at c_bands before calling an iterative solver
           297 MiB given to the printing process from OS
             0 MiB allocation reported by mallinfo(arena+hblkhd)
         18709 MiB available memory on the node where the printing process lives
------------------
     ethr =  1.96E-07,  avg # of iterations =  1.0

     negative rho (up, down):  6.043E-03 0.000E+00

     total cpu time spent up to now is     1406.1 secs

     total energy              =  -22154.12380510 Ry
     estimated scf accuracy    <       0.00004982 Ry

     iteration #  8     ecut=    40.00 Ry     beta= 0.40
     Davidson diagonalization with overlap

---- Real-time Memory Report at c_bands before calling an iterative solver
           297 MiB given to the printing process from OS
             0 MiB allocation reported by mallinfo(arena+hblkhd)
         18690 MiB available memory on the node where the printing process lives
------------------
     ethr =  5.19E-09,  avg # of iterations =  2.0

     negative rho (up, down):  6.059E-03 0.000E+00

     total cpu time spent up to now is     1581.2 secs

     total energy              =  -22154.12381056 Ry
     estimated scf accuracy    <       0.00001236 Ry

     iteration #  9     ecut=    40.00 Ry     beta= 0.40
     Davidson diagonalization with overlap

---- Real-time Memory Report at c_bands before calling an iterative solver
           298 MiB given to the printing process from OS
             0 MiB allocation reported by mallinfo(arena+hblkhd)
         18673 MiB available memory on the node where the printing process lives
------------------
     ethr =  1.29E-09,  avg # of iterations =  2.0

     negative rho (up, down):  6.089E-03 0.000E+00

     total cpu time spent up to now is     1737.6 secs

     End of self-consistent calculation

          k = 0.0000 0.0000 0.0000 ( 64855 PWs)   bands (ev):

  -124.9419-124.9406-124.9403-124.9398-124.9395-124.9393-124.9390-124.9387
  -124.9382-124.9382-124.9378-124.9375-124.9371-124.9366-124.9364-124.9359
  -124.9335-124.9333-124.9321-124.9320-124.9319-124.9318-124.9317-124.9315
  -124.9314-124.9312-124.9311-124.9309-124.9308-124.9307-124.9306-124.9304
  -124.9302-124.9300-124.9300-124.9298-124.9296-124.9295-124.9294-124.9294
  -124.9293-124.9292-124.9291-124.9291-124.9288-124.9285-124.9285-124.9282
   -79.1028 -79.1025 -79.1025 -79.1024 -79.1023 -79.1021 -79.1021 -79.1008
   -79.1007 -79.1006 -79.1006 -79.1006 -79.1002 -79.0998 -79.0996 -79.0995
   -79.0989 -79.0984 -79.0983 -79.0981 -79.0975 -79.0975 -79.0960 -79.0960
   -79.0958 -79.0958 -79.0957 -79.0956 -79.0954 -79.0952 -79.0952 -79.0944
   -79.0944 -79.0941 -79.0941 -79.0939 -79.0939 -79.0933 -79.0933 -79.0931
   -79.0929 -79.0927 -79.0926 -79.0851 -79.0850 -79.0847 -79.0846 -79.0843
   -79.0842 -79.0830 -79.0830 -79.0829 -79.0828 -79.0828 -79.0827 -79.0827
   -79.0827 -79.0826 -79.0825 -79.0825 -79.0824 -79.0824 -79.0824 -79.0823
   -79.0822 -79.0820 -79.0819 -79.0813 -79.0810 -79.0809 -79.0808 -79.0808
   -79.0807 -79.0806 -79.0805 -79.0804 -79.0803 -79.0803 -79.0802 -79.0802
   -79.0801 -79.0792 -79.0792 -79.0789 -79.0789 -79.0788 -79.0786 -79.0785
   -79.0783 -79.0782 -79.0781 -79.0780 -79.0779 -79.0778 -79.0776 -79.0775
   -79.0773 -79.0772 -79.0770 -79.0770 -79.0769 -79.0768 -79.0767 -79.0766
   -79.0765 -79.0765 -79.0763 -79.0761 -79.0759 -79.0759 -79.0758 -79.0758
   -79.0756 -79.0755 -79.0742 -79.0742 -79.0741 -79.0737 -79.0736 -79.0735
   -79.0713 -79.0712 -79.0710 -79.0709 -79.0706 -79.0705 -79.0697 -79.0696
   -79.0695 -79.0694 -79.0692 -79.0692 -79.0692 -79.0691 -79.0690 -79.0690
   -79.0688 -79.0687 -79.0660 -79.0659 -79.0647 -79.0646 -79.0644 -79.0643
    -8.5777  -7.4602  -7.0699  -7.0214  -7.0213  -7.0211  -7.0209  -7.0207
    -7.0206  -6.8012  -6.8011  -6.8011  -6.7544  -6.7544  -6.7544  -6.7379
    -6.7379  -6.7379  -6.5826  -6.5826  -6.5825  -6.5824  -6.5824  -6.5823
    -6.5634  -6.5634  -6.5633  -6.5632  -6.5631  -6.5631  -6.5141  -6.5141
    -6.5140  -6.4160  -6.4159  -6.4157  -6.4157  -6.4152  -6.4152  -6.3623
    -6.3623  -6.3621  -6.3621  -6.3617  -6.3616  -6.3542  -6.3542  -6.3542
    -6.3272  -6.3271  -6.3270  -6.3270  -6.3267  -6.3267  -6.2406  -6.2347
    -6.2346  -6.2344  -6.2342  -6.2340  -6.2339  -6.2104  -6.2104  -6.2102
    -6.2102  -6.2099  -6.2099  -6.2096  -6.2096  -6.2093  -6.2092  -6.2090
    -6.2089  -6.1820  -6.1820  -6.1819  -6.1819  -6.1818  -6.1818  -6.1327
    -6.1327  -6.1327  -6.1096  -6.1096  -6.1093  -6.1093  -6.1091  -6.1091
    -6.0414  -6.0414  -6.0413  -6.0413  -6.0413  -6.0413  -6.0018  -6.0018
    -5.9866  -5.9866  -5.9622  -5.9622  -5.9471  -5.9471  -5.9469  -5.9468
    -5.9467  -5.9467  -5.9308  -5.9307  -5.9307  -5.9307  -5.9307  -5.9306
    -5.8887  -5.8887  -5.8885  -5.8885  -5.8883  -5.8883  -5.8251  -5.8251
    -5.8250  -5.8250  -5.8249  -5.8249  -5.8209  -5.8209  -5.8209  -5.8209
    -5.8208  -5.8208  -5.7907  -5.7907  -5.7905  -5.7905  -5.7904  -5.7903
    -5.7822  -5.7822  -5.7821  -5.7820  -5.7820  -5.7819  -5.7731  -5.7730
    -5.7730  -5.7528  -5.7487  -5.7487  -5.7483  -5.7482  -5.7479  -5.7479
    -5.6989  -5.6989  -5.6988  -5.6884  -5.6884  -5.6882  -5.6881  -5.6879
    -5.6879  -5.6193  -5.6193  -5.6190  -5.6189  -5.6186  -5.6186  -5.5941
    -5.5941  -5.5940  -5.5827  -5.5826  -5.5823  -5.5822  -5.5821  -5.5821
    -5.5820  -5.5818  -5.5818  -5.5817  -5.5815  -5.5815  -5.5784  -5.5783
    -5.5781  -5.5780  -5.5778  -5.5778  -5.5759  -5.5759  -5.5754  -5.5754
    -5.5749  -5.5749  -5.5660  -5.5660  -5.5658  -5.5658  -5.5656  -5.5656
    -5.5415  -5.5415  -5.4864  -5.4864  -5.4861  -5.4860  -5.4858  -5.4857
    -5.4461  -5.4461  -5.4371  -5.4371  -5.4371  -5.4370  -5.4370  -5.4370
    -5.4131  -5.4131  -5.4131  -5.3976  -5.3976  -5.3974  -5.3973  -5.3972
    -5.3971  -5.3824  -5.3824  -5.3618  -5.3618  -5.3615  -5.3615  -5.3612
    -5.3612  -5.2692  -5.2692  -5.2690  -5.2690  -5.2689  -5.2689  -5.1549
    -5.1548  -5.1548  -5.1480  -5.1480  -5.1480  -5.1397  -5.1397  -5.1397
    -4.4167  -4.4166  -4.4163  -4.4161  -4.4158  -4.4157  -3.4601  -2.0668
    -2.0668  -2.0668  -2.0667  -2.0667  -2.0667  -2.0239  -2.0238  -2.0235
    -2.0233  -2.0229  -2.0228  -0.7927  -0.7927  -0.7927  -0.7222  -0.6841
    -0.6841  -0.6841  -0.6841  -0.6840  -0.6840  -0.0648  -0.0648  -0.0648
     0.1966   0.1966   0.1966   1.5366   1.5366   1.5366   1.5366   1.5366
     1.5366   1.5741   1.5742   1.5745   1.5747   1.5750   1.5751   2.2711
     2.2711   2.2711   3.0995   3.3110   3.3110   3.3110   4.1357   4.1357
     4.1357   4.8707   4.8708   4.8710   4.8712   4.8714   4.8715   5.0668
     5.2659   5.4217   5.4217   5.4218   5.4218   5.4219   5.4219   5.4722
     5.4722   5.4725   5.4725   5.4728   5.4728   5.6454   5.6455   5.6458
     5.6458   5.6460   5.6460   6.1954   6.3961   6.5514   6.5514   6.5514
     6.8655   6.8655   6.8656   6.8657   6.8658   6.8658   6.9725   6.9725
     6.9727   6.9727   6.9730   6.9730   7.1018   7.1018   7.1018   7.1019
     7.1019   7.1019   7.1409   7.1410   7.1412   7.1412   7.1414   7.1414
     8.0347   8.0347   8.0348   8.0348   8.0349   8.0349   8.1275   8.1275
     8.1276   8.1276   8.1277   8.1277   8.1834   8.1834   8.1835   8.1835
     8.1836   8.1836   8.2031   8.3631   8.3787   8.3787   8.3787   9.3210

     occupation numbers 
     1.0000   1.0000   1.0000   1.0000   1.0000   1.0000   1.0000   1.0000
     1.0000   1.0000   1.0000   1.0000   1.0000   1.0000   1.0000   1.0000
     1.0000   1.0000   1.0000   1.0000   1.0000   1.0000   1.0000   1.0000
     1.0000   1.0000   1.0000   1.0000   1.0000   1.0000   1.0000   1.0000
     1.0000   1.0000   1.0000   1.0000   1.0000   1.0000   1.0000   1.0000
     1.0000   1.0000   1.0000   1.0000   1.0000   1.0000   1.0000   1.0000
     1.0000   1.0000   1.0000   1.0000   1.0000   1.0000   1.0000   1.0000
     1.0000   1.0000   1.0000   1.0000   1.0000   1.0000   1.0000   1.0000
     1.0000   1.0000   1.0000   1.0000   1.0000   1.0000   1.0000   1.0000
     1.0000   1.0000   1.0000   1.0000   1.0000   1.0000   1.0000   1.0000
     1.0000   1.0000   1.0000   1.0000   1.0000   1.0000   1.0000   1.0000
     1.0000   1.0000   1.0000   1.0000   1.0000   1.0000   1.0000   1.0000
     1.0000   1.0000   1.0000   1.0000   1.0000   1.0000   1.0000   1.0000
     1.0000   1.0000   1.0000   1.0000   1.0000   1.0000   1.0000   1.0000
     1.0000   1.0000   1.0000   1.0000   1.0000   1.0000   1.0000   1.0000
     1.0000   1.0000   1.0000   1.0000   1.0000   1.0000   1.0000   1.0000
     1.0000   1.0000   1.0000   1.0000   1.0000   1.0000   1.0000   1.0000
     1.0000   1.0000   1.0000   1.0000   1.0000   1.0000   1.0000   1.0000
     1.0000   1.0000   1.0000   1.0000   1.0000   1.0000   1.0000   1.0000
     1.0000   1.0000   1.0000   1.0000   1.0000   1.0000   1.0000   1.0000
     1.0000   1.0000   1.0000   1.0000   1.0000   1.0000   1.0000   1.0000
     1.0000   1.0000   1.0000   1.0000   1.0000   1.0000   1.0000   1.0000
     1.0000   1.0000   1.0000   1.0000   1.0000   1.0000   1.0000   1.0000
     1.0000   1.0000   1.0000   1.0000   1.0000   1.0000   1.0000   1.0000
     1.0000   1.0000   1.0000   1.0000   1.0000   1.0000   1.0000   1.0000
     1.0000   1.0000   1.0000   1.0000   1.0000   1.0000   1.0000   1.0000
     1.0000   1.0000   1.0000   1.0000   1.0000   1.0000   1.0000   1.0000
     1.0000   1.0000   1.0000   1.0000   1.0000   1.0000   1.0000   1.0000
     1.0000   1.0000   1.0000   1.0000   1.0000   1.0000   1.0000   1.0000
     1.0000   1.0000   1.0000   1.0000   1.0000   1.0000   1.0000   1.0000
     1.0000   1.0000   1.0000   1.0000   1.0000   1.0000   1.0000   1.0000
     1.0000   1.0000   1.0000   1.0000   1.0000   1.0000   1.0000   1.0000
     1.0000   1.0000   1.0000   1.0000   1.0000   1.0000   1.0000   1.0000
     1.0000   1.0000   1.0000   1.0000   1.0000   1.0000   1.0000   1.0000
     1.0000   1.0000   1.0000   1.0000   1.0000   1.0000   1.0000   1.0000
     1.0000   1.0000   1.0000   1.0000   1.0000   1.0000   1.0000   1.0000
     1.0000   1.0000   1.0000   1.0000   1.0000   1.0000   1.0000   1.0000
     1.0000   1.0000   1.0000   1.0000   1.0000   1.0000   1.0000   1.0000
     1.0000   1.0000   1.0000   1.0000   1.0000   1.0000   1.0000   1.0000
     1.0000   1.0000   1.0000   1.0000   1.0000   1.0000   1.0000   1.0000
     1.0000   1.0000   1.0000   1.0000   1.0000   1.0000   1.0000   1.0000
     1.0000   1.0000   1.0000   1.0000   1.0000   1.0000   1.0000   1.0000
     1.0000   1.0000   1.0000   1.0000   1.0000   1.0000   1.0000   1.0000
     1.0000   1.0000   1.0000   1.0000   1.0000   1.0000   1.0000   1.0000
     1.0000   1.0000   1.0000   1.0000   1.0000   1.0000   1.0000   1.0000
     1.0000   1.0000   1.0000   1.0000   1.0000   1.0000   1.0000   1.0000
     1.0000   1.0000   1.0000   1.0000   1.0000   1.0000   1.0000   1.0000
     1.0000   1.0000   1.0000   1.0000   1.0000   1.0000   1.0000   1.0000
     1.0000   1.0000   1.0000   1.0000   1.0000   1.0000   1.0000   1.0000
     1.0000   1.0000   1.0000   1.0000   1.0000   1.0000   1.0000   1.0000
     1.0000   1.0000   1.0000   1.0000   1.0000   1.0000   1.0000   1.0000
     1.0000   1.0000   1.0000   1.0000   1.0000   1.0000   1.0000   1.0000
     1.0000   1.0000   1.0000   1.0000   1.0000   1.0000   1.0000   1.0000
     1.0000   1.0000   1.0000   1.0000   1.0000   1.0000   1.0000   1.0000
     1.0000   1.0000   1.0000   1.0000   1.0000   1.0000   1.0000   1.0000
     1.0000   1.0000   1.0000   1.0000   1.0000   1.0000   1.0000   1.0000
     1.0000   1.0000   1.0000   1.0000   1.0000   1.0000   1.0000   1.0000
     1.0000   1.0000   1.0000   1.0000   1.0000   1.0000   1.0000   1.0000
     1.0000   1.0000   1.0000   1.0000   1.0000   1.0000   1.0000   1.0000
     1.0000   1.0000   1.0000   0.2997   0.2997   0.2997   0.2997   0.2996
     0.2996   0.2242   0.2240   0.2234   0.2231   0.2226   0.2224   0.0000
     0.0000   0.0000   0.0000   0.0000   0.0000   0.0000   0.0000   0.0000
     0.0000   0.0000   0.0000   0.0000   0.0000   0.0000   0.0000   0.0000
     0.0000   0.0000   0.0000   0.0000   0.0000   0.0000   0.0000   0.0000
     0.0000   0.0000   0.0000   0.0000   0.0000   0.0000   0.0000   0.0000
     0.0000   0.0000   0.0000   0.0000   0.0000   0.0000   0.0000   0.0000
     0.0000   0.0000   0.0000   0.0000   0.0000   0.0000   0.0000   0.0000
     0.0000   0.0000   0.0000   0.0000   0.0000   0.0000   0.0000   0.0000
     0.0000   0.0000   0.0000   0.0000   0.0000   0.0000   0.0000   0.0000
     0.0000   0.0000   0.0000   0.0000   0.0000   0.0000   0.0000   0.0000
     0.0000   0.0000   0.0000   0.0000   0.0000   0.0000   0.0000   0.0000
     0.0000   0.0000   0.0000   0.0000   0.0000   0.0000   0.0000   0.0000

          k = 0.0000-0.5774 0.0000 ( 64842 PWs)   bands (ev):

  -124.9418-124.9410-124.9400-124.9399-124.9397-124.9390-124.9390-124.9385
  -124.9384-124.9383-124.9377-124.9375-124.9371-124.9367-124.9363-124.9359
  -124.9334-124.9331-124.9327-124.9325-124.9319-124.9317-124.9316-124.9315
  -124.9313-124.9310-124.9309-124.9307-124.9307-124.9306-124.9306-124.9304
  -124.9302-124.9299-124.9299-124.9297-124.9297-124.9296-124.9296-124.9296
  -124.9294-124.9292-124.9291-124.9290-124.9287-124.9285-124.9285-124.9282
   -79.1025 -79.1018 -79.1009 -79.1008 -79.1005 -79.1001 -79.1001 -79.1000
   -79.1000 -79.0998 -79.0997 -79.0994 -79.0993 -79.0992 -79.0989 -79.0986
   -79.0985 -79.0984 -79.0982 -79.0980 -79.0978 -79.0977 -79.0976 -79.0974
   -79.0973 -79.0972 -79.0959 -79.0958 -79.0956 -79.0956 -79.0956 -79.0952
   -79.0948 -79.0947 -79.0947 -79.0942 -79.0941 -79.0940 -79.0931 -79.0929
   -79.0915 -79.0915 -79.0914 -79.0914 -79.0899 -79.0899 -79.0898 -79.0898
   -79.0895 -79.0894 -79.0894 -79.0894 -79.0867 -79.0866 -79.0849 -79.0849
   -79.0847 -79.0846 -79.0815 -79.0813 -79.0807 -79.0804 -79.0800 -79.0794
   -79.0793 -79.0792 -79.0789 -79.0788 -79.0788 -79.0787 -79.0786 -79.0786
   -79.0785 -79.0784 -79.0783 -79.0783 -79.0782 -79.0781 -79.0781 -79.0780
   -79.0779 -79.0779 -79.0778 -79.0776 -79.0775 -79.0774 -79.0773 -79.0772
   -79.0771 -79.0771 -79.0771 -79.0770 -79.0770 -79.0770 -79.0769 -79.0768
   -79.0768 -79.0767 -79.0766 -79.0765 -79.0764 -79.0762 -79.0762 -79.0761
   -79.0760 -79.0758 -79.0757 -79.0755 -79.0751 -79.0750 -79.0749 -79.0748
   -79.0744 -79.0739 -79.0737 -79.0736 -79.0736 -79.0735 -79.0732 -79.0732
   -79.0732 -79.0731 -79.0729 -79.0724 -79.0724 -79.0718 -79.0718 -79.0713
   -79.0704 -79.0702 -79.0700 -79.0699 -79.0698 -79.0696 -79.0688 -79.0687
   -79.0685 -79.0683 -79.0678 -79.0671 -79.0663 -79.0660 -79.0658 -79.0654
    -8.1113  -8.1107  -7.2738  -7.2738  -7.0837  -7.0832  -6.8384  -6.8378
    -6.7585  -6.7580  -6.6826  -6.6821  -6.6704  -6.6701  -6.6439  -6.6439
    -6.6433  -6.6432  -6.6002  -6.6000  -6.5996  -6.5994  -6.5791  -6.5791
    -6.5785  -6.5785  -6.5748  -6.5748  -6.5748  -6.5748  -6.5449  -6.5449
    -6.5144  -6.5144  -6.4655  -6.4655  -6.4655  -6.4654  -6.4647  -6.4647
    -6.4647  -6.4647  -6.4378  -6.4372  -6.4356  -6.4354  -6.4349  -6.4348
    -6.3919  -6.3919  -6.3365  -6.3365  -6.3266  -6.3266  -6.3181  -6.3181
    -6.3181  -6.3181  -6.3045  -6.3039  -6.2908  -6.2908  -6.2902  -6.2901
    -6.2336  -6.2336  -6.2336  -6.2336  -6.2155  -6.2155  -6.2089  -6.2084
    -6.2019  -6.2019  -6.1905  -6.1905  -6.1305  -6.1305  -6.1298  -6.1298
    -6.1195  -6.1194  -6.1045  -6.1043  -6.1040  -6.1038  -6.0891  -6.0891
    -6.0766  -6.0766  -6.0624  -6.0619  -6.0603  -6.0597  -6.0544  -6.0539
    -6.0179  -6.0178  -6.0178  -6.0178  -6.0069  -6.0069  -6.0069  -6.0069
    -6.0060  -6.0055  -5.9457  -5.9457  -5.9341  -5.9341  -5.9214  -5.9214
    -5.8881  -5.8874  -5.8770  -5.8765  -5.8519  -5.8514  -5.8513  -5.8513
    -5.8513  -5.8513  -5.8306  -5.8304  -5.8301  -5.8298  -5.8221  -5.8221
    -5.7936  -5.7936  -5.7780  -5.7780  -5.7780  -5.7779  -5.7760  -5.7754
    -5.7719  -5.7719  -5.7716  -5.7716  -5.7450  -5.7443  -5.7363  -5.7363
    -5.7293  -5.7293  -5.7293  -5.7293  -5.7193  -5.7193  -5.6848  -5.6848
    -5.6694  -5.6694  -5.6576  -5.6576  -5.6575  -5.6575  -5.6526  -5.6526
    -5.6473  -5.6472  -5.6470  -5.6469  -5.6190  -5.6185  -5.6079  -5.6079
    -5.5855  -5.5855  -5.5855  -5.5855  -5.5783  -5.5777  -5.5763  -5.5757
    -5.5559  -5.5559  -5.5484  -5.5480  -5.5392  -5.5392  -5.5280  -5.5274
    -5.5224  -5.5218  -5.5203  -5.5202  -5.5199  -5.5198  -5.5077  -5.5076
    -5.5073  -5.5072  -5.4869  -5.4869  -5.4835  -5.4832  -5.4831  -5.4828
    -5.4761  -5.4761  -5.4759  -5.4759  -5.4759  -5.4759  -5.4642  -5.4637
    -5.4362  -5.4362  -5.4303  -5.4297  -5.4224  -5.4223  -5.3854  -5.3854
    -5.3853  -5.3848  -5.3803  -5.3803  -5.3800  -5.3800  -5.3719  -5.3719
    -5.3719  -5.3719  -5.3372  -5.3372  -5.3372  -5.3372  -5.3188  -5.3186
    -5.3182  -5.3179  -5.2836  -5.2832  -5.2736  -5.2731  -5.2680  -5.2675
    -5.2441  -5.2439  -5.2435  -5.2432  -5.2151  -5.2150  -4.7127  -4.7127
    -4.3934  -4.3934  -4.3934  -4.3934  -3.6962  -3.6962  -3.1185  -3.1180
    -3.0993  -3.0993  -3.0993  -3.0993  -2.3959  -2.3958  -2.2810  -2.2809
    -1.7198  -1.7197  -1.7192  -1.7192  -0.7563  -0.7563  -0.7563  -0.7563
    -0.3708  -0.3707  -0.3703  -0.3702  -0.0988  -0.0984   0.0135   0.0136
     1.0427   1.0427   1.0761   1.0761   1.3592   1.3592   1.3838   1.3839
     1.3842   1.3842   2.1770   2.1770   2.9233   2.9234   2.9235   2.9237
     3.0967   3.0967   3.0967   3.0967   3.2814   3.2814   3.5452   3.5456
     3.8272   3.8272   3.8274   3.8274   3.9937   3.9938   4.2958   4.2959
     4.4354   4.4354   4.7408   4.7408   4.8980   4.8980   5.4866   5.4866
     5.5183   5.5184   5.7256   5.7257   5.7579   5.7580   5.9205   5.9207
     5.9209   5.9211   5.9799   5.9799   5.9800   5.9800   6.1438   6.1438
     6.1438   6.1439   6.4200   6.4200   6.5181   6.5181   6.6441   6.6441
     6.6590   6.6591   6.8459   6.8460   6.8514   6.8514   7.0495   7.0495
     7.0495   7.0495   7.5817   7.5817   7.7435   7.7435   8.0552   8.0552
     8.0724   8.0724   8.0724   8.0724   8.2796   8.2797   8.4771   8.4771
     8.4771   8.4771   8.5970   8.5970   8.5970   8.5971   8.6645   8.6646
     8.7337   8.7337   8.8087   8.8089   8.9924   8.9925   8.9928   8.9928

     occupation numbers 
     1.0000   1.0000   1.0000   1.0000   1.0000   1.0000   1.0000   1.0000
     1.0000   1.0000   1.0000   1.0000   1.0000   1.0000   1.0000   1.0000
     1.0000   1.0000   1.0000   1.0000   1.0000   1.0000   1.0000   1.0000
     1.0000   1.0000   1.0000   1.0000   1.0000   1.0000   1.0000   1.0000
     1.0000   1.0000   1.0000   1.0000   1.0000   1.0000   1.0000   1.0000
     1.0000   1.0000   1.0000   1.0000   1.0000   1.0000   1.0000   1.0000
     1.0000   1.0000   1.0000   1.0000   1.0000   1.0000   1.0000   1.0000
     1.0000   1.0000   1.0000   1.0000   1.0000   1.0000   1.0000   1.0000
     1.0000   1.0000   1.0000   1.0000   1.0000   1.0000   1.0000   1.0000
     1.0000   1.0000   1.0000   1.0000   1.0000   1.0000   1.0000   1.0000
     1.0000   1.0000   1.0000   1.0000   1.0000   1.0000   1.0000   1.0000
     1.0000   1.0000   1.0000   1.0000   1.0000   1.0000   1.0000   1.0000
     1.0000   1.0000   1.0000   1.0000   1.0000   1.0000   1.0000   1.0000
     1.0000   1.0000   1.0000   1.0000   1.0000   1.0000   1.0000   1.0000
     1.0000   1.0000   1.0000   1.0000   1.0000   1.0000   1.0000   1.0000
     1.0000   1.0000   1.0000   1.0000   1.0000   1.0000   1.0000   1.0000
     1.0000   1.0000   1.0000   1.0000   1.0000   1.0000   1.0000   1.0000
     1.0000   1.0000   1.0000   1.0000   1.0000   1.0000   1.0000   1.0000
     1.0000   1.0000   1.0000   1.0000   1.0000   1.0000   1.0000   1.0000
     1.0000   1.0000   1.0000   1.0000   1.0000   1.0000   1.0000   1.0000
     1.0000   1.0000   1.0000   1.0000   1.0000   1.0000   1.0000   1.0000
     1.0000   1.0000   1.0000   1.0000   1.0000   1.0000   1.0000   1.0000
     1.0000   1.0000   1.0000   1.0000   1.0000   1.0000   1.0000   1.0000
     1.0000   1.0000   1.0000   1.0000   1.0000   1.0000   1.0000   1.0000
     1.0000   1.0000   1.0000   1.0000   1.0000   1.0000   1.0000   1.0000
     1.0000   1.0000   1.0000   1.0000   1.0000   1.0000   1.0000   1.0000
     1.0000   1.0000   1.0000   1.0000   1.0000   1.0000   1.0000   1.0000
     1.0000   1.0000   1.0000   1.0000   1.0000   1.0000   1.0000   1.0000
     1.0000   1.0000   1.0000   1.0000   1.0000   1.0000   1.0000   1.0000
     1.0000   1.0000   1.0000   1.0000   1.0000   1.0000   1.0000   1.0000
     1.0000   1.0000   1.0000   1.0000   1.0000   1.0000   1.0000   1.0000
     1.0000   1.0000   1.0000   1.0000   1.0000   1.0000   1.0000   1.0000
     1.0000   1.0000   1.0000   1.0000   1.0000   1.0000   1.0000   1.0000
     1.0000   1.0000   1.0000   1.0000   1.0000   1.0000   1.0000   1.0000
     1.0000   1.0000   1.0000   1.0000   1.0000   1.0000   1.0000   1.0000
     1.0000   1.0000   1.0000   1.0000   1.0000   1.0000   1.0000   1.0000
     1.0000   1.0000   1.0000   1.0000   1.0000   1.0000   1.0000   1.0000
     1.0000   1.0000   1.0000   1.0000   1.0000   1.0000   1.0000   1.0000
     1.0000   1.0000   1.0000   1.0000   1.0000   1.0000   1.0000   1.0000
     1.0000   1.0000   1.0000   1.0000   1.0000   1.0000   1.0000   1.0000
     1.0000   1.0000   1.0000   1.0000   1.0000   1.0000   1.0000   1.0000
     1.0000   1.0000   1.0000   1.0000   1.0000   1.0000   1.0000   1.0000
     1.0000   1.0000   1.0000   1.0000   1.0000   1.0000   1.0000   1.0000
     1.0000   1.0000   1.0000   1.0000   1.0000   1.0000   1.0000   1.0000
     1.0000   1.0000   1.0000   1.0000   1.0000   1.0000   1.0000   1.0000
     1.0000   1.0000   1.0000   1.0000   1.0000   1.0000   1.0000   1.0000
     1.0000   1.0000   1.0000   1.0000   1.0000   1.0000   1.0000   1.0000
     1.0000   1.0000   1.0000   1.0000   1.0000   1.0000   1.0000   1.0000
     1.0000   1.0000   1.0000   1.0000   1.0000   1.0000   1.0000   1.0000
     1.0000   1.0000   1.0000   1.0000   1.0000   1.0000   1.0000   1.0000
     1.0000   1.0000   1.0000   1.0000   1.0000   1.0000   1.0000   1.0000
     1.0000   1.0000   1.0000   1.0000   1.0000   1.0000   1.0000   1.0000
     1.0000   1.0000   1.0000   1.0000   1.0000   1.0000   1.0000   1.0000
     1.0000   1.0000   1.0000   1.0000   1.0000   1.0000   1.0000   1.0000
     1.0000   1.0000   1.0000   1.0000   1.0000   1.0000   1.0000   1.0000
     1.0000   1.0000   1.0000   1.0000   1.0000   1.0000   1.0000   1.0000
     1.0000   1.0000   1.0000   1.0000   1.0000   1.0000   1.0000   1.0000
     1.0000   1.0000   1.0000   1.0000   1.0000   1.0000   1.0000   1.0000
     1.0000   1.0000   1.0000   1.0000   1.0000   1.0000   1.0000   1.0000
     1.0722   1.0722   1.0802   1.0802   0.7632   0.7632   0.6979   0.6977
     0.6971   0.6969   0.0000   0.0000   0.0000   0.0000   0.0000   0.0000
     0.0000   0.0000   0.0000   0.0000   0.0000   0.0000   0.0000   0.0000
     0.0000   0.0000   0.0000   0.0000   0.0000   0.0000   0.0000   0.0000
     0.0000   0.0000   0.0000   0.0000   0.0000   0.0000   0.0000   0.0000
     0.0000   0.0000   0.0000   0.0000   0.0000   0.0000   0.0000   0.0000
     0.0000   0.0000   0.0000   0.0000   0.0000   0.0000   0.0000   0.0000
     0.0000   0.0000   0.0000   0.0000   0.0000   0.0000   0.0000   0.0000
     0.0000   0.0000   0.0000   0.0000   0.0000   0.0000   0.0000   0.0000
     0.0000   0.0000   0.0000   0.0000   0.0000   0.0000   0.0000   0.0000
     0.0000   0.0000   0.0000   0.0000   0.0000   0.0000   0.0000   0.0000
     0.0000   0.0000   0.0000   0.0000   0.0000   0.0000   0.0000   0.0000
     0.0000   0.0000   0.0000   0.0000   0.0000   0.0000   0.0000   0.0000

          k =-0.5000-0.2887 0.0000 ( 64842 PWs)   bands (ev):

  -124.9418-124.9410-124.9401-124.9399-124.9394-124.9392-124.9390-124.9387
  -124.9383-124.9382-124.9377-124.9375-124.9371-124.9367-124.9363-124.9359
  -124.9333-124.9330-124.9327-124.9326-124.9319-124.9317-124.9315-124.9314
  -124.9313-124.9311-124.9309-124.9308-124.9308-124.9306-124.9305-124.9304
  -124.9302-124.9300-124.9299-124.9298-124.9297-124.9296-124.9295-124.9294
  -124.9294-124.9292-124.9292-124.9291-124.9287-124.9285-124.9285-124.9282
   -79.1025 -79.1018 -79.1009 -79.1007 -79.1003 -79.1001 -79.1000 -79.1000
   -79.0998 -79.0997 -79.0997 -79.0995 -79.0995 -79.0994 -79.0989 -79.0986
   -79.0985 -79.0982 -79.0980 -79.0980 -79.0978 -79.0978 -79.0977 -79.0976
   -79.0974 -79.0972 -79.0960 -79.0958 -79.0955 -79.0955 -79.0952 -79.0952
   -79.0950 -79.0949 -79.0947 -79.0942 -79.0941 -79.0939 -79.0931 -79.0927
   -79.0915 -79.0915 -79.0914 -79.0913 -79.0899 -79.0899 -79.0898 -79.0898
   -79.0895 -79.0894 -79.0894 -79.0894 -79.0868 -79.0867 -79.0849 -79.0849
   -79.0847 -79.0846 -79.0815 -79.0812 -79.0807 -79.0804 -79.0800 -79.0795
   -79.0792 -79.0790 -79.0790 -79.0789 -79.0789 -79.0787 -79.0786 -79.0786
   -79.0785 -79.0784 -79.0783 -79.0783 -79.0782 -79.0781 -79.0781 -79.0780
   -79.0779 -79.0779 -79.0778 -79.0778 -79.0775 -79.0773 -79.0772 -79.0772
   -79.0772 -79.0771 -79.0770 -79.0769 -79.0769 -79.0769 -79.0768 -79.0768
   -79.0768 -79.0767 -79.0767 -79.0766 -79.0764 -79.0764 -79.0762 -79.0761
   -79.0761 -79.0758 -79.0757 -79.0755 -79.0751 -79.0751 -79.0749 -79.0748
   -79.0743 -79.0740 -79.0737 -79.0737 -79.0736 -79.0735 -79.0732 -79.0732
   -79.0731 -79.0731 -79.0727 -79.0725 -79.0722 -79.0720 -79.0719 -79.0713
   -79.0704 -79.0702 -79.0701 -79.0699 -79.0698 -79.0695 -79.0689 -79.0686
   -79.0685 -79.0682 -79.0676 -79.0672 -79.0662 -79.0659 -79.0658 -79.0656
    -8.1111  -8.1108  -7.2738  -7.2738  -7.0836  -7.0833  -6.8383  -6.8379
    -6.7584  -6.7581  -6.6825  -6.6822  -6.6703  -6.6702  -6.6438  -6.6437
    -6.6434  -6.6434  -6.6000  -6.6000  -6.5997  -6.5996  -6.5790  -6.5789
    -6.5787  -6.5786  -6.5749  -6.5748  -6.5748  -6.5748  -6.5449  -6.5449
    -6.5144  -6.5144  -6.4655  -6.4655  -6.4655  -6.4655  -6.4647  -6.4647
    -6.4647  -6.4647  -6.4377  -6.4373  -6.4354  -6.4353  -6.4350  -6.4350
    -6.3919  -6.3919  -6.3365  -6.3365  -6.3266  -6.3266  -6.3181  -6.3181
    -6.3181  -6.3181  -6.3043  -6.3041  -6.2907  -6.2905  -6.2904  -6.2903
    -6.2336  -6.2336  -6.2336  -6.2336  -6.2156  -6.2155  -6.2088  -6.2085
    -6.2019  -6.2019  -6.1905  -6.1905  -6.1305  -6.1305  -6.1298  -6.1298
    -6.1195  -6.1194  -6.1043  -6.1043  -6.1040  -6.1040  -6.0891  -6.0891
    -6.0766  -6.0766  -6.0623  -6.0620  -6.0602  -6.0599  -6.0542  -6.0540
    -6.0179  -6.0178  -6.0178  -6.0178  -6.0069  -6.0069  -6.0069  -6.0069
    -6.0059  -6.0056  -5.9457  -5.9457  -5.9341  -5.9341  -5.9214  -5.9214
    -5.8879  -5.8876  -5.8769  -5.8766  -5.8518  -5.8515  -5.8513  -5.8513
    -5.8513  -5.8513  -5.8304  -5.8304  -5.8301  -5.8301  -5.8221  -5.8221
    -5.7936  -5.7936  -5.7780  -5.7780  -5.7780  -5.7779  -5.7758  -5.7756
    -5.7718  -5.7718  -5.7717  -5.7717  -5.7448  -5.7445  -5.7363  -5.7363
    -5.7293  -5.7293  -5.7293  -5.7293  -5.7193  -5.7193  -5.6848  -5.6848
    -5.6694  -5.6694  -5.6576  -5.6576  -5.6575  -5.6575  -5.6526  -5.6526
    -5.6472  -5.6472  -5.6470  -5.6470  -5.6189  -5.6186  -5.6079  -5.6079
    -5.5855  -5.5855  -5.5855  -5.5855  -5.5781  -5.5779  -5.5761  -5.5758
    -5.5559  -5.5559  -5.5483  -5.5481  -5.5392  -5.5392  -5.5278  -5.5276
    -5.5223  -5.5219  -5.5202  -5.5201  -5.5200  -5.5199  -5.5076  -5.5075
    -5.5074  -5.5073  -5.4869  -5.4869  -5.4833  -5.4832  -5.4831  -5.4830
    -5.4761  -5.4761  -5.4759  -5.4759  -5.4759  -5.4759  -5.4641  -5.4638
    -5.4362  -5.4362  -5.4302  -5.4298  -5.4224  -5.4223  -5.3854  -5.3854
    -5.3852  -5.3849  -5.3802  -5.3802  -5.3801  -5.3801  -5.3719  -5.3719
    -5.3719  -5.3719  -5.3372  -5.3372  -5.3372  -5.3372  -5.3186  -5.3185
    -5.3183  -5.3182  -5.2835  -5.2833  -5.2734  -5.2732  -5.2679  -5.2676
    -5.2439  -5.2438  -5.2436  -5.2435  -5.2151  -5.2150  -4.7127  -4.7127
    -4.3934  -4.3934  -4.3934  -4.3934  -3.6962  -3.6962  -3.1183  -3.1181
    -3.0993  -3.0993  -3.0993  -3.0993  -2.3959  -2.3958  -2.2810  -2.2809
    -1.7196  -1.7196  -1.7194  -1.7193  -0.7563  -0.7563  -0.7563  -0.7563
    -0.3707  -0.3706  -0.3704  -0.3703  -0.0987  -0.0985   0.0135   0.0136
     1.0427   1.0427   1.0761   1.0761   1.3592   1.3592   1.3839   1.3840
     1.3841   1.3841   2.1770   2.1770   2.9234   2.9234   2.9235   2.9236
     3.0967   3.0967   3.0967   3.0967   3.2814   3.2814   3.5453   3.5455
     3.8272   3.8272   3.8273   3.8273   3.9937   3.9938   4.2958   4.2959
     4.4354   4.4354   4.7408   4.7408   4.8980   4.8980   5.4866   5.4866
     5.5183   5.5184   5.7257   5.7257   5.7579   5.7579   5.9207   5.9207
     5.9209   5.9209   5.9799   5.9799   5.9799   5.9800   6.1438   6.1438
     6.1438   6.1438   6.4200   6.4200   6.5181   6.5181   6.6441   6.6441
     6.6590   6.6591   6.8459   6.8459   6.8514   6.8514   7.0495   7.0495
     7.0495   7.0495   7.5817   7.5817   7.7435   7.7435   8.0552   8.0552
     8.0724   8.0724   8.0724   8.0724   8.2796   8.2797   8.4771   8.4771
     8.4771   8.4771   8.5970   8.5970   8.5970   8.5970   8.6646   8.6646
     8.7337   8.7337   8.8088   8.8088   8.9925   8.9926   8.9926   8.9927

     occupation numbers 
     1.0000   1.0000   1.0000   1.0000   1.0000   1.0000   1.0000   1.0000
     1.0000   1.0000   1.0000   1.0000   1.0000   1.0000   1.0000   1.0000
     1.0000   1.0000   1.0000   1.0000   1.0000   1.0000   1.0000   1.0000
     1.0000   1.0000   1.0000   1.0000   1.0000   1.0000   1.0000   1.0000
     1.0000   1.0000   1.0000   1.0000   1.0000   1.0000   1.0000   1.0000
     1.0000   1.0000   1.0000   1.0000   1.0000   1.0000   1.0000   1.0000
     1.0000   1.0000   1.0000   1.0000   1.0000   1.0000   1.0000   1.0000
     1.0000   1.0000   1.0000   1.0000   1.0000   1.0000   1.0000   1.0000
     1.0000   1.0000   1.0000   1.0000   1.0000   1.0000   1.0000   1.0000
     1.0000   1.0000   1.0000   1.0000   1.0000   1.0000   1.0000   1.0000
     1.0000   1.0000   1.0000   1.0000   1.0000   1.0000   1.0000   1.0000
     1.0000   1.0000   1.0000   1.0000   1.0000   1.0000   1.0000   1.0000
     1.0000   1.0000   1.0000   1.0000   1.0000   1.0000   1.0000   1.0000
     1.0000   1.0000   1.0000   1.0000   1.0000   1.0000   1.0000   1.0000
     1.0000   1.0000   1.0000   1.0000   1.0000   1.0000   1.0000   1.0000
     1.0000   1.0000   1.0000   1.0000   1.0000   1.0000   1.0000   1.0000
     1.0000   1.0000   1.0000   1.0000   1.0000   1.0000   1.0000   1.0000
     1.0000   1.0000   1.0000   1.0000   1.0000   1.0000   1.0000   1.0000
     1.0000   1.0000   1.0000   1.0000   1.0000   1.0000   1.0000   1.0000
     1.0000   1.0000   1.0000   1.0000   1.0000   1.0000   1.0000   1.0000
     1.0000   1.0000   1.0000   1.0000   1.0000   1.0000   1.0000   1.0000
     1.0000   1.0000   1.0000   1.0000   1.0000   1.0000   1.0000   1.0000
     1.0000   1.0000   1.0000   1.0000   1.0000   1.0000   1.0000   1.0000
     1.0000   1.0000   1.0000   1.0000   1.0000   1.0000   1.0000   1.0000
     1.0000   1.0000   1.0000   1.0000   1.0000   1.0000   1.0000   1.0000
     1.0000   1.0000   1.0000   1.0000   1.0000   1.0000   1.0000   1.0000
     1.0000   1.0000   1.0000   1.0000   1.0000   1.0000   1.0000   1.0000
     1.0000   1.0000   1.0000   1.0000   1.0000   1.0000   1.0000   1.0000
     1.0000   1.0000   1.0000   1.0000   1.0000   1.0000   1.0000   1.0000
     1.0000   1.0000   1.0000   1.0000   1.0000   1.0000   1.0000   1.0000
     1.0000   1.0000   1.0000   1.0000   1.0000   1.0000   1.0000   1.0000
     1.0000   1.0000   1.0000   1.0000   1.0000   1.0000   1.0000   1.0000
     1.0000   1.0000   1.0000   1.0000   1.0000   1.0000   1.0000   1.0000
     1.0000   1.0000   1.0000   1.0000   1.0000   1.0000   1.0000   1.0000
     1.0000   1.0000   1.0000   1.0000   1.0000   1.0000   1.0000   1.0000
     1.0000   1.0000   1.0000   1.0000   1.0000   1.0000   1.0000   1.0000
     1.0000   1.0000   1.0000   1.0000   1.0000   1.0000   1.0000   1.0000
     1.0000   1.0000   1.0000   1.0000   1.0000   1.0000   1.0000   1.0000
     1.0000   1.0000   1.0000   1.0000   1.0000   1.0000   1.0000   1.0000
     1.0000   1.0000   1.0000   1.0000   1.0000   1.0000   1.0000   1.0000
     1.0000   1.0000   1.0000   1.0000   1.0000   1.0000   1.0000   1.0000
     1.0000   1.0000   1.0000   1.0000   1.0000   1.0000   1.0000   1.0000
     1.0000   1.0000   1.0000   1.0000   1.0000   1.0000   1.0000   1.0000
     1.0000   1.0000   1.0000   1.0000   1.0000   1.0000   1.0000   1.0000
     1.0000   1.0000   1.0000   1.0000   1.0000   1.0000   1.0000   1.0000
     1.0000   1.0000   1.0000   1.0000   1.0000   1.0000   1.0000   1.0000
     1.0000   1.0000   1.0000   1.0000   1.0000   1.0000   1.0000   1.0000
     1.0000   1.0000   1.0000   1.0000   1.0000   1.0000   1.0000   1.0000
     1.0000   1.0000   1.0000   1.0000   1.0000   1.0000   1.0000   1.0000
     1.0000   1.0000   1.0000   1.0000   1.0000   1.0000   1.0000   1.0000
     1.0000   1.0000   1.0000   1.0000   1.0000   1.0000   1.0000   1.0000
     1.0000   1.0000   1.0000   1.0000   1.0000   1.0000   1.0000   1.0000
     1.0000   1.0000   1.0000   1.0000   1.0000   1.0000   1.0000   1.0000
     1.0000   1.0000   1.0000   1.0000   1.0000   1.0000   1.0000   1.0000
     1.0000   1.0000   1.0000   1.0000   1.0000   1.0000   1.0000   1.0000
     1.0000   1.0000   1.0000   1.0000   1.0000   1.0000   1.0000   1.0000
     1.0000   1.0000   1.0000   1.0000   1.0000   1.0000   1.0000   1.0000
     1.0000   1.0000   1.0000   1.0000   1.0000   1.0000   1.0000   1.0000
     1.0000   1.0000   1.0000   1.0000   1.0000   1.0000   1.0000   1.0000
     1.0722   1.0722   1.0802   1.0802   0.7632   0.7632   0.6977   0.6976
     0.6972   0.6971   0.0000   0.0000   0.0000   0.0000   0.0000   0.0000
     0.0000   0.0000   0.0000   0.0000   0.0000   0.0000   0.0000   0.0000
     0.0000   0.0000   0.0000   0.0000   0.0000   0.0000   0.0000   0.0000
     0.0000   0.0000   0.0000   0.0000   0.0000   0.0000   0.0000   0.0000
     0.0000   0.0000   0.0000   0.0000   0.0000   0.0000   0.0000   0.0000
     0.0000   0.0000   0.0000   0.0000   0.0000   0.0000   0.0000   0.0000
     0.0000   0.0000   0.0000   0.0000   0.0000   0.0000   0.0000   0.0000
     0.0000   0.0000   0.0000   0.0000   0.0000   0.0000   0.0000   0.0000
     0.0000   0.0000   0.0000   0.0000   0.0000   0.0000   0.0000   0.0000
     0.0000   0.0000   0.0000   0.0000   0.0000   0.0000   0.0000   0.0000
     0.0000   0.0000   0.0000   0.0000   0.0000   0.0000   0.0000   0.0000
     0.0000   0.0000   0.0000   0.0000   0.0000   0.0000   0.0000   0.0000

          k =-0.5000-0.8660 0.0000 ( 64842 PWs)   bands (ev):

  -124.9418-124.9407-124.9404-124.9401-124.9393-124.9392-124.9389-124.9386
  -124.9383-124.9382-124.9378-124.9376-124.9371-124.9366-124.9364-124.9359
  -124.9334-124.9331-124.9323-124.9323-124.9321-124.9320-124.9319-124.9318
  -124.9310-124.9308-124.9308-124.9306-124.9306-124.9305-124.9305-124.9304
  -124.9302-124.9301-124.9301-124.9300-124.9297-124.9296-124.9296-124.9295
  -124.9293-124.9292-124.9290-124.9290-124.9287-124.9285-124.9285-124.9282
   -79.1026 -79.1015 -79.1012 -79.1007 -79.1006 -79.1005 -79.1002 -79.1001
   -79.1001 -79.0998 -79.0994 -79.0992 -79.0992 -79.0990 -79.0987 -79.0987
   -79.0985 -79.0985 -79.0982 -79.0980 -79.0979 -79.0975 -79.0974 -79.0973
   -79.0971 -79.0967 -79.0962 -79.0961 -79.0960 -79.0957 -79.0955 -79.0949
   -79.0949 -79.0947 -79.0943 -79.0942 -79.0941 -79.0938 -79.0932 -79.0930
   -79.0916 -79.0916 -79.0914 -79.0914 -79.0899 -79.0899 -79.0898 -79.0898
   -79.0895 -79.0895 -79.0894 -79.0894 -79.0867 -79.0866 -79.0849 -79.0848
   -79.0847 -79.0846 -79.0814 -79.0812 -79.0809 -79.0802 -79.0800 -79.0796
   -79.0793 -79.0792 -79.0791 -79.0789 -79.0788 -79.0788 -79.0786 -79.0784
   -79.0784 -79.0784 -79.0783 -79.0783 -79.0781 -79.0781 -79.0779 -79.0779
   -79.0778 -79.0778 -79.0777 -79.0777 -79.0775 -79.0775 -79.0774 -79.0773
   -79.0773 -79.0772 -79.0771 -79.0770 -79.0770 -79.0770 -79.0768 -79.0768
   -79.0767 -79.0766 -79.0765 -79.0765 -79.0762 -79.0761 -79.0761 -79.0759
   -79.0758 -79.0757 -79.0757 -79.0755 -79.0752 -79.0749 -79.0749 -79.0748
   -79.0747 -79.0738 -79.0737 -79.0736 -79.0736 -79.0735 -79.0733 -79.0732
   -79.0732 -79.0732 -79.0731 -79.0727 -79.0723 -79.0719 -79.0717 -79.0709
   -79.0705 -79.0702 -79.0702 -79.0698 -79.0696 -79.0694 -79.0689 -79.0688
   -79.0686 -79.0684 -79.0681 -79.0668 -79.0665 -79.0661 -79.0656 -79.0652
    -8.1115  -8.1105  -7.2738  -7.2738  -7.0839  -7.0830  -6.8386  -6.8376
    -6.7587  -6.7579  -6.6828  -6.6819  -6.6705  -6.6700  -6.6443  -6.6440
    -6.6431  -6.6428  -6.6004  -6.6002  -6.5994  -6.5992  -6.5794  -6.5791
    -6.5784  -6.5782  -6.5749  -6.5749  -6.5748  -6.5748  -6.5449  -6.5449
    -6.5144  -6.5144  -6.4655  -6.4655  -6.4655  -6.4655  -6.4647  -6.4647
    -6.4647  -6.4647  -6.4380  -6.4369  -6.4358  -6.4357  -6.4347  -6.4345
    -6.3919  -6.3919  -6.3365  -6.3365  -6.3266  -6.3266  -6.3181  -6.3181
    -6.3181  -6.3181  -6.3047  -6.3037  -6.2912  -6.2907  -6.2902  -6.2897
    -6.2336  -6.2336  -6.2336  -6.2336  -6.2155  -6.2155  -6.2092  -6.2082
    -6.2019  -6.2019  -6.1905  -6.1905  -6.1305  -6.1305  -6.1298  -6.1298
    -6.1195  -6.1194  -6.1046  -6.1046  -6.1037  -6.1037  -6.0891  -6.0891
    -6.0766  -6.0766  -6.0626  -6.0617  -6.0605  -6.0595  -6.0545  -6.0537
    -6.0179  -6.0179  -6.0178  -6.0178  -6.0069  -6.0069  -6.0069  -6.0069
    -6.0062  -6.0053  -5.9457  -5.9457  -5.9341  -5.9341  -5.9214  -5.9213
    -5.8884  -5.8872  -5.8772  -5.8763  -5.8522  -5.8513  -5.8513  -5.8513
    -5.8513  -5.8511  -5.8309  -5.8307  -5.8298  -5.8296  -5.8221  -5.8221
    -5.7936  -5.7936  -5.7780  -5.7780  -5.7780  -5.7779  -5.7762  -5.7753
    -5.7720  -5.7720  -5.7715  -5.7715  -5.7452  -5.7440  -5.7363  -5.7363
    -5.7293  -5.7293  -5.7293  -5.7293  -5.7193  -5.7193  -5.6848  -5.6848
    -5.6694  -5.6694  -5.6576  -5.6576  -5.6575  -5.6575  -5.6526  -5.6526
    -5.6475  -5.6472  -5.6470  -5.6467  -5.6192  -5.6183  -5.6079  -5.6079
    -5.5855  -5.5855  -5.5855  -5.5855  -5.5785  -5.5776  -5.5765  -5.5755
    -5.5559  -5.5559  -5.5486  -5.5478  -5.5392  -5.5392  -5.5282  -5.5272
    -5.5226  -5.5215  -5.5206  -5.5201  -5.5200  -5.5195  -5.5080  -5.5076
    -5.5073  -5.5069  -5.4869  -5.4869  -5.4836  -5.4835  -5.4827  -5.4827
    -5.4761  -5.4761  -5.4759  -5.4759  -5.4759  -5.4759  -5.4644  -5.4635
    -5.4362  -5.4362  -5.4306  -5.4295  -5.4224  -5.4223  -5.3855  -5.3854
    -5.3854  -5.3846  -5.3805  -5.3802  -5.3801  -5.3799  -5.3719  -5.3719
    -5.3719  -5.3719  -5.3372  -5.3372  -5.3372  -5.3372  -5.3192  -5.3185
    -5.3183  -5.3176  -5.2837  -5.2831  -5.2738  -5.2729  -5.2682  -5.2674
    -5.2443  -5.2443  -5.2432  -5.2431  -5.2152  -5.2149  -4.7127  -4.7127
    -4.3934  -4.3934  -4.3934  -4.3934  -3.6962  -3.6961  -3.1186  -3.1178
    -3.0993  -3.0993  -3.0993  -3.0993  -2.3958  -2.3958  -2.2811  -2.2809
    -1.7200  -1.7199  -1.7190  -1.7190  -0.7563  -0.7563  -0.7563  -0.7563
    -0.3710  -0.3708  -0.3702  -0.3700  -0.0990  -0.0983   0.0135   0.0136
     1.0427   1.0427   1.0761   1.0761   1.3592   1.3592   1.3837   1.3838
     1.3843   1.3843   2.1770   2.1770   2.9232   2.9234   2.9236   2.9238
     3.0967   3.0967   3.0967   3.0967   3.2814   3.2814   3.5451   3.5457
     3.8271   3.8271   3.8275   3.8275   3.9937   3.9939   4.2958   4.2959
     4.4354   4.4354   4.7408   4.7408   4.8980   4.8980   5.4866   5.4866
     5.5183   5.5185   5.7256   5.7257   5.7578   5.7580   5.9203   5.9205
     5.9211   5.9213   5.9798   5.9799   5.9800   5.9800   6.1438   6.1438
     6.1438   6.1438   6.4200   6.4200   6.5181   6.5181   6.6441   6.6441
     6.6590   6.6591   6.8458   6.8460   6.8513   6.8514   7.0495   7.0495
     7.0495   7.0495   7.5817   7.5817   7.7435   7.7435   8.0552   8.0552
     8.0724   8.0724   8.0724   8.0724   8.2796   8.2798   8.4771   8.4771
     8.4771   8.4771   8.5970   8.5970   8.5970   8.5971   8.6645   8.6647
     8.7337   8.7337   8.8087   8.8089   8.9922   8.9925   8.9927   8.9930

     occupation numbers 
     1.0000   1.0000   1.0000   1.0000   1.0000   1.0000   1.0000   1.0000
     1.0000   1.0000   1.0000   1.0000   1.0000   1.0000   1.0000   1.0000
     1.0000   1.0000   1.0000   1.0000   1.0000   1.0000   1.0000   1.0000
     1.0000   1.0000   1.0000   1.0000   1.0000   1.0000   1.0000   1.0000
     1.0000   1.0000   1.0000   1.0000   1.0000   1.0000   1.0000   1.0000
     1.0000   1.0000   1.0000   1.0000   1.0000   1.0000   1.0000   1.0000
     1.0000   1.0000   1.0000   1.0000   1.0000   1.0000   1.0000   1.0000
     1.0000   1.0000   1.0000   1.0000   1.0000   1.0000   1.0000   1.0000
     1.0000   1.0000   1.0000   1.0000   1.0000   1.0000   1.0000   1.0000
     1.0000   1.0000   1.0000   1.0000   1.0000   1.0000   1.0000   1.0000
     1.0000   1.0000   1.0000   1.0000   1.0000   1.0000   1.0000   1.0000
     1.0000   1.0000   1.0000   1.0000   1.0000   1.0000   1.0000   1.0000
     1.0000   1.0000   1.0000   1.0000   1.0000   1.0000   1.0000   1.0000
     1.0000   1.0000   1.0000   1.0000   1.0000   1.0000   1.0000   1.0000
     1.0000   1.0000   1.0000   1.0000   1.0000   1.0000   1.0000   1.0000
     1.0000   1.0000   1.0000   1.0000   1.0000   1.0000   1.0000   1.0000
     1.0000   1.0000   1.0000   1.0000   1.0000   1.0000   1.0000   1.0000
     1.0000   1.0000   1.0000   1.0000   1.0000   1.0000   1.0000   1.0000
     1.0000   1.0000   1.0000   1.0000   1.0000   1.0000   1.0000   1.0000
     1.0000   1.0000   1.0000   1.0000   1.0000   1.0000   1.0000   1.0000
     1.0000   1.0000   1.0000   1.0000   1.0000   1.0000   1.0000   1.0000
     1.0000   1.0000   1.0000   1.0000   1.0000   1.0000   1.0000   1.0000
     1.0000   1.0000   1.0000   1.0000   1.0000   1.0000   1.0000   1.0000
     1.0000   1.0000   1.0000   1.0000   1.0000   1.0000   1.0000   1.0000
     1.0000   1.0000   1.0000   1.0000   1.0000   1.0000   1.0000   1.0000
     1.0000   1.0000   1.0000   1.0000   1.0000   1.0000   1.0000   1.0000
     1.0000   1.0000   1.0000   1.0000   1.0000   1.0000   1.0000   1.0000
     1.0000   1.0000   1.0000   1.0000   1.0000   1.0000   1.0000   1.0000
     1.0000   1.0000   1.0000   1.0000   1.0000   1.0000   1.0000   1.0000
     1.0000   1.0000   1.0000   1.0000   1.0000   1.0000   1.0000   1.0000
     1.0000   1.0000   1.0000   1.0000   1.0000   1.0000   1.0000   1.0000
     1.0000   1.0000   1.0000   1.0000   1.0000   1.0000   1.0000   1.0000
     1.0000   1.0000   1.0000   1.0000   1.0000   1.0000   1.0000   1.0000
     1.0000   1.0000   1.0000   1.0000   1.0000   1.0000   1.0000   1.0000
     1.0000   1.0000   1.0000   1.0000   1.0000   1.0000   1.0000   1.0000
     1.0000   1.0000   1.0000   1.0000   1.0000   1.0000   1.0000   1.0000
     1.0000   1.0000   1.0000   1.0000   1.0000   1.0000   1.0000   1.0000
     1.0000   1.0000   1.0000   1.0000   1.0000   1.0000   1.0000   1.0000
     1.0000   1.0000   1.0000   1.0000   1.0000   1.0000   1.0000   1.0000
     1.0000   1.0000   1.0000   1.0000   1.0000   1.0000   1.0000   1.0000
     1.0000   1.0000   1.0000   1.0000   1.0000   1.0000   1.0000   1.0000
     1.0000   1.0000   1.0000   1.0000   1.0000   1.0000   1.0000   1.0000
     1.0000   1.0000   1.0000   1.0000   1.0000   1.0000   1.0000   1.0000
     1.0000   1.0000   1.0000   1.0000   1.0000   1.0000   1.0000   1.0000
     1.0000   1.0000   1.0000   1.0000   1.0000   1.0000   1.0000   1.0000
     1.0000   1.0000   1.0000   1.0000   1.0000   1.0000   1.0000   1.0000
     1.0000   1.0000   1.0000   1.0000   1.0000   1.0000   1.0000   1.0000
     1.0000   1.0000   1.0000   1.0000   1.0000   1.0000   1.0000   1.0000
     1.0000   1.0000   1.0000   1.0000   1.0000   1.0000   1.0000   1.0000
     1.0000   1.0000   1.0000   1.0000   1.0000   1.0000   1.0000   1.0000
     1.0000   1.0000   1.0000   1.0000   1.0000   1.0000   1.0000   1.0000
     1.0000   1.0000   1.0000   1.0000   1.0000   1.0000   1.0000   1.0000
     1.0000   1.0000   1.0000   1.0000   1.0000   1.0000   1.0000   1.0000
     1.0000   1.0000   1.0000   1.0000   1.0000   1.0000   1.0000   1.0000
     1.0000   1.0000   1.0000   1.0000   1.0000   1.0000   1.0000   1.0000
     1.0000   1.0000   1.0000   1.0000   1.0000   1.0000   1.0000   1.0000
     1.0000   1.0000   1.0000   1.0000   1.0000   1.0000   1.0000   1.0000
     1.0000   1.0000   1.0000   1.0000   1.0000   1.0000   1.0000   1.0000
     1.0000   1.0000   1.0000   1.0000   1.0000   1.0000   1.0000   1.0000
     1.0722   1.0722   1.0802   1.0802   0.7632   0.7632   0.6982   0.6981
     0.6968   0.6966   0.0000   0.0000   0.0000   0.0000   0.0000   0.0000
     0.0000   0.0000   0.0000   0.0000   0.0000   0.0000   0.0000   0.0000
     0.0000   0.0000   0.0000   0.0000   0.0000   0.0000   0.0000   0.0000
     0.0000   0.0000   0.0000   0.0000   0.0000   0.0000   0.0000   0.0000
     0.0000   0.0000   0.0000   0.0000   0.0000   0.0000   0.0000   0.0000
     0.0000   0.0000   0.0000   0.0000   0.0000   0.0000   0.0000   0.0000
     0.0000   0.0000   0.0000   0.0000   0.0000   0.0000   0.0000   0.0000
     0.0000   0.0000   0.0000   0.0000   0.0000   0.0000   0.0000   0.0000
     0.0000   0.0000   0.0000   0.0000   0.0000   0.0000   0.0000   0.0000
     0.0000   0.0000   0.0000   0.0000   0.0000   0.0000   0.0000   0.0000
     0.0000   0.0000   0.0000   0.0000   0.0000   0.0000   0.0000   0.0000
     0.0000   0.0000   0.0000   0.0000   0.0000   0.0000   0.0000   0.0000

     the Fermi energy is     1.4937 ev

!    total energy              =  -22154.12380858 Ry
     estimated scf accuracy    <       0.00000469 Ry
     smearing contrib. (-TS)   =      -0.01749601 Ry
     internal energy E=F+TS    =  -22154.10631257 Ry

     The total energy is F=E-TS. E is the sum of the following terms:
     one-electron contribution = -144865.08161456 Ry
     hartree contribution      =   72365.85683276 Ry
     xc contribution           =   -2024.12947447 Ry
     ewald contribution        =   52369.24794370 Ry

     convergence has been achieved in   9 iterations

     Writing all to output data dir ./tmp/Zn002.save/ :
     XML data file, charge density, pseudopotentials, collected wavefunctions

     init_run     :     46.60s CPU     46.95s WALL (       1 calls)
     electrons    :   1677.75s CPU   1690.65s WALL (       1 calls)

     Called by init_run:
     wfcinit      :     45.31s CPU     45.61s WALL (       1 calls)
     wfcinit:atom :      0.03s CPU      0.05s WALL (       4 calls)
     wfcinit:wfcr :     44.87s CPU     45.10s WALL (       4 calls)
     potinit      :      0.07s CPU      0.09s WALL (       1 calls)
     hinit0       :      0.03s CPU      0.04s WALL (       1 calls)

     Called by electrons:
     c_bands      :   1551.25s CPU   1562.91s WALL (      10 calls)
     sum_band     :    117.77s CPU    118.64s WALL (      10 calls)
     v_of_rho     :      0.68s CPU      0.72s WALL (      10 calls)
     v_h          :      0.04s CPU      0.05s WALL (      10 calls)
     v_xc         :      0.63s CPU      0.67s WALL (      10 calls)
     newd         :      8.80s CPU      9.10s WALL (      10 calls)
     mix_rho      :      0.08s CPU      0.08s WALL (      10 calls)

     Called by c_bands:
     init_us_2    :      1.53s CPU      1.55s WALL (      84 calls)
     cegterg      :   1548.06s CPU   1559.66s WALL (      40 calls)

     Called by sum_band:
     sum_band:wei :      0.02s CPU      0.02s WALL (      10 calls)
     sum_band:loo :    109.04s CPU    109.57s WALL (      10 calls)
     sum_band:buf :      0.34s CPU      0.35s WALL (      40 calls)
     sum_band:ini :      0.74s CPU      0.74s WALL (      40 calls)
     sum_band:cal :     93.02s CPU     93.42s WALL (      40 calls)
     sum_band:bec :      0.82s CPU      0.82s WALL (      40 calls)
     addusdens    :      8.60s CPU      8.92s WALL (      10 calls)
                                        0.00s GPU  (      10 calls)
     addusd:skk   :      0.08s CPU      0.10s WALL (      10 calls)
                                        0.00s GPU  (      10 calls)

     Called by *egterg:
     cdiaghg      :    108.96s CPU    112.95s WALL (     245 calls)
     cegterg:over :    237.99s CPU    238.79s WALL (     209 calls)
     cegterg:upda :    105.09s CPU    105.71s WALL (     209 calls)
     cegterg:last :    378.66s CPU    380.85s WALL (      76 calls)
     cdiaghg:chol :      6.82s CPU      6.84s WALL (     245 calls)
     cdiaghg:inve :      1.12s CPU      1.12s WALL (     245 calls)
     cdiaghg:para :     28.49s CPU     29.04s WALL (     490 calls)
     h_psi        :    482.13s CPU    484.50s WALL (     253 calls)
     s_psi        :    197.16s CPU    197.64s WALL (     253 calls)
     g_psi        :      0.20s CPU      0.20s WALL (     209 calls)

     Called by h_psi:
     h_psi:calbec :    219.72s CPU    220.73s WALL (     253 calls)
     vloc_psi     :     63.09s CPU     63.55s WALL (     253 calls)
     add_vuspsi   :    198.86s CPU    199.35s WALL (     253 calls)

     General routines
     calbec       :    312.74s CPU    314.15s WALL (     293 calls)
     fft          :      0.39s CPU      0.46s WALL (     128 calls)
     ffts         :      0.02s CPU      0.02s WALL (      20 calls)
     fftw         :     67.36s CPU     67.85s WALL (  131426 calls)
     interpolate  :      0.04s CPU      0.05s WALL (      10 calls)

     Parallel routines

     PWSCF        :  28m45.22s CPU  29m 1.64s WALL


   This run was terminated on:   1:40:45  27Mar2025            

=------------------------------------------------------------------------------=
   JOB DONE.
=------------------------------------------------------------------------------=
