
     Program PWSCF v.7.3.1 starts on  6Apr2025 at 15: 3:32 

     This program is part of the open-source Quantum ESPRESSO suite
     for quantum simulation of materials; please cite
         "P. Giannozzi et al., J. Phys.:Condens. Matter 21 395502 (2009);
         "P. Giannozzi et al., J. Phys.:Condens. Matter 29 465901 (2017);
         "P. Giannozzi et al., J. Chem. Phys. 152 154105 (2020);
          URL http://www.quantum-espresso.org", 
     in publications or presentations arising from this work. More details at
     http://www.quantum-espresso.org/quote

     Parallel version (MPI), running on    26 processors

     MPI processes distributed on     1 nodes
     186567 MiB available memory on the printing compute node when the environment starts

     Waiting for input...
     Reading input from standard input
Warning: card &CELL ignored
Warning: card   CELL_DOFREE = 'ALL' ignored
Warning: card / ignored

     Current dimensions of program PWSCF are:
     Max number of different atomic species (ntypx) = 10
     Max number of k-points (npk) =  40000
     Max angular momentum in pseudopotentials (lmaxx) =  4
     file C.pbe-n-kjpaw_psl.1.0.0.UPF: wavefunction(s)  2S 2P renormalized

     R & G space division:  proc/nbgrp/npool/nimage =      26
     Subspace diagonalization in iterative solution of the eigenvalue problem:
     one sub-group per band group will be used
     custom distributed-memory algorithm (size of sub-group:  5*  5 procs)


     Parallelization info
     --------------------
     sticks:   dense  smooth     PW     G-vecs:    dense   smooth      PW
     Min         343     196     54                51262    22144    3213
     Max         344     197     55                51270    22152    3221
     Sum        8941    5109   1411              1332973   575857   83601

     Using Slab Decomposition



     bravais-lattice index     =            0
     lattice parameter (alat)  =      20.9009  a.u.
     unit-cell volume          =   16846.7507 (a.u.)^3
     number of atoms/cell      =           63
     number of atomic types    =            4
     number of electrons       =      1004.00
     number of Kohn-Sham states=          602
     kinetic-energy cutoff     =      40.0000  Ry
     charge density cutoff     =     280.0000  Ry
     scf convergence threshold =      1.0E-06
     mixing beta               =       0.4000
     number of iterations used =            8  plain     mixing
     energy convergence thresh.=      1.0E-05
     force convergence thresh. =      5.0E-04
     Exchange-correlation= PBE
                           (   1   4   3   4   0   0   0)
     nstep                     =          500


     celldm(1)=  20.900943  celldm(2)=   0.000000  celldm(3)=   0.000000
     celldm(4)=   0.000000  celldm(5)=   0.000000  celldm(6)=   0.000000

     crystal axes: (cart. coord. in units of alat)
               a(1) = (   1.000000   0.000000   0.000000 )  
               a(2) = (  -0.223489   0.918700   0.000000 )  
               a(3) = (  -4.200249  -1.021781   2.008375 )  

     reciprocal axes: (cart. coord. in units 2 pi/alat)
               b(1) = (  1.000000  0.243267  2.215131 )  
               b(2) = ( -0.000000  1.088495  0.553783 )  
               b(3) = (  0.000000 -0.000000  0.497915 )  


     PseudoPot. # 1 for Zn read from file:
     /home/yongsang/Research/PSID_server_room/qe/[00]QE/qepseudo/SSSP_1.3.0_PBE_efficiency/Zn_pbe_v1.uspp.F.UPF
     MD5 check sum: df62231357ef9e81f77b2b3087fa5675
     Pseudo is Ultrasoft, Zval = 20.0
     Generated by new atomic code, or converted to UPF format
     Using radial grid of  943 points,  6 beta functions with: 
                l(1) =   0
                l(2) =   0
                l(3) =   1
                l(4) =   1
                l(5) =   2
                l(6) =   2
     Q(r) pseudized with  8 coefficients,  rinner =    1.100   1.100   1.100
                                                       1.100   1.100

     PseudoPot. # 2 for N  read from file:
     /home/yongsang/Research/PSID_server_room/qe/[00]QE/qepseudo/SSSP_1.3.0_PBE_efficiency/N.pbe-n-radius_5.UPF
     MD5 check sum: 16739722b17309cd8fe442a2ace49922
     Pseudo is Ultrasoft + core correction, Zval =  5.0
     Generated using "atomic" code by A. Dal Corso  v.5.1
     Using radial grid of 1085 points,  4 beta functions with: 
                l(1) =   0
                l(2) =   0
                l(3) =   1
                l(4) =   1
     Q(r) pseudized with 0 coefficients 


     PseudoPot. # 3 for C  read from file:
     /home/yongsang/Research/PSID_server_room/qe/[00]QE/qepseudo/SSSP_1.3.0_PBE_efficiency/C.pbe-n-kjpaw_psl.1.0.0.UPF
     MD5 check sum: 5d2aebdfa2cae82b50a7e79e9516da0f
     Pseudo is Projector augmented-wave + core cor, Zval =  4.0
     Generated using "atomic" code by A. Dal Corso  v.5.1
     Shape of augmentation charge: PSQ
     Using radial grid of 1073 points,  4 beta functions with: 
                l(1) =   0
                l(2) =   0
                l(3) =   1
                l(4) =   1
     Q(r) pseudized with 0 coefficients 


     PseudoPot. # 4 for H  read from file:
     /home/yongsang/Research/PSID_server_room/qe/[00]QE/qepseudo/SSSP_1.3.0_PBE_efficiency/H.pbe-rrkjus_psl.1.0.0.UPF
     MD5 check sum: f52b6d4d1c606e5624b1dc7b2218f220
     Pseudo is Ultrasoft, Zval =  1.0
     Generated using "atomic" code by A. Dal Corso  v.5.1
     Using radial grid of  929 points,  2 beta functions with: 
                l(1) =   0
                l(2) =   0
     Q(r) pseudized with 0 coefficients 


     atomic species   valence    mass     pseudopotential
     Zn               20.00    65.38000     Zn( 1.00)
     N                 5.00    14.00674     N ( 1.00)
     C                 4.00    12.01070     C ( 1.00)
     H                 1.00     1.00794     H ( 1.00)

     No symmetry found


                                    s                        frac. trans.

      isym =  1     identity                                     

 cryst.   s( 1) = (     1          0          0      )
                  (     0          1          0      )
                  (     0          0          1      )

 cart.    s( 1) = (  1.0000000  0.0000000  0.0000000 )
                  (  0.0000000  1.0000000  0.0000000 )
                  (  0.0000000  0.0000000  1.0000000 )


   Cartesian axes

     site n.     atom                  positions (alat units)
         1        Zn     tau(   1) = (  -0.0970639   0.0980210   0.1082940  )
         2        Zn     tau(   2) = (  -0.2088085   0.5573710   0.1082940  )
         3        Zn     tau(   3) = (  -0.3769628   0.0305559   0.3973672  )
         4        Zn     tau(   4) = (  -0.4881653   0.4899168   0.3977985  )
         5        Zn     tau(   5) = (  -0.7313775  -0.0575992   0.5255816  )
         6        Zn     tau(   6) = (  -0.8422345   0.4019955   0.5193743  )
         7        Zn     tau(   7) = (  -0.1529361   0.3276960   0.1082940  )
         8        Zn     tau(   8) = (  -0.2646808   0.7870460   0.1082940  )
         9        Zn     tau(   9) = (  -0.4323928   0.2601564   0.3981063  )
        10        Zn     tau(  10) = (  -0.5441825   0.7198289   0.3972776  )
        11        Zn     tau(  11) = (  -0.7865518   0.1725445   0.5261516  )
        12        Zn     tau(  12) = (  -0.8981625   0.6316255   0.5254344  )
        13        Zn     tau(  13) = (   0.4029362   0.0980210   0.1082940  )
        14        Zn     tau(  14) = (   0.2911915   0.5573710   0.1082940  )
        15        Zn     tau(  15) = (   0.0398380   0.0107854   0.3137383  )
        16        Zn     tau(  16) = (  -0.0718129   0.4702170   0.3136071  )
        17        Zn     tau(  17) = (  -0.1810275  -0.0420837   0.5143117  )
        18        Zn     tau(  18) = (  -0.2924184   0.4170515   0.5147617  )
        19        Zn     tau(  19) = (   0.3470638   0.3276960   0.1082940  )
        20        Zn     tau(  20) = (   0.2353192   0.7870460   0.1082940  )
        21        Zn     tau(  21) = (  -0.0163746   0.2403974   0.3131105  )
        22        Zn     tau(  22) = (  -0.1277912   0.6999410   0.3140527  )
        23        Zn     tau(  23) = (  -0.2366148   0.1873485   0.5147123  )
        24        Zn     tau(  24) = (  -0.3485442   0.6467525   0.5145433  )
        25        Zn     tau(  25) = (   0.1529361   0.0372043   0.0773528  )
        26        Zn     tau(  26) = (   0.0411915   0.4965543   0.0773528  )
        27        Zn     tau(  27) = (  -0.2009021  -0.0482937   0.2599218  )
        28        Zn     tau(  28) = (  -0.3126261   0.4108668   0.2595142  )
        29        Zn     tau(  29) = (  -0.5419176  -0.1316778   0.3956224  )
        30        Zn     tau(  30) = (  -0.6529587   0.3274537   0.3930738  )
        31        Zn     tau(  31) = (   0.0970639   0.2668793   0.0773528  )
        32        Zn     tau(  32) = (  -0.0146808   0.7262293   0.0773528  )
        33        Zn     tau(  33) = (  -0.2568838   0.1813087   0.2598253  )
        34        Zn     tau(  34) = (  -0.3683199   0.6405434   0.2596670  )
        35        Zn     tau(  35) = (  -0.5980330   0.0978865   0.3956177  )
        36        Zn     tau(  36) = (  -0.7089288   0.5577754   0.3934819  )
        37        Zn     tau(  37) = (   0.6529362   0.0372043   0.0773528  )
        38        Zn     tau(  38) = (   0.5411915   0.4965543   0.0773528  )
        39        Zn     tau(  39) = (   0.2737996  -0.0547825   0.2642237  )
        40        Zn     tau(  40) = (   0.1623997   0.4047148   0.2625859  )
        41        Zn     tau(  41) = (   0.0438224  -0.1081255   0.5278849  )
        42        Zn     tau(  42) = (  -0.0673723   0.3508885   0.5269788  )
        43        Zn     tau(  43) = (   0.5970639   0.2668793   0.0773528  )
        44        Zn     tau(  44) = (   0.4853193   0.7262293   0.0773528  )
        45        Zn     tau(  45) = (   0.2174295   0.1745145   0.2642806  )
        46        Zn     tau(  46) = (   0.1058881   0.6344552   0.2643865  )
        47        Zn     tau(  47) = (  -0.0112817   0.1216348   0.5277601  )
        48        Zn     tau(  48) = (  -0.1229294   0.5808110   0.5278277  )
        49        C      tau(  49) = (  -0.9704952   0.4372943   1.3149417  )
        50        C      tau(  50) = (  -0.9503644   0.4289248   1.1881014  )
        51        C      tau(  51) = (  -0.9696485   0.5296345   1.1125568  )
        52        C      tau(  52) = (  -0.9122725   0.3193481   1.1355986  )
        53        C      tau(  53) = (  -0.9518908   0.5209673   0.9888616  )
        54        C      tau(  54) = (  -0.8945741   0.3106462   1.0119003  )
        55        C      tau(  55) = (  -0.9146621   0.4110842   0.9358061  )
        56        N      tau(  56) = (  -0.9872439   0.4441244   1.4189805  )
        57        N      tau(  57) = (  -0.8957245   0.4029748   0.8130938  )
        58        H      tau(  58) = (  -0.8927751   0.3197619   0.7744557  )
        59        H      tau(  59) = (  -0.9329770   0.4666489   0.7582664  )
        60        H      tau(  60) = (  -0.8968077   0.2409234   1.1932543  )
        61        H      tau(  61) = (  -0.9987030   0.6150151   1.1522468  )
        62        H      tau(  62) = (  -0.8647007   0.2252579   0.9725217  )
        63        H      tau(  63) = (  -0.9670115   0.5997100   0.9313732  )

     --------------------------------------------
     DFT-D3 Dispersion Correction (3-body terms):
     --------------------------------------------
       Reference C6 values for interpolation: 

         atom   Coordination number   C6
         H          0.912             6.05
         H          0.000            15.18
         C          0.000            98.23
         C          0.987            86.49
         C          1.998            58.72
         C          2.999            51.56
         C          3.984            36.41
         N          0.000            50.54
         N          0.994            44.25
         N          2.014            39.35
         N          2.990            31.16
         Zn         0.000           681.04
         Zn         1.942           306.91

       Values used:

         atom   Coordination number  R0_AB[au]  C6      C8
         Zn         6.233            3.053    306.91  23930.67
         Zn         6.224            3.053    306.91  23930.67
         Zn         6.997            3.053    306.91  23930.67
         Zn         6.996            3.053    306.91  23930.67
         Zn         4.992            3.053    306.91  23930.67
         Zn         5.145            3.053    306.91  23930.67
         Zn         6.236            3.053    306.91  23930.67
         Zn         6.221            3.053    306.91  23930.67
         Zn         6.996            3.053    306.91  23930.67
         Zn         7.003            3.053    306.91  23930.67
         Zn         4.964            3.053    306.91  23930.67
         Zn         4.992            3.053    306.91  23930.67
         Zn         4.968            3.053    306.91  23930.67
         Zn         5.004            3.053    306.91  23930.67
         Zn         7.183            3.053    306.91  23930.67
         Zn         7.184            3.053    306.91  23930.67
         Zn         5.900            3.053    306.91  23930.67
         Zn         5.884            3.053    306.91  23930.67
         Zn         5.005            3.053    306.91  23930.67
         Zn         4.971            3.053    306.91  23930.67
         Zn         7.201            3.053    306.91  23930.67
         Zn         7.172            3.053    306.91  23930.67
         Zn         5.891            3.053    306.91  23930.67
         Zn         5.889            3.053    306.91  23930.67
         Zn         5.600            3.053    306.91  23930.67
         Zn         5.610            3.053    306.91  23930.67
         Zn         7.977            3.053    306.91  23930.67
         Zn         7.968            3.053    306.91  23930.67
         Zn         7.071            3.053    306.91  23930.67
         Zn         7.098            3.053    306.91  23930.67
         Zn         5.616            3.053    306.91  23930.67
         Zn         5.594            3.053    306.91  23930.67
         Zn         7.976            3.053    306.91  23930.67
         Zn         7.971            3.053    306.91  23930.67
         Zn         7.067            3.053    306.91  23930.67
         Zn         7.101            3.053    306.91  23930.67
         Zn         4.923            3.053    306.91  23930.67
         Zn         4.927            3.053    306.91  23930.67
         Zn         8.375            3.053    306.91  23930.67
         Zn         8.476            3.053    306.91  23930.67
         Zn         6.008            3.053    306.91  23930.67
         Zn         6.022            3.053    306.91  23930.67
         Zn         4.927            3.053    306.91  23930.67
         Zn         4.921            3.053    306.91  23930.67
         Zn         8.373            3.053    306.91  23930.67
         Zn         8.383            3.053    306.91  23930.67
         Zn         6.003            3.053    306.91  23930.67
         Zn         6.000            3.053    306.91  23930.67
         C          2.098            2.750     58.61   1695.06
         C          3.147            2.750     50.56   1462.19
         C          3.170            2.750     50.36   1456.60
         C          3.170            2.750     50.36   1456.63
         C          3.165            2.750     50.41   1457.82
         C          3.164            2.750     50.41   1457.95
         C          3.142            2.750     50.59   1463.26
         N          1.022            2.478     44.24    976.01
         N          3.098            2.478     31.24    689.08
         H          1.011            2.062      6.17     74.61
         H          1.013            2.062      6.17     74.58
         H          1.003            2.062      6.18     74.68
         H          1.004            2.062      6.18     74.68
         H          1.003            2.062      6.18     74.68
         H          1.004            2.062      6.18     74.68

         Molecular C6 ( Ry / a.u.^6 ) =    840993.30


   Crystallographic axes

     site n.     atom                  positions (cryst. coord.)
         1        Zn     tau(   1) = (  0.1666667  0.1666667  0.0539212  )
         2        Zn     tau(   2) = (  0.1666668  0.6666667  0.0539212  )
         3        Zn     tau(   3) = (  0.5106910  0.2533151  0.1978551  )
         4        Zn     tau(   4) = (  0.5121912  0.7535658  0.1980699  )
         5        Zn     tau(   5) = (  0.4188429  0.2283616  0.2616950  )
         6        Zn     tau(   6) = (  0.4060399  0.7251905  0.2586042  )
         7        Zn     tau(   7) = (  0.1666668  0.4166667  0.0539212  )
         8        Zn     tau(   8) = (  0.1666667  0.9166667  0.0539212  )
         9        Zn     tau(   9) = (  0.5127524  0.5036432  0.1982231  )
        10        Zn     tau(  10) = (  0.5109501  1.0035354  0.1978105  )
        11        Zn     tau(  11) = (  0.4209174  0.4791874  0.2619788  )
        12        Zn     tau(  12) = (  0.4193972  0.9784975  0.2616217  )
        13        Zn     tau(  13) = (  0.6666668  0.1666667  0.0539212  )
        14        Zn     tau(  14) = (  0.6666667  0.6666667  0.0539212  )
        15        Zn     tau(  15) = (  0.7374333  0.1854827  0.1562150  )
        16        Zn     tau(  16) = (  0.7372562  0.6854989  0.1561497  )
        17        Zn     tau(  17) = (  0.9480028  0.2390091  0.2560835  )
        18        Zn     tau(  18) = (  0.9493013  0.7390245  0.2563076  )
        19        Zn     tau(  19) = (  0.6666668  0.4166667  0.0539212  )
        20        Zn     tau(  20) = (  0.6666668  0.9166667  0.0539212  )
        21        Zn     tau(  21) = (  0.7356871  0.4350665  0.1559024  )
        22        Zn     tau(  22) = (  0.7381493  0.9357990  0.1563716  )
        23        Zn     tau(  23) = (  0.9491162  0.4889666  0.2562830  )
        24        Zn     tau(  24) = (  0.9485703  0.9889318  0.2561988  )
        25        Zn     tau(  25) = (  0.3333333  0.0833333  0.0385151  )
        26        Zn     tau(  26) = (  0.3333333  0.5833333  0.0385151  )
        27        Zn     tau(  27) = (  0.3631105  0.0913727  0.1294189  )
        28        Zn     tau(  28) = (  0.3621823  0.5909409  0.1292160  )
        29        Zn     tau(  29) = (  0.3024051  0.0757583  0.1969863  )
        30        Zn     tau(  30) = (  0.2974101  0.5741091  0.1957173  )
        31        Zn     tau(  31) = (  0.3333333  0.3333333  0.0385151  )
        32        Zn     tau(  32) = (  0.3333333  0.8333333  0.0385151  )
        33        Zn     tau(  33) = (  0.3627698  0.3412403  0.1293709  )
        34        Zn     tau(  34) = (  0.3626996  0.8410272  0.1292921  )
        35        Zn     tau(  35) = (  0.3021246  0.3256351  0.1969840  )
        36        Zn     tau(  36) = (  0.2983736  0.8250390  0.1959205  )
        37        Zn     tau(  37) = (  0.8333333  0.0833333  0.0385151  )
        38        Zn     tau(  38) = (  0.8333333  0.5833333  0.0385151  )
        39        Zn     tau(  39) = (  0.8457629  0.0866920  0.1315609  )
        40        Zn     tau(  40) = (  0.8425157  0.5859455  0.1307455  )
        41        Zn     tau(  41) = (  1.1868535  0.1746395  0.2628418  )
        42        Zn     tau(  42) = (  1.1853145  0.6737720  0.2623907  )
        43        Zn     tau(  43) = (  0.8333333  0.3333333  0.0385151  )
        44        Zn     tau(  44) = (  0.8333333  0.8333333  0.0385151  )
        45        Zn     tau(  45) = (  0.8452993  0.3363121  0.1315893  )
        46        Zn     tau(  46) = (  0.8458808  0.8370137  0.1316420  )
        47        Zn     tau(  47) = (  1.1873660  0.4246633  0.2627797  )
        48        Zn     tau(  48) = (  1.1875703  0.9245115  0.2628133  )
        49        C      tau(  49) = (  2.0486526  1.2041846  0.6547292  )
        50        C      tau(  50) = (  1.7857794  1.1248324  0.5915735  )
        51        C      tau(  51) = (  1.6236535  1.1926191  0.5539587  )
        52        C      tau(  52) = (  1.6809143  0.9764836  0.5654316  )
        53        C      tau(  53) = (  1.3653015  1.1146846  0.4923690  )
        54        C      tau(  54) = (  1.4224880  0.8985097  0.5038404  )
        55        C      tau(  55) = (  1.2582746  0.9656963  0.4659519  )
        56        N      tau(  56) = (  2.2640250  1.2692340  0.7065317  )
        57        N      tau(  57) = (  1.0034156  0.8889133  0.4048516  )
        58        H      tau(  58) = (  0.9005335  0.7769393  0.3856131  )
        59        H      tau(  59) = (  0.8602029  0.9278597  0.3775522  )
        60        H      tau(  60) = (  1.8050160  0.9230476  0.5941392  )
        61        H      tau(  61) = (  1.7032878  1.3075350  0.5737210  )
        62        H      tau(  62) = (  1.3443604  0.7837577  0.4842331  )
        63        H      tau(  63) = (  1.2419921  1.1685596  0.4637447  )

     number of k points=     5  Marzari-Vanderbilt smearing, width (Ry)=  0.0200
                       cart. coord. in units 2pi/alat
        k(    1) = (   0.0000000   0.0000000   0.0000000), wk =   0.2222222
        k(    2) = (   0.0000000   0.3628315   0.1845943), wk =   0.4444444
        k(    3) = (   0.3333333   0.0810890   0.7383771), wk =   0.4444444
        k(    4) = (   0.3333333   0.4439205   0.9229714), wk =   0.4444444
        k(    5) = (   0.3333333  -0.2817426   0.5537829), wk =   0.4444444

                       cryst. coord.
        k(    1) = (   0.0000000   0.0000000   0.0000000), wk =   0.2222222
        k(    2) = (   0.0000000   0.3333333   0.0000000), wk =   0.4444444
        k(    3) = (   0.3333333   0.0000000   0.0000000), wk =   0.4444444
        k(    4) = (   0.3333333   0.3333333   0.0000000), wk =   0.4444444
        k(    5) = (   0.3333333  -0.3333333   0.0000000), wk =   0.4444444

     Dense  grid:  1332973 G-vectors     FFT dimensions: ( 120, 108, 540)

     Smooth grid:   575857 G-vectors     FFT dimensions: (  90,  80, 405)

     Dynamical RAM for                 wfc:      25.43 MB

     Dynamical RAM for     wfc (w. buffer):     152.56 MB

     Dynamical RAM for           str. fact:       3.13 MB

     Dynamical RAM for           local pot:       0.00 MB

     Dynamical RAM for          nlocal pot:      40.04 MB

     Dynamical RAM for                qrad:       5.37 MB

     Dynamical RAM for          rho,v,vnew:       8.58 MB

     Dynamical RAM for               rhoin:       2.86 MB

     Dynamical RAM for            rho*nmix:      12.52 MB

     Dynamical RAM for           G-vectors:       3.10 MB

     Dynamical RAM for          h,s,v(r/c):       2.64 MB

     Dynamical RAM for          <psi|beta>:       8.71 MB

     Dynamical RAM for                 psi:      50.85 MB

     Dynamical RAM for                hpsi:      50.85 MB

     Dynamical RAM for                spsi:      50.85 MB

     Dynamical RAM for      wfcinit/wfcrot:      66.42 MB

     Dynamical RAM for           addusdens:     183.06 MB

     Dynamical RAM for          addusforce:     257.17 MB

     Dynamical RAM for         addusstress:     157.24 MB

     Estimated static dynamical RAM per process >     229.93 MB

     Estimated max dynamical RAM per process >     499.62 MB

     Estimated total dynamical RAM >      12.69 GB

     Initial potential from superposition of free atoms

     starting charge    1003.9929, renormalised to    1004.0000

     negative rho (up, down):  1.908E-03 0.000E+00
     Starting wfcs are  666 randomized atomic wfcs
     Checking if some PAW data can be deallocated... 
       PAW data deallocated on   22 nodes for type:  3

     total cpu time spent up to now is       40.1 secs

     Self-consistent Calculation

     iteration #  1     ecut=    40.00 Ry     beta= 0.40
     Davidson diagonalization with overlap

---- Real-time Memory Report at c_bands before calling an iterative solver
           457 MiB given to the printing process from OS
             0 MiB allocation reported by mallinfo(arena+hblkhd)
        179802 MiB available memory on the node where the printing process lives
------------------
     ethr =  1.00E-02,  avg # of iterations =  7.6

     negative rho (up, down):  2.397E-03 0.000E+00

     total cpu time spent up to now is      187.8 secs

     total energy              =  -22326.29440471 Ry
     estimated scf accuracy    <      10.45109052 Ry

     iteration #  2     ecut=    40.00 Ry     beta= 0.40
     Davidson diagonalization with overlap

---- Real-time Memory Report at c_bands before calling an iterative solver
           632 MiB given to the printing process from OS
             0 MiB allocation reported by mallinfo(arena+hblkhd)
        178773 MiB available memory on the node where the printing process lives
------------------
     ethr =  1.04E-03,  avg # of iterations = 10.0

     negative rho (up, down):  3.686E-03 0.000E+00

     total cpu time spent up to now is      339.0 secs

     total energy              =  -22311.54575205 Ry
     estimated scf accuracy    <     274.45485894 Ry

     iteration #  3     ecut=    40.00 Ry     beta= 0.40
     Davidson diagonalization with overlap

---- Real-time Memory Report at c_bands before calling an iterative solver
           636 MiB given to the printing process from OS
             0 MiB allocation reported by mallinfo(arena+hblkhd)
        178648 MiB available memory on the node where the printing process lives
------------------
     ethr =  1.04E-03,  avg # of iterations =  8.0

     negative rho (up, down):  3.439E-03 0.000E+00

     total cpu time spent up to now is      517.0 secs

     total energy              =  -22330.47645823 Ry
     estimated scf accuracy    <       5.07751782 Ry

     iteration #  4     ecut=    40.00 Ry     beta= 0.40
     Davidson diagonalization with overlap

---- Real-time Memory Report at c_bands before calling an iterative solver
           646 MiB given to the printing process from OS
             0 MiB allocation reported by mallinfo(arena+hblkhd)
        178613 MiB available memory on the node where the printing process lives
------------------
     ethr =  5.06E-04,  avg # of iterations =  4.4

     negative rho (up, down):  3.403E-03 0.000E+00

     total cpu time spent up to now is      641.0 secs

     total energy              =  -22330.65046959 Ry
     estimated scf accuracy    <       6.50910888 Ry

     iteration #  5     ecut=    40.00 Ry     beta= 0.40
     Davidson diagonalization with overlap

---- Real-time Memory Report at c_bands before calling an iterative solver
           647 MiB given to the printing process from OS
             0 MiB allocation reported by mallinfo(arena+hblkhd)
        178606 MiB available memory on the node where the printing process lives
------------------
     ethr =  5.06E-04,  avg # of iterations =  2.6

     negative rho (up, down):  3.389E-03 0.000E+00

     total cpu time spent up to now is      759.2 secs

     total energy              =  -22331.05174550 Ry
     estimated scf accuracy    <       0.38437339 Ry

     iteration #  6     ecut=    40.00 Ry     beta= 0.40
     Davidson diagonalization with overlap

---- Real-time Memory Report at c_bands before calling an iterative solver
           650 MiB given to the printing process from OS
             0 MiB allocation reported by mallinfo(arena+hblkhd)
        178586 MiB available memory on the node where the printing process lives
------------------
     ethr =  3.83E-05,  avg # of iterations =  7.6

     negative rho (up, down):  3.475E-03 0.000E+00

     total cpu time spent up to now is      890.3 secs

     total energy              =  -22331.05513583 Ry
     estimated scf accuracy    <       0.16688569 Ry

     iteration #  7     ecut=    40.00 Ry     beta= 0.40
     Davidson diagonalization with overlap

---- Real-time Memory Report at c_bands before calling an iterative solver
           656 MiB given to the printing process from OS
             0 MiB allocation reported by mallinfo(arena+hblkhd)
        178552 MiB available memory on the node where the printing process lives
------------------
     ethr =  1.66E-05,  avg # of iterations =  9.8

     negative rho (up, down):  3.551E-03 0.000E+00

     total cpu time spent up to now is     1020.8 secs

     total energy              =  -22331.05423300 Ry
     estimated scf accuracy    <       0.07848065 Ry

     iteration #  8     ecut=    40.00 Ry     beta= 0.40
     Davidson diagonalization with overlap

---- Real-time Memory Report at c_bands before calling an iterative solver
           658 MiB given to the printing process from OS
             0 MiB allocation reported by mallinfo(arena+hblkhd)
        178526 MiB available memory on the node where the printing process lives
------------------
     ethr =  7.82E-06,  avg # of iterations =  7.4

     negative rho (up, down):  3.609E-03 0.000E+00

     total cpu time spent up to now is     1149.2 secs

     total energy              =  -22331.05450918 Ry
     estimated scf accuracy    <       0.06152742 Ry

     iteration #  9     ecut=    40.00 Ry     beta= 0.40
     Davidson diagonalization with overlap

---- Real-time Memory Report at c_bands before calling an iterative solver
           659 MiB given to the printing process from OS
             0 MiB allocation reported by mallinfo(arena+hblkhd)
        178499 MiB available memory on the node where the printing process lives
------------------
     ethr =  6.13E-06,  avg # of iterations =  6.8

     negative rho (up, down):  3.644E-03 0.000E+00

     total cpu time spent up to now is     1272.4 secs

     total energy              =  -22331.05444120 Ry
     estimated scf accuracy    <       0.03152910 Ry

     iteration # 10     ecut=    40.00 Ry     beta= 0.40
     Davidson diagonalization with overlap

---- Real-time Memory Report at c_bands before calling an iterative solver
           660 MiB given to the printing process from OS
             0 MiB allocation reported by mallinfo(arena+hblkhd)
        178464 MiB available memory on the node where the printing process lives
------------------
     c_bands:  1 eigenvalues not converged
     ethr =  3.14E-06,  avg # of iterations = 17.4

     negative rho (up, down):  3.678E-03 0.000E+00

     total cpu time spent up to now is     1411.2 secs

     total energy              =  -22331.05114015 Ry
     estimated scf accuracy    <       0.02631282 Ry

     iteration # 11     ecut=    40.00 Ry     beta= 0.40
     Davidson diagonalization with overlap

---- Real-time Memory Report at c_bands before calling an iterative solver
           661 MiB given to the printing process from OS
             0 MiB allocation reported by mallinfo(arena+hblkhd)
        178442 MiB available memory on the node where the printing process lives
------------------
     c_bands:  1 eigenvalues not converged
     c_bands:  1 eigenvalues not converged
     ethr =  2.62E-06,  avg # of iterations = 14.2

     negative rho (up, down):  3.828E-03 0.000E+00

     total cpu time spent up to now is     1544.0 secs

     total energy              =  -22331.03710056 Ry
     estimated scf accuracy    <       0.02043245 Ry

     iteration # 12     ecut=    40.00 Ry     beta= 0.40
     Davidson diagonalization with overlap

---- Real-time Memory Report at c_bands before calling an iterative solver
           661 MiB given to the printing process from OS
             0 MiB allocation reported by mallinfo(arena+hblkhd)
        178438 MiB available memory on the node where the printing process lives
------------------
     ethr =  2.04E-06,  avg # of iterations = 17.4

     negative rho (up, down):  3.790E-03 0.000E+00

     total cpu time spent up to now is     1714.5 secs

     total energy              =  -22331.03949575 Ry
     estimated scf accuracy    <       0.00310371 Ry

     iteration # 13     ecut=    40.00 Ry     beta= 0.40
     Davidson diagonalization with overlap

---- Real-time Memory Report at c_bands before calling an iterative solver
           661 MiB given to the printing process from OS
             0 MiB allocation reported by mallinfo(arena+hblkhd)
        178426 MiB available memory on the node where the printing process lives
------------------
     ethr =  3.09E-07,  avg # of iterations =  5.8

     negative rho (up, down):  3.761E-03 0.000E+00

     total cpu time spent up to now is     1838.7 secs

     total energy              =  -22331.03979435 Ry
     estimated scf accuracy    <       0.00058748 Ry

     iteration # 14     ecut=    40.00 Ry     beta= 0.40
     Davidson diagonalization with overlap

---- Real-time Memory Report at c_bands before calling an iterative solver
           661 MiB given to the printing process from OS
             0 MiB allocation reported by mallinfo(arena+hblkhd)
        178423 MiB available memory on the node where the printing process lives
------------------
     c_bands:  1 eigenvalues not converged
     ethr =  5.85E-08,  avg # of iterations =  6.0

     negative rho (up, down):  3.760E-03 0.000E+00

     total cpu time spent up to now is     1961.3 secs

     total energy              =  -22331.03972036 Ry
     estimated scf accuracy    <       0.00233326 Ry

     iteration # 15     ecut=    40.00 Ry     beta= 0.40
     Davidson diagonalization with overlap

---- Real-time Memory Report at c_bands before calling an iterative solver
           661 MiB given to the printing process from OS
             0 MiB allocation reported by mallinfo(arena+hblkhd)
        178420 MiB available memory on the node where the printing process lives
------------------
     c_bands:  1 eigenvalues not converged
     ethr =  5.85E-08,  avg # of iterations =  5.8

     negative rho (up, down):  3.746E-03 0.000E+00

     total cpu time spent up to now is     2081.5 secs

     total energy              =  -22331.03989751 Ry
     estimated scf accuracy    <       0.00021181 Ry

     iteration # 16     ecut=    40.00 Ry     beta= 0.40
     Davidson diagonalization with overlap

---- Real-time Memory Report at c_bands before calling an iterative solver
           661 MiB given to the printing process from OS
             0 MiB allocation reported by mallinfo(arena+hblkhd)
        178409 MiB available memory on the node where the printing process lives
------------------
     ethr =  2.11E-08,  avg # of iterations =  2.0

     negative rho (up, down):  3.741E-03 0.000E+00

     total cpu time spent up to now is     2199.1 secs

     total energy              =  -22331.03991027 Ry
     estimated scf accuracy    <       0.00005947 Ry

     iteration # 17     ecut=    40.00 Ry     beta= 0.40
     Davidson diagonalization with overlap

---- Real-time Memory Report at c_bands before calling an iterative solver
           661 MiB given to the printing process from OS
             0 MiB allocation reported by mallinfo(arena+hblkhd)
        178408 MiB available memory on the node where the printing process lives
------------------
     ethr =  5.92E-09,  avg # of iterations =  2.2

     negative rho (up, down):  3.738E-03 0.000E+00

     total cpu time spent up to now is     2317.1 secs

     total energy              =  -22331.03991681 Ry
     estimated scf accuracy    <       0.00001081 Ry

     iteration # 18     ecut=    40.00 Ry     beta= 0.40
     Davidson diagonalization with overlap

---- Real-time Memory Report at c_bands before calling an iterative solver
           661 MiB given to the printing process from OS
             0 MiB allocation reported by mallinfo(arena+hblkhd)
        178406 MiB available memory on the node where the printing process lives
------------------
     ethr =  1.08E-09,  avg # of iterations =  2.0

     negative rho (up, down):  3.737E-03 0.000E+00

     total cpu time spent up to now is     2434.8 secs

     total energy              =  -22331.03991757 Ry
     estimated scf accuracy    <       0.00000472 Ry

     iteration # 19     ecut=    40.00 Ry     beta= 0.40
     Davidson diagonalization with overlap

---- Real-time Memory Report at c_bands before calling an iterative solver
           661 MiB given to the printing process from OS
             0 MiB allocation reported by mallinfo(arena+hblkhd)
        178394 MiB available memory on the node where the printing process lives
------------------
     ethr =  4.70E-10,  avg # of iterations =  2.0

     negative rho (up, down):  3.737E-03 0.000E+00

     total cpu time spent up to now is     2552.0 secs

     total energy              =  -22331.03991801 Ry
     estimated scf accuracy    <       0.00000233 Ry

     iteration # 20     ecut=    40.00 Ry     beta= 0.40
     Davidson diagonalization with overlap

---- Real-time Memory Report at c_bands before calling an iterative solver
           661 MiB given to the printing process from OS
             0 MiB allocation reported by mallinfo(arena+hblkhd)
        178396 MiB available memory on the node where the printing process lives
------------------
     ethr =  2.32E-10,  avg # of iterations =  2.0

     negative rho (up, down):  3.737E-03 0.000E+00

     total cpu time spent up to now is     2668.8 secs

     total energy              =  -22331.03991826 Ry
     estimated scf accuracy    <       0.00000125 Ry

     iteration # 21     ecut=    40.00 Ry     beta= 0.40
     Davidson diagonalization with overlap

---- Real-time Memory Report at c_bands before calling an iterative solver
           661 MiB given to the printing process from OS
             0 MiB allocation reported by mallinfo(arena+hblkhd)
        178393 MiB available memory on the node where the printing process lives
------------------
     ethr =  1.25E-10,  avg # of iterations =  2.0

     negative rho (up, down):  3.736E-03 0.000E+00

     total cpu time spent up to now is     2784.0 secs

     End of self-consistent calculation

          k = 0.0000 0.0000 0.0000 ( 71933 PWs)   bands (ev):

  -125.3632-125.3502-125.3493-125.3477-125.3339-125.3330-125.3326-125.3316
  -125.2483-125.2474-125.2410-125.2390-125.2381-125.2358-125.2349-125.2341
  -125.1551-125.1523-125.1512-125.1511-125.1500-125.1473-125.1456-125.1449
  -125.1437-125.1435-125.1427-125.1420-125.0927-125.0908-125.0899-125.0883
  -125.0618-125.0607-125.0595-125.0593-125.0591-125.0581-125.0578-125.0572
  -125.0246-125.0230-125.0208-125.0185-125.0128-124.9871-124.9816-124.9751
   -79.5208 -79.5154 -79.5073 -79.5072 -79.5064 -79.5046 -79.5015 -79.4971
   -79.4951 -79.4944 -79.4938 -79.4935 -79.4935 -79.4921 -79.4917 -79.4891
   -79.4857 -79.4806 -79.4795 -79.4792 -79.4781 -79.4766 -79.4764 -79.4639
   -79.4093 -79.4047 -79.4041 -79.4008 -79.3991 -79.3961 -79.3948 -79.3943
   -79.3934 -79.3874 -79.3866 -79.3859 -79.3849 -79.3842 -79.3839 -79.3836
   -79.3822 -79.3820 -79.3806 -79.3793 -79.3773 -79.3766 -79.3756 -79.3712
   -79.3146 -79.3125 -79.3111 -79.3110 -79.3101 -79.3097 -79.3090 -79.3060
   -79.3054 -79.3051 -79.3045 -79.3041 -79.3039 -79.3034 -79.3029 -79.3016
   -79.2999 -79.2987 -79.2974 -79.2972 -79.2965 -79.2960 -79.2956 -79.2950
   -79.2942 -79.2940 -79.2934 -79.2934 -79.2923 -79.2920 -79.2902 -79.2888
   -79.2887 -79.2855 -79.2850 -79.2797 -79.2620 -79.2602 -79.2593 -79.2577
   -79.2409 -79.2391 -79.2386 -79.2382 -79.2368 -79.2353 -79.2328 -79.2324
   -79.2310 -79.2288 -79.2274 -79.2265 -79.2265 -79.2264 -79.2254 -79.2219
   -79.2167 -79.2143 -79.2100 -79.2095 -79.2092 -79.2075 -79.2069 -79.2054
   -79.2045 -79.2041 -79.2038 -79.2035 -79.2026 -79.2021 -79.1969 -79.1916
   -79.1915 -79.1899 -79.1877 -79.1853 -79.1799 -79.1780 -79.1745 -79.1729
   -79.1708 -79.1686 -79.1657 -79.1650 -79.1632 -79.1572 -79.1567 -79.1527
   -79.1515 -79.1438 -79.1348 -79.1308 -79.1295 -79.1255 -79.1239 -79.1118
   -17.9864 -16.6493 -15.7954 -13.4066 -13.3204 -10.3941 -10.1219  -8.3224
    -8.2456  -7.6379  -7.6094  -7.5571  -7.2875  -7.1109  -7.1055  -7.1018
    -7.0787  -7.0305  -7.0185  -6.9995  -6.9527  -6.9472  -6.9097  -6.8992
    -6.8738  -6.8421  -6.8302  -6.8108  -6.7932  -6.7843  -6.7821  -6.7744
    -6.7602  -6.7303  -6.7032  -6.7004  -6.6888  -6.6821  -6.6718  -6.6661
    -6.6653  -6.6328  -6.6297  -6.6278  -6.6172  -6.6141  -6.6123  -6.6073
    -6.5973  -6.5964  -6.5935  -6.5877  -6.5868  -6.5697  -6.5645  -6.5585
    -6.5558  -6.5540  -6.5526  -6.5424  -6.5333  -6.5211  -6.5160  -6.4991
    -6.4976  -6.4858  -6.4781  -6.4754  -6.4687  -6.4364  -6.4350  -6.4314
    -6.4255  -6.4192  -6.4088  -6.4004  -6.3975  -6.3887  -6.3791  -6.3718
    -6.3703  -6.3530  -6.3433  -6.3421  -6.3403  -6.3280  -6.3145  -6.3027
    -6.3009  -6.2922  -6.2900  -6.2885  -6.2857  -6.2724  -6.2705  -6.2613
    -6.2545  -6.2517  -6.2508  -6.2485  -6.2321  -6.2298  -6.2274  -6.2198
    -6.2175  -6.2168  -6.1915  -6.1858  -6.1848  -6.1789  -6.1511  -6.1510
    -6.1501  -6.1297  -6.1258  -6.1251  -6.1225  -6.1124  -6.1067  -6.1045
    -6.0946  -6.0929  -6.0922  -6.0863  -6.0840  -6.0825  -6.0817  -6.0799
    -6.0728  -6.0595  -6.0517  -6.0506  -6.0383  -6.0361  -6.0308  -6.0239
    -6.0214  -6.0212  -6.0192  -6.0123  -6.0061  -6.0050  -6.0046  -5.9966
    -5.9922  -5.9897  -5.9861  -5.9846  -5.9808  -5.9785  -5.9681  -5.9623
    -5.9614  -5.9444  -5.9441  -5.9316  -5.9278  -5.9259  -5.9155  -5.9119
    -5.9103  -5.9002  -5.8964  -5.8944  -5.8895  -5.8885  -5.8864  -5.8857
    -5.8816  -5.8793  -5.8639  -5.8614  -5.8599  -5.8592  -5.8585  -5.8525
    -5.8520  -5.8425  -5.8386  -5.8345  -5.8327  -5.8276  -5.8199  -5.8158
    -5.8089  -5.8083  -5.8010  -5.8004  -5.7979  -5.7942  -5.7925  -5.7868
    -5.7753  -5.7701  -5.7672  -5.7592  -5.7561  -5.7544  -5.7525  -5.7512
    -5.7399  -5.7347  -5.7335  -5.7327  -5.7219  -5.7206  -5.7191  -5.7181
    -5.7062  -5.7058  -5.7034  -5.6984  -5.6908  -5.6878  -5.6867  -5.6857
    -5.6819  -5.6804  -5.6774  -5.6773  -5.6600  -5.6585  -5.6558  -5.6525
    -5.6450  -5.6447  -5.6422  -5.6402  -5.6386  -5.6363  -5.6313  -5.6219
    -5.6199  -5.6196  -5.6165  -5.6114  -5.6097  -5.6043  -5.5913  -5.5728
    -5.5712  -5.5680  -5.5579  -5.5545  -5.5522  -5.5423  -5.5380  -5.5330
    -5.5308  -5.5185  -5.5090  -5.5005  -5.4890  -5.4595  -5.4535  -5.4078
    -5.3992  -5.3159  -5.2788  -5.2780  -5.0991  -4.7386  -4.5797  -4.5207
    -4.5176  -4.3506  -4.3040  -4.0588  -4.0562  -3.7638  -3.7600  -3.4142
    -3.2330  -2.9256  -2.5950  -2.5932  -2.5876  -2.4667  -2.2221  -2.2191
    -2.0163  -2.0150  -1.9826  -1.8473  -1.7773  -1.7723  -1.6305  -1.6181
    -1.5351  -1.4865  -1.4658  -1.2342  -1.0605  -1.0520  -0.5020  -0.2942
    -0.2295  -0.1684  -0.0968  -0.0933  -0.0449   0.0418   0.0869   0.1060
     0.4020   0.5062   0.5132   0.6027   0.8709   0.8755   1.4213   1.6784
     1.7011   1.7075   1.8334   1.9277   2.0220   2.0609   2.0979   2.2143
     2.2257   2.3394   2.6062   2.6796   2.6842   3.1220   3.1264   3.1324
     3.1720   3.3327   3.6642   3.7670   3.8567   3.8648   3.8689   3.9444
     3.9687   4.0344   4.1475   4.1588   4.4761   4.6579   4.7021   4.8479
     4.8890   5.1332   5.2047   5.2153   5.2557   5.3430   5.3538   5.3936
     5.4375   5.5443   5.6603   5.6840   5.7666   5.7813   5.8141   5.8547
     5.8844   5.9198   5.9466   6.0599   6.0832   6.1065   6.1123   6.1244
     6.1496   6.1671   6.2451   6.3243   6.4383   6.4808   6.5165   6.5641
     6.6003   6.6103   6.6608   6.7293   6.7779   6.8540   6.8952   6.9111
     7.0631   7.0660   7.0863   7.0996   7.1163   7.1770   7.2121   7.2283
     7.2851   7.3157   7.3468   7.4207   7.4266   7.4634   7.5674   7.6074
     7.6454   7.6901   7.7345   7.7569   7.8035   7.8619   7.8980   7.9302
     7.9596   8.0137

     occupation numbers 
     1.0000   1.0000   1.0000   1.0000   1.0000   1.0000   1.0000   1.0000
     1.0000   1.0000   1.0000   1.0000   1.0000   1.0000   1.0000   1.0000
     1.0000   1.0000   1.0000   1.0000   1.0000   1.0000   1.0000   1.0000
     1.0000   1.0000   1.0000   1.0000   1.0000   1.0000   1.0000   1.0000
     1.0000   1.0000   1.0000   1.0000   1.0000   1.0000   1.0000   1.0000
     1.0000   1.0000   1.0000   1.0000   1.0000   1.0000   1.0000   1.0000
     1.0000   1.0000   1.0000   1.0000   1.0000   1.0000   1.0000   1.0000
     1.0000   1.0000   1.0000   1.0000   1.0000   1.0000   1.0000   1.0000
     1.0000   1.0000   1.0000   1.0000   1.0000   1.0000   1.0000   1.0000
     1.0000   1.0000   1.0000   1.0000   1.0000   1.0000   1.0000   1.0000
     1.0000   1.0000   1.0000   1.0000   1.0000   1.0000   1.0000   1.0000
     1.0000   1.0000   1.0000   1.0000   1.0000   1.0000   1.0000   1.0000
     1.0000   1.0000   1.0000   1.0000   1.0000   1.0000   1.0000   1.0000
     1.0000   1.0000   1.0000   1.0000   1.0000   1.0000   1.0000   1.0000
     1.0000   1.0000   1.0000   1.0000   1.0000   1.0000   1.0000   1.0000
     1.0000   1.0000   1.0000   1.0000   1.0000   1.0000   1.0000   1.0000
     1.0000   1.0000   1.0000   1.0000   1.0000   1.0000   1.0000   1.0000
     1.0000   1.0000   1.0000   1.0000   1.0000   1.0000   1.0000   1.0000
     1.0000   1.0000   1.0000   1.0000   1.0000   1.0000   1.0000   1.0000
     1.0000   1.0000   1.0000   1.0000   1.0000   1.0000   1.0000   1.0000
     1.0000   1.0000   1.0000   1.0000   1.0000   1.0000   1.0000   1.0000
     1.0000   1.0000   1.0000   1.0000   1.0000   1.0000   1.0000   1.0000
     1.0000   1.0000   1.0000   1.0000   1.0000   1.0000   1.0000   1.0000
     1.0000   1.0000   1.0000   1.0000   1.0000   1.0000   1.0000   1.0000
     1.0000   1.0000   1.0000   1.0000   1.0000   1.0000   1.0000   1.0000
     1.0000   1.0000   1.0000   1.0000   1.0000   1.0000   1.0000   1.0000
     1.0000   1.0000   1.0000   1.0000   1.0000   1.0000   1.0000   1.0000
     1.0000   1.0000   1.0000   1.0000   1.0000   1.0000   1.0000   1.0000
     1.0000   1.0000   1.0000   1.0000   1.0000   1.0000   1.0000   1.0000
     1.0000   1.0000   1.0000   1.0000   1.0000   1.0000   1.0000   1.0000
     1.0000   1.0000   1.0000   1.0000   1.0000   1.0000   1.0000   1.0000
     1.0000   1.0000   1.0000   1.0000   1.0000   1.0000   1.0000   1.0000
     1.0000   1.0000   1.0000   1.0000   1.0000   1.0000   1.0000   1.0000
     1.0000   1.0000   1.0000   1.0000   1.0000   1.0000   1.0000   1.0000
     1.0000   1.0000   1.0000   1.0000   1.0000   1.0000   1.0000   1.0000
     1.0000   1.0000   1.0000   1.0000   1.0000   1.0000   1.0000   1.0000
     1.0000   1.0000   1.0000   1.0000   1.0000   1.0000   1.0000   1.0000
     1.0000   1.0000   1.0000   1.0000   1.0000   1.0000   1.0000   1.0000
     1.0000   1.0000   1.0000   1.0000   1.0000   1.0000   1.0000   1.0000
     1.0000   1.0000   1.0000   1.0000   1.0000   1.0000   1.0000   1.0000
     1.0000   1.0000   1.0000   1.0000   1.0000   1.0000   1.0000   1.0000
     1.0000   1.0000   1.0000   1.0000   1.0000   1.0000   1.0000   1.0000
     1.0000   1.0000   1.0000   1.0000   1.0000   1.0000   1.0000   1.0000
     1.0000   1.0000   1.0000   1.0000   1.0000   1.0000   1.0000   1.0000
     1.0000   1.0000   1.0000   1.0000   1.0000   1.0000   1.0000   1.0000
     1.0000   1.0000   1.0000   1.0000   1.0000   1.0000   1.0000   1.0000
     1.0000   1.0000   1.0000   1.0000   1.0000   1.0000   1.0000   1.0000
     1.0000   1.0000   1.0000   1.0000   1.0000   1.0000   1.0000   1.0000
     1.0000   1.0000   1.0000   1.0000   1.0000   1.0000   1.0000   1.0000
     1.0000   1.0000   1.0000   1.0000   1.0000   1.0000   1.0000   1.0000
     1.0000   1.0000   1.0000   1.0000   1.0000   1.0000   1.0000   1.0000
     1.0000   1.0000   1.0000   1.0000   1.0000   1.0000   1.0000   1.0000
     1.0000   1.0000   1.0000   1.0000   1.0000   1.0000   1.0000   1.0000
     1.0000   1.0000   1.0000   1.0000   1.0000   1.0000   1.0000   1.0000
     1.0000   1.0000   1.0000   1.0000   1.0000   1.0000   1.0000   1.0000
     1.0000   1.0000   1.0000   1.0000   1.0000   1.0000   1.0000   1.0000
     1.0000   1.0000   1.0000   1.0000   1.0000   1.0000   1.0000   1.0000
     1.0000   1.0000   1.0000   1.0000   1.0000   1.0000   1.0000   1.0000
     1.0000   1.0000   1.0000   1.0000   1.0000   1.0000   1.0000   1.0000
     1.0000   1.0000   1.0000   1.0000   1.0000   1.0000   1.0000   1.0000
     1.0000   1.0000   1.0000   1.0000   1.0000   1.0000   1.0000   1.0000
     1.0000   1.0000   1.0000   1.0000   1.0000   1.0000   1.0000   1.0000
     1.0031   1.0125   1.0136   1.0338   1.0533   1.0496   0.0391   0.0007
     0.0004   0.0004   0.0000   0.0000   0.0000   0.0000   0.0000   0.0000
     0.0000   0.0000   0.0000   0.0000   0.0000   0.0000   0.0000   0.0000
     0.0000   0.0000   0.0000   0.0000   0.0000   0.0000   0.0000   0.0000
     0.0000   0.0000   0.0000   0.0000   0.0000   0.0000   0.0000   0.0000
     0.0000   0.0000   0.0000   0.0000   0.0000   0.0000   0.0000   0.0000
     0.0000   0.0000   0.0000   0.0000   0.0000   0.0000   0.0000   0.0000
     0.0000   0.0000   0.0000   0.0000   0.0000   0.0000   0.0000   0.0000
     0.0000   0.0000   0.0000   0.0000   0.0000   0.0000   0.0000   0.0000
     0.0000   0.0000   0.0000   0.0000   0.0000   0.0000   0.0000   0.0000
     0.0000   0.0000   0.0000   0.0000   0.0000   0.0000   0.0000   0.0000
     0.0000   0.0000   0.0000   0.0000   0.0000   0.0000   0.0000   0.0000
     0.0000   0.0000   0.0000   0.0000   0.0000   0.0000   0.0000   0.0000
     0.0000   0.0000

          k = 0.0000 0.3628 0.1846 ( 71963 PWs)   bands (ev):

  -125.3632-125.3502-125.3493-125.3477-125.3338-125.3332-125.3324-125.3317
  -125.2483-125.2474-125.2410-125.2390-125.2381-125.2359-125.2349-125.2341
  -125.1551-125.1522-125.1515-125.1508-125.1501-125.1473-125.1457-125.1448
  -125.1437-125.1435-125.1427-125.1420-125.0927-125.0909-125.0899-125.0883
  -125.0618-125.0607-125.0596-125.0594-125.0590-125.0581-125.0578-125.0572
  -125.0246-125.0230-125.0208-125.0185-125.0128-124.9871-124.9816-124.9751
   -79.5208 -79.5147 -79.5073 -79.5072 -79.5064 -79.5047 -79.5044 -79.4950
   -79.4944 -79.4942 -79.4937 -79.4935 -79.4931 -79.4922 -79.4918 -79.4874
   -79.4867 -79.4828 -79.4805 -79.4798 -79.4789 -79.4782 -79.4703 -79.4656
   -79.4082 -79.4047 -79.4040 -79.4019 -79.4002 -79.3983 -79.3943 -79.3934
   -79.3903 -79.3878 -79.3872 -79.3867 -79.3855 -79.3848 -79.3841 -79.3834
   -79.3824 -79.3823 -79.3795 -79.3776 -79.3773 -79.3765 -79.3754 -79.3726
   -79.3139 -79.3124 -79.3115 -79.3107 -79.3099 -79.3091 -79.3081 -79.3061
   -79.3058 -79.3051 -79.3045 -79.3042 -79.3038 -79.3036 -79.3035 -79.3030
   -79.3018 -79.3003 -79.2985 -79.2982 -79.2966 -79.2958 -79.2951 -79.2943
   -79.2939 -79.2934 -79.2925 -79.2921 -79.2911 -79.2905 -79.2897 -79.2892
   -79.2867 -79.2865 -79.2857 -79.2812 -79.2620 -79.2602 -79.2593 -79.2577
   -79.2409 -79.2391 -79.2382 -79.2371 -79.2368 -79.2353 -79.2329 -79.2323
   -79.2323 -79.2310 -79.2288 -79.2274 -79.2264 -79.2255 -79.2206 -79.2203
   -79.2158 -79.2155 -79.2151 -79.2104 -79.2094 -79.2079 -79.2061 -79.2055
   -79.2043 -79.2037 -79.2033 -79.2027 -79.2023 -79.1985 -79.1979 -79.1932
   -79.1915 -79.1899 -79.1877 -79.1853 -79.1799 -79.1766 -79.1745 -79.1729
   -79.1712 -79.1708 -79.1685 -79.1632 -79.1596 -79.1571 -79.1567 -79.1541
   -79.1515 -79.1438 -79.1348 -79.1320 -79.1294 -79.1240 -79.1239 -79.1122
   -17.9864 -16.6493 -15.7954 -13.4066 -13.3205 -10.3941 -10.1219  -8.2457
    -8.1586  -7.6998  -7.6292  -7.6085  -7.4592  -7.1912  -7.1618  -7.0169
    -7.0115  -6.9999  -6.9834  -6.9735  -6.9209  -6.8957  -6.8925  -6.8887
    -6.8545  -6.8351  -6.8180  -6.8053  -6.7994  -6.7874  -6.7771  -6.7745
    -6.7686  -6.7647  -6.7452  -6.7372  -6.7234  -6.7206  -6.6945  -6.6836
    -6.6759  -6.6695  -6.6600  -6.6586  -6.6466  -6.6322  -6.6298  -6.6234
    -6.6133  -6.6095  -6.5978  -6.5819  -6.5764  -6.5669  -6.5621  -6.5491
    -6.5420  -6.5308  -6.5294  -6.5274  -6.5251  -6.5197  -6.5189  -6.5039
    -6.4943  -6.4838  -6.4637  -6.4603  -6.4561  -6.4491  -6.4465  -6.4349
    -6.4276  -6.4257  -6.4048  -6.4038  -6.3933  -6.3902  -6.3821  -6.3738
    -6.3710  -6.3670  -6.3627  -6.3616  -6.3477  -6.3411  -6.3269  -6.3226
    -6.3176  -6.3032  -6.3009  -6.2985  -6.2883  -6.2855  -6.2827  -6.2723
    -6.2712  -6.2653  -6.2516  -6.2496  -6.2442  -6.2291  -6.2250  -6.2229
    -6.2219  -6.2136  -6.2081  -6.2062  -6.1997  -6.1935  -6.1870  -6.1810
    -6.1676  -6.1645  -6.1616  -6.1520  -6.1490  -6.1419  -6.1283  -6.1256
    -6.1201  -6.1164  -6.1144  -6.1057  -6.1047  -6.0986  -6.0892  -6.0823
    -6.0779  -6.0741  -6.0638  -6.0587  -6.0519  -6.0441  -6.0423  -6.0353
    -6.0281  -6.0277  -6.0241  -6.0181  -6.0122  -6.0075  -6.0068  -5.9948
    -5.9835  -5.9815  -5.9761  -5.9697  -5.9680  -5.9665  -5.9617  -5.9524
    -5.9380  -5.9343  -5.9259  -5.9240  -5.9210  -5.9152  -5.9052  -5.8957
    -5.8932  -5.8916  -5.8839  -5.8812  -5.8783  -5.8756  -5.8743  -5.8704
    -5.8584  -5.8519  -5.8515  -5.8488  -5.8406  -5.8369  -5.8311  -5.8288
    -5.8200  -5.8191  -5.8134  -5.8097  -5.8040  -5.8023  -5.7964  -5.7949
    -5.7941  -5.7864  -5.7808  -5.7761  -5.7743  -5.7737  -5.7670  -5.7658
    -5.7638  -5.7575  -5.7536  -5.7483  -5.7470  -5.7408  -5.7388  -5.7369
    -5.7295  -5.7224  -5.7171  -5.7145  -5.7089  -5.7072  -5.7047  -5.7021
    -5.6998  -5.6980  -5.6973  -5.6885  -5.6855  -5.6825  -5.6745  -5.6721
    -5.6695  -5.6646  -5.6626  -5.6594  -5.6539  -5.6527  -5.6514  -5.6494
    -5.6474  -5.6463  -5.6424  -5.6396  -5.6366  -5.6345  -5.6318  -5.6292
    -5.6188  -5.6173  -5.6107  -5.6090  -5.6039  -5.6016  -5.5993  -5.5972
    -5.5883  -5.5862  -5.5759  -5.5602  -5.5559  -5.5509  -5.5504  -5.5374
    -5.5173  -5.5159  -5.5020  -5.4990  -5.4920  -5.4803  -5.4606  -5.3995
    -5.3748  -5.3684  -5.1086  -5.0996  -4.9488  -4.8960  -4.6332  -4.5782
    -4.5299  -4.3450  -4.2956  -4.1225  -3.5344  -3.5232  -3.4776  -3.4131
    -3.2353  -3.2243  -2.9503  -2.7907  -2.7102  -2.5919  -2.5383  -2.4626
    -2.3038  -2.2190  -2.0305  -1.9952  -1.9512  -1.6278  -1.6195  -1.6133
    -1.4381  -1.2630  -1.2342  -1.1942  -1.1729  -0.8934  -0.6206  -0.5683
    -0.3781  -0.3627  -0.2135  -0.0273   0.1041   0.1401   0.2134   0.3490
     0.4015   0.5402   0.7085   0.7596   0.8566   1.0057   1.2295   1.5231
     1.7384   1.7786   1.8813   2.0873   2.1261   2.2843   2.3632   2.4305
     2.4685   2.5492   2.9207   2.9463   2.9580   3.2068   3.3353   3.3843
     3.4270   3.6957   3.7945   3.8596   3.8757   3.9034   3.9253   3.9454
     3.9673   4.0735   4.0973   4.1755   4.4326   4.5014   4.5497   4.5608
     4.5816   4.6705   4.8999   4.9155   4.9332   4.9489   5.0694   5.0991
     5.1488   5.3488   5.3617   5.4195   5.4564   5.5051   5.5342   5.6038
     5.6927   5.7635   5.8368   5.8883   5.9003   5.9580   6.0257   6.0535
     6.0938   6.1834   6.2029   6.2395   6.3472   6.3768   6.4058   6.4303
     6.4577   6.5289   6.6195   6.6773   6.7321   6.8129   6.8642   6.8811
     6.9339   6.9518   6.9878   7.0260   7.1266   7.1762   7.2024   7.3177
     7.3652   7.3955   7.4225   7.4894   7.5290   7.5563   7.6020   7.6477
     7.7143   7.7662   7.8320   7.8726   7.9678   8.0035   8.0254   8.0748
     8.1191   8.1608

     occupation numbers 
     1.0000   1.0000   1.0000   1.0000   1.0000   1.0000   1.0000   1.0000
     1.0000   1.0000   1.0000   1.0000   1.0000   1.0000   1.0000   1.0000
     1.0000   1.0000   1.0000   1.0000   1.0000   1.0000   1.0000   1.0000
     1.0000   1.0000   1.0000   1.0000   1.0000   1.0000   1.0000   1.0000
     1.0000   1.0000   1.0000   1.0000   1.0000   1.0000   1.0000   1.0000
     1.0000   1.0000   1.0000   1.0000   1.0000   1.0000   1.0000   1.0000
     1.0000   1.0000   1.0000   1.0000   1.0000   1.0000   1.0000   1.0000
     1.0000   1.0000   1.0000   1.0000   1.0000   1.0000   1.0000   1.0000
     1.0000   1.0000   1.0000   1.0000   1.0000   1.0000   1.0000   1.0000
     1.0000   1.0000   1.0000   1.0000   1.0000   1.0000   1.0000   1.0000
     1.0000   1.0000   1.0000   1.0000   1.0000   1.0000   1.0000   1.0000
     1.0000   1.0000   1.0000   1.0000   1.0000   1.0000   1.0000   1.0000
     1.0000   1.0000   1.0000   1.0000   1.0000   1.0000   1.0000   1.0000
     1.0000   1.0000   1.0000   1.0000   1.0000   1.0000   1.0000   1.0000
     1.0000   1.0000   1.0000   1.0000   1.0000   1.0000   1.0000   1.0000
     1.0000   1.0000   1.0000   1.0000   1.0000   1.0000   1.0000   1.0000
     1.0000   1.0000   1.0000   1.0000   1.0000   1.0000   1.0000   1.0000
     1.0000   1.0000   1.0000   1.0000   1.0000   1.0000   1.0000   1.0000
     1.0000   1.0000   1.0000   1.0000   1.0000   1.0000   1.0000   1.0000
     1.0000   1.0000   1.0000   1.0000   1.0000   1.0000   1.0000   1.0000
     1.0000   1.0000   1.0000   1.0000   1.0000   1.0000   1.0000   1.0000
     1.0000   1.0000   1.0000   1.0000   1.0000   1.0000   1.0000   1.0000
     1.0000   1.0000   1.0000   1.0000   1.0000   1.0000   1.0000   1.0000
     1.0000   1.0000   1.0000   1.0000   1.0000   1.0000   1.0000   1.0000
     1.0000   1.0000   1.0000   1.0000   1.0000   1.0000   1.0000   1.0000
     1.0000   1.0000   1.0000   1.0000   1.0000   1.0000   1.0000   1.0000
     1.0000   1.0000   1.0000   1.0000   1.0000   1.0000   1.0000   1.0000
     1.0000   1.0000   1.0000   1.0000   1.0000   1.0000   1.0000   1.0000
     1.0000   1.0000   1.0000   1.0000   1.0000   1.0000   1.0000   1.0000
     1.0000   1.0000   1.0000   1.0000   1.0000   1.0000   1.0000   1.0000
     1.0000   1.0000   1.0000   1.0000   1.0000   1.0000   1.0000   1.0000
     1.0000   1.0000   1.0000   1.0000   1.0000   1.0000   1.0000   1.0000
     1.0000   1.0000   1.0000   1.0000   1.0000   1.0000   1.0000   1.0000
     1.0000   1.0000   1.0000   1.0000   1.0000   1.0000   1.0000   1.0000
     1.0000   1.0000   1.0000   1.0000   1.0000   1.0000   1.0000   1.0000
     1.0000   1.0000   1.0000   1.0000   1.0000   1.0000   1.0000   1.0000
     1.0000   1.0000   1.0000   1.0000   1.0000   1.0000   1.0000   1.0000
     1.0000   1.0000   1.0000   1.0000   1.0000   1.0000   1.0000   1.0000
     1.0000   1.0000   1.0000   1.0000   1.0000   1.0000   1.0000   1.0000
     1.0000   1.0000   1.0000   1.0000   1.0000   1.0000   1.0000   1.0000
     1.0000   1.0000   1.0000   1.0000   1.0000   1.0000   1.0000   1.0000
     1.0000   1.0000   1.0000   1.0000   1.0000   1.0000   1.0000   1.0000
     1.0000   1.0000   1.0000   1.0000   1.0000   1.0000   1.0000   1.0000
     1.0000   1.0000   1.0000   1.0000   1.0000   1.0000   1.0000   1.0000
     1.0000   1.0000   1.0000   1.0000   1.0000   1.0000   1.0000   1.0000
     1.0000   1.0000   1.0000   1.0000   1.0000   1.0000   1.0000   1.0000
     1.0000   1.0000   1.0000   1.0000   1.0000   1.0000   1.0000   1.0000
     1.0000   1.0000   1.0000   1.0000   1.0000   1.0000   1.0000   1.0000
     1.0000   1.0000   1.0000   1.0000   1.0000   1.0000   1.0000   1.0000
     1.0000   1.0000   1.0000   1.0000   1.0000   1.0000   1.0000   1.0000
     1.0000   1.0000   1.0000   1.0000   1.0000   1.0000   1.0000   1.0000
     1.0000   1.0000   1.0000   1.0000   1.0000   1.0000   1.0000   1.0000
     1.0000   1.0000   1.0000   1.0000   1.0000   1.0000   1.0000   1.0000
     1.0000   1.0000   1.0000   1.0000   1.0000   1.0000   1.0000   1.0000
     1.0000   1.0000   1.0000   1.0000   1.0000   1.0000   1.0000   1.0000
     1.0000   1.0000   1.0000   1.0000   1.0000   1.0000   1.0000   1.0000
     1.0000   1.0000   1.0000   1.0000   1.0000   1.0000   1.0000   1.0000
     1.0000   1.0000   1.0000   1.0000   1.0000   1.0000   1.0000   1.0000
     1.0000   1.0000   1.0000   1.0000   1.0000   1.0000   1.0000   1.0000
     1.0000   1.0000   1.0000   1.0000   1.0000   1.0000   1.0000   1.0000
     1.0000   1.0000   1.0000   1.0000   1.0000   1.0000   1.0000   1.0000
     1.0000   1.0000   1.0000   1.0000   1.0000   1.0000   1.0001   1.0014
     1.0031   1.0184   1.0687   1.0812   1.0633   0.8392   0.2669   0.0096
     0.0002   0.0001   0.0000   0.0000   0.0000   0.0000   0.0000   0.0000
     0.0000   0.0000   0.0000   0.0000   0.0000   0.0000   0.0000   0.0000
     0.0000   0.0000   0.0000   0.0000   0.0000   0.0000   0.0000   0.0000
     0.0000   0.0000   0.0000   0.0000   0.0000   0.0000   0.0000   0.0000
     0.0000   0.0000   0.0000   0.0000   0.0000   0.0000   0.0000   0.0000
     0.0000   0.0000   0.0000   0.0000   0.0000   0.0000   0.0000   0.0000
     0.0000   0.0000   0.0000   0.0000   0.0000   0.0000   0.0000   0.0000
     0.0000   0.0000   0.0000   0.0000   0.0000   0.0000   0.0000   0.0000
     0.0000   0.0000   0.0000   0.0000   0.0000   0.0000   0.0000   0.0000
     0.0000   0.0000   0.0000   0.0000   0.0000   0.0000   0.0000   0.0000
     0.0000   0.0000   0.0000   0.0000   0.0000   0.0000   0.0000   0.0000
     0.0000   0.0000   0.0000   0.0000   0.0000   0.0000   0.0000   0.0000
     0.0000   0.0000

          k = 0.3333 0.0811 0.7384 ( 72005 PWs)   bands (ev):

  -125.3632-125.3502-125.3493-125.3477-125.3339-125.3330-125.3326-125.3316
  -125.2483-125.2474-125.2410-125.2390-125.2381-125.2358-125.2349-125.2341
  -125.1551-125.1523-125.1512-125.1511-125.1500-125.1473-125.1456-125.1449
  -125.1437-125.1435-125.1427-125.1420-125.0927-125.0908-125.0899-125.0883
  -125.0618-125.0607-125.0595-125.0593-125.0591-125.0581-125.0578-125.0572
  -125.0246-125.0230-125.0208-125.0185-125.0128-124.9871-124.9816-124.9751
   -79.5208 -79.5154 -79.5073 -79.5072 -79.5064 -79.5046 -79.5015 -79.4971
   -79.4951 -79.4944 -79.4938 -79.4935 -79.4935 -79.4921 -79.4917 -79.4891
   -79.4857 -79.4806 -79.4795 -79.4792 -79.4781 -79.4766 -79.4764 -79.4639
   -79.4093 -79.4047 -79.4041 -79.4008 -79.3991 -79.3961 -79.3948 -79.3943
   -79.3934 -79.3874 -79.3866 -79.3859 -79.3849 -79.3842 -79.3839 -79.3836
   -79.3822 -79.3820 -79.3806 -79.3793 -79.3773 -79.3766 -79.3756 -79.3712
   -79.3146 -79.3125 -79.3111 -79.3110 -79.3101 -79.3097 -79.3090 -79.3060
   -79.3054 -79.3051 -79.3045 -79.3041 -79.3039 -79.3034 -79.3029 -79.3016
   -79.2999 -79.2987 -79.2974 -79.2972 -79.2965 -79.2960 -79.2956 -79.2950
   -79.2942 -79.2940 -79.2934 -79.2934 -79.2923 -79.2920 -79.2902 -79.2888
   -79.2887 -79.2855 -79.2850 -79.2797 -79.2620 -79.2602 -79.2593 -79.2577
   -79.2409 -79.2391 -79.2386 -79.2382 -79.2368 -79.2353 -79.2328 -79.2324
   -79.2310 -79.2288 -79.2274 -79.2265 -79.2265 -79.2264 -79.2254 -79.2219
   -79.2167 -79.2143 -79.2100 -79.2095 -79.2092 -79.2075 -79.2069 -79.2054
   -79.2045 -79.2041 -79.2038 -79.2035 -79.2026 -79.2021 -79.1969 -79.1916
   -79.1915 -79.1899 -79.1877 -79.1853 -79.1799 -79.1780 -79.1745 -79.1729
   -79.1708 -79.1686 -79.1657 -79.1650 -79.1632 -79.1572 -79.1567 -79.1527
   -79.1515 -79.1438 -79.1348 -79.1308 -79.1295 -79.1255 -79.1239 -79.1118
   -17.9864 -16.6493 -15.7954 -13.4066 -13.3205 -10.3941 -10.1219  -8.2459
    -8.2040  -7.8510  -7.6344  -7.6094  -7.1830  -7.1215  -7.1041  -7.0800
    -7.0519  -7.0268  -7.0193  -6.9875  -6.9678  -6.9399  -6.9113  -6.9032
    -6.8912  -6.8472  -6.8347  -6.8315  -6.7936  -6.7857  -6.7782  -6.7669
    -6.7441  -6.7354  -6.7136  -6.7122  -6.6956  -6.6759  -6.6671  -6.6643
    -6.6449  -6.6381  -6.6292  -6.6271  -6.6237  -6.6231  -6.6176  -6.6126
    -6.6033  -6.5966  -6.5935  -6.5913  -6.5841  -6.5743  -6.5688  -6.5537
    -6.5520  -6.5488  -6.5484  -6.5380  -6.5259  -6.5144  -6.5033  -6.5019
    -6.4945  -6.4894  -6.4783  -6.4662  -6.4636  -6.4441  -6.4355  -6.4320
    -6.4228  -6.4183  -6.4067  -6.4028  -6.4014  -6.3891  -6.3825  -6.3716
    -6.3488  -6.3455  -6.3435  -6.3427  -6.3389  -6.3373  -6.3307  -6.3090
    -6.3023  -6.2983  -6.2908  -6.2869  -6.2854  -6.2796  -6.2762  -6.2640
    -6.2554  -6.2494  -6.2442  -6.2360  -6.2288  -6.2212  -6.2192  -6.2176
    -6.2069  -6.2018  -6.1975  -6.1853  -6.1792  -6.1699  -6.1572  -6.1523
    -6.1489  -6.1427  -6.1389  -6.1320  -6.1311  -6.1292  -6.1134  -6.1101
    -6.1052  -6.1004  -6.0990  -6.0959  -6.0932  -6.0875  -6.0798  -6.0690
    -6.0659  -6.0571  -6.0555  -6.0454  -6.0444  -6.0413  -6.0371  -6.0342
    -6.0242  -6.0172  -6.0102  -6.0098  -6.0077  -6.0031  -5.9955  -5.9906
    -5.9872  -5.9829  -5.9802  -5.9755  -5.9735  -5.9667  -5.9662  -5.9653
    -5.9520  -5.9470  -5.9431  -5.9411  -5.9293  -5.9290  -5.9265  -5.9176
    -5.9167  -5.9147  -5.9082  -5.9076  -5.8984  -5.8923  -5.8843  -5.8826
    -5.8804  -5.8798  -5.8734  -5.8680  -5.8669  -5.8649  -5.8604  -5.8504
    -5.8490  -5.8429  -5.8415  -5.8335  -5.8277  -5.8204  -5.8180  -5.8175
    -5.8168  -5.8153  -5.8096  -5.8088  -5.7983  -5.7949  -5.7919  -5.7795
    -5.7748  -5.7729  -5.7692  -5.7677  -5.7569  -5.7556  -5.7545  -5.7527
    -5.7485  -5.7427  -5.7425  -5.7369  -5.7317  -5.7203  -5.7197  -5.7160
    -5.7133  -5.7120  -5.7062  -5.7040  -5.6915  -5.6900  -5.6868  -5.6827
    -5.6811  -5.6805  -5.6716  -5.6681  -5.6639  -5.6560  -5.6525  -5.6469
    -5.6451  -5.6446  -5.6354  -5.6331  -5.6312  -5.6265  -5.6230  -5.6195
    -5.6127  -5.6114  -5.6051  -5.6032  -5.5993  -5.5925  -5.5808  -5.5728
    -5.5625  -5.5608  -5.5551  -5.5482  -5.5434  -5.5375  -5.5353  -5.5234
    -5.5133  -5.5025  -5.4984  -5.4831  -5.4509  -5.4403  -5.4316  -5.4293
    -5.3938  -5.3346  -5.0992  -5.0706  -5.0469  -5.0346  -4.5834  -4.5780
    -4.4494  -4.4438  -4.3094  -4.0044  -3.8856  -3.6313  -3.5224  -3.4893
    -3.4114  -3.2330  -3.0005  -2.8393  -2.7123  -2.6394  -2.5905  -2.2192
    -2.0937  -1.9806  -1.9102  -1.8873  -1.6743  -1.6515  -1.6285  -1.4281
    -1.2594  -1.2342  -1.1912  -1.1230  -0.7460  -0.6362  -0.5816  -0.4420
    -0.3613  -0.3523  -0.2844  -0.2532  -0.1573   0.0029   0.0696   0.1232
     0.4542   0.4869   0.6260   0.9298   1.0349   1.3146   1.3213   1.3479
     1.4340   1.6163   1.6885   1.8064   1.8201   1.9016   2.3218   2.4576
     2.6108   2.6363   2.7859   2.7902   2.8033   2.8192   3.0705   3.3182
     3.3663   3.4018   3.4557   3.5957   3.6858   3.7419   3.7607   3.9196
     4.0095   4.0937   4.2762   4.2877   4.5488   4.5681   4.5864   4.6338
     4.7408   4.8671   4.9706   5.0504   5.0888   5.1517   5.1835   5.1874
     5.2073   5.3681   5.4674   5.4992   5.5389   5.5627   5.6632   5.7450
     5.7910   5.8416   5.9713   6.0476   6.0769   6.0906   6.1604   6.1992
     6.2281   6.3412   6.3870   6.4469   6.5048   6.5921   6.6608   6.7149
     6.7350   6.7652   6.8254   6.8687   6.8872   6.8961   6.9065   7.0117
     7.0257   7.0592   7.0844   7.1102   7.1525   7.2151   7.2701   7.3162
     7.3556   7.3907   7.4279   7.4774   7.4933   7.5343   7.5627   7.5776
     7.6341   7.6835   7.7318   7.7443   7.7932   7.8270   7.9269   7.9560
     7.9879   8.0523

     occupation numbers 
     1.0000   1.0000   1.0000   1.0000   1.0000   1.0000   1.0000   1.0000
     1.0000   1.0000   1.0000   1.0000   1.0000   1.0000   1.0000   1.0000
     1.0000   1.0000   1.0000   1.0000   1.0000   1.0000   1.0000   1.0000
     1.0000   1.0000   1.0000   1.0000   1.0000   1.0000   1.0000   1.0000
     1.0000   1.0000   1.0000   1.0000   1.0000   1.0000   1.0000   1.0000
     1.0000   1.0000   1.0000   1.0000   1.0000   1.0000   1.0000   1.0000
     1.0000   1.0000   1.0000   1.0000   1.0000   1.0000   1.0000   1.0000
     1.0000   1.0000   1.0000   1.0000   1.0000   1.0000   1.0000   1.0000
     1.0000   1.0000   1.0000   1.0000   1.0000   1.0000   1.0000   1.0000
     1.0000   1.0000   1.0000   1.0000   1.0000   1.0000   1.0000   1.0000
     1.0000   1.0000   1.0000   1.0000   1.0000   1.0000   1.0000   1.0000
     1.0000   1.0000   1.0000   1.0000   1.0000   1.0000   1.0000   1.0000
     1.0000   1.0000   1.0000   1.0000   1.0000   1.0000   1.0000   1.0000
     1.0000   1.0000   1.0000   1.0000   1.0000   1.0000   1.0000   1.0000
     1.0000   1.0000   1.0000   1.0000   1.0000   1.0000   1.0000   1.0000
     1.0000   1.0000   1.0000   1.0000   1.0000   1.0000   1.0000   1.0000
     1.0000   1.0000   1.0000   1.0000   1.0000   1.0000   1.0000   1.0000
     1.0000   1.0000   1.0000   1.0000   1.0000   1.0000   1.0000   1.0000
     1.0000   1.0000   1.0000   1.0000   1.0000   1.0000   1.0000   1.0000
     1.0000   1.0000   1.0000   1.0000   1.0000   1.0000   1.0000   1.0000
     1.0000   1.0000   1.0000   1.0000   1.0000   1.0000   1.0000   1.0000
     1.0000   1.0000   1.0000   1.0000   1.0000   1.0000   1.0000   1.0000
     1.0000   1.0000   1.0000   1.0000   1.0000   1.0000   1.0000   1.0000
     1.0000   1.0000   1.0000   1.0000   1.0000   1.0000   1.0000   1.0000
     1.0000   1.0000   1.0000   1.0000   1.0000   1.0000   1.0000   1.0000
     1.0000   1.0000   1.0000   1.0000   1.0000   1.0000   1.0000   1.0000
     1.0000   1.0000   1.0000   1.0000   1.0000   1.0000   1.0000   1.0000
     1.0000   1.0000   1.0000   1.0000   1.0000   1.0000   1.0000   1.0000
     1.0000   1.0000   1.0000   1.0000   1.0000   1.0000   1.0000   1.0000
     1.0000   1.0000   1.0000   1.0000   1.0000   1.0000   1.0000   1.0000
     1.0000   1.0000   1.0000   1.0000   1.0000   1.0000   1.0000   1.0000
     1.0000   1.0000   1.0000   1.0000   1.0000   1.0000   1.0000   1.0000
     1.0000   1.0000   1.0000   1.0000   1.0000   1.0000   1.0000   1.0000
     1.0000   1.0000   1.0000   1.0000   1.0000   1.0000   1.0000   1.0000
     1.0000   1.0000   1.0000   1.0000   1.0000   1.0000   1.0000   1.0000
     1.0000   1.0000   1.0000   1.0000   1.0000   1.0000   1.0000   1.0000
     1.0000   1.0000   1.0000   1.0000   1.0000   1.0000   1.0000   1.0000
     1.0000   1.0000   1.0000   1.0000   1.0000   1.0000   1.0000   1.0000
     1.0000   1.0000   1.0000   1.0000   1.0000   1.0000   1.0000   1.0000
     1.0000   1.0000   1.0000   1.0000   1.0000   1.0000   1.0000   1.0000
     1.0000   1.0000   1.0000   1.0000   1.0000   1.0000   1.0000   1.0000
     1.0000   1.0000   1.0000   1.0000   1.0000   1.0000   1.0000   1.0000
     1.0000   1.0000   1.0000   1.0000   1.0000   1.0000   1.0000   1.0000
     1.0000   1.0000   1.0000   1.0000   1.0000   1.0000   1.0000   1.0000
     1.0000   1.0000   1.0000   1.0000   1.0000   1.0000   1.0000   1.0000
     1.0000   1.0000   1.0000   1.0000   1.0000   1.0000   1.0000   1.0000
     1.0000   1.0000   1.0000   1.0000   1.0000   1.0000   1.0000   1.0000
     1.0000   1.0000   1.0000   1.0000   1.0000   1.0000   1.0000   1.0000
     1.0000   1.0000   1.0000   1.0000   1.0000   1.0000   1.0000   1.0000
     1.0000   1.0000   1.0000   1.0000   1.0000   1.0000   1.0000   1.0000
     1.0000   1.0000   1.0000   1.0000   1.0000   1.0000   1.0000   1.0000
     1.0000   1.0000   1.0000   1.0000   1.0000   1.0000   1.0000   1.0000
     1.0000   1.0000   1.0000   1.0000   1.0000   1.0000   1.0000   1.0000
     1.0000   1.0000   1.0000   1.0000   1.0000   1.0000   1.0000   1.0000
     1.0000   1.0000   1.0000   1.0000   1.0000   1.0000   1.0000   1.0000
     1.0000   1.0000   1.0000   1.0000   1.0000   1.0000   1.0000   1.0000
     1.0000   1.0000   1.0000   1.0000   1.0000   1.0000   1.0000   1.0000
     1.0000   1.0000   1.0000   1.0000   1.0000   1.0000   1.0000   1.0000
     1.0000   1.0000   1.0000   1.0000   1.0000   1.0000   1.0000   1.0000
     1.0000   1.0000   1.0000   1.0000   1.0000   1.0000   1.0000   1.0000
     1.0000   1.0000   1.0000   1.0000   1.0000   1.0000   1.0000   1.0000
     1.0000   1.0000   1.0000   1.0000   1.0000   1.0000   1.0000   1.0000
     1.0065   1.0099   1.0409   0.9866   0.7675   0.1274   0.1193   0.0909
     0.0333   0.0021   0.0006   0.0000   0.0000   0.0000   0.0000   0.0000
     0.0000   0.0000   0.0000   0.0000   0.0000   0.0000   0.0000   0.0000
     0.0000   0.0000   0.0000   0.0000   0.0000   0.0000   0.0000   0.0000
     0.0000   0.0000   0.0000   0.0000   0.0000   0.0000   0.0000   0.0000
     0.0000   0.0000   0.0000   0.0000   0.0000   0.0000   0.0000   0.0000
     0.0000   0.0000   0.0000   0.0000   0.0000   0.0000   0.0000   0.0000
     0.0000   0.0000   0.0000   0.0000   0.0000   0.0000   0.0000   0.0000
     0.0000   0.0000   0.0000   0.0000   0.0000   0.0000   0.0000   0.0000
     0.0000   0.0000   0.0000   0.0000   0.0000   0.0000   0.0000   0.0000
     0.0000   0.0000   0.0000   0.0000   0.0000   0.0000   0.0000   0.0000
     0.0000   0.0000   0.0000   0.0000   0.0000   0.0000   0.0000   0.0000
     0.0000   0.0000   0.0000   0.0000   0.0000   0.0000   0.0000   0.0000
     0.0000   0.0000

          k = 0.3333 0.4439 0.9230 ( 71974 PWs)   bands (ev):

  -125.3632-125.3502-125.3493-125.3477-125.3338-125.3332-125.3324-125.3317
  -125.2483-125.2474-125.2410-125.2390-125.2381-125.2359-125.2349-125.2341
  -125.1551-125.1522-125.1515-125.1508-125.1501-125.1473-125.1457-125.1448
  -125.1437-125.1435-125.1427-125.1420-125.0927-125.0909-125.0899-125.0883
  -125.0618-125.0607-125.0596-125.0594-125.0590-125.0581-125.0578-125.0572
  -125.0246-125.0230-125.0208-125.0185-125.0128-124.9871-124.9816-124.9751
   -79.5208 -79.5147 -79.5073 -79.5072 -79.5064 -79.5047 -79.5044 -79.4950
   -79.4944 -79.4942 -79.4937 -79.4935 -79.4931 -79.4922 -79.4918 -79.4874
   -79.4867 -79.4828 -79.4805 -79.4798 -79.4789 -79.4782 -79.4703 -79.4656
   -79.4082 -79.4047 -79.4040 -79.4019 -79.4002 -79.3983 -79.3943 -79.3934
   -79.3903 -79.3878 -79.3872 -79.3867 -79.3855 -79.3848 -79.3841 -79.3834
   -79.3824 -79.3823 -79.3795 -79.3776 -79.3773 -79.3765 -79.3754 -79.3726
   -79.3139 -79.3124 -79.3115 -79.3107 -79.3099 -79.3091 -79.3081 -79.3061
   -79.3058 -79.3051 -79.3045 -79.3042 -79.3038 -79.3036 -79.3035 -79.3030
   -79.3018 -79.3003 -79.2985 -79.2982 -79.2966 -79.2958 -79.2951 -79.2943
   -79.2939 -79.2934 -79.2925 -79.2921 -79.2911 -79.2905 -79.2897 -79.2892
   -79.2867 -79.2865 -79.2857 -79.2812 -79.2620 -79.2602 -79.2593 -79.2577
   -79.2409 -79.2391 -79.2382 -79.2371 -79.2368 -79.2353 -79.2329 -79.2323
   -79.2323 -79.2310 -79.2288 -79.2274 -79.2264 -79.2255 -79.2206 -79.2203
   -79.2158 -79.2155 -79.2151 -79.2104 -79.2094 -79.2079 -79.2061 -79.2055
   -79.2043 -79.2037 -79.2033 -79.2027 -79.2023 -79.1985 -79.1979 -79.1932
   -79.1915 -79.1899 -79.1877 -79.1853 -79.1799 -79.1766 -79.1745 -79.1729
   -79.1712 -79.1708 -79.1685 -79.1632 -79.1596 -79.1571 -79.1567 -79.1541
   -79.1515 -79.1438 -79.1348 -79.1320 -79.1294 -79.1240 -79.1239 -79.1122
   -17.9864 -16.6493 -15.7954 -13.4066 -13.3204 -10.3941 -10.1219  -8.2456
    -7.9934  -7.7933  -7.6982  -7.6271  -7.6084  -7.1918  -7.0719  -7.0246
    -7.0091  -6.9859  -6.9737  -6.9643  -6.8936  -6.8929  -6.8904  -6.8875
    -6.8603  -6.8352  -6.8266  -6.8184  -6.8135  -6.7992  -6.7878  -6.7744
    -6.7678  -6.7432  -6.7392  -6.7362  -6.7243  -6.7206  -6.7104  -6.6950
    -6.6838  -6.6697  -6.6595  -6.6508  -6.6322  -6.6303  -6.6287  -6.6165
    -6.6139  -6.6132  -6.6046  -6.5987  -6.5902  -6.5723  -6.5642  -6.5481
    -6.5405  -6.5333  -6.5302  -6.5246  -6.5173  -6.5143  -6.5041  -6.4927
    -6.4848  -6.4706  -6.4644  -6.4610  -6.4548  -6.4500  -6.4448  -6.4375
    -6.4346  -6.4263  -6.4144  -6.4022  -6.3951  -6.3908  -6.3893  -6.3801
    -6.3663  -6.3643  -6.3618  -6.3538  -6.3407  -6.3347  -6.3293  -6.3278
    -6.3213  -6.3195  -6.3048  -6.2989  -6.2878  -6.2855  -6.2796  -6.2720
    -6.2669  -6.2658  -6.2455  -6.2424  -6.2353  -6.2281  -6.2236  -6.2163
    -6.2080  -6.2069  -6.2055  -6.2012  -6.1924  -6.1878  -6.1861  -6.1796
    -6.1647  -6.1624  -6.1610  -6.1513  -6.1498  -6.1427  -6.1413  -6.1306
    -6.1274  -6.1252  -6.1222  -6.1156  -6.1119  -6.1050  -6.0928  -6.0822
    -6.0785  -6.0742  -6.0636  -6.0621  -6.0593  -6.0526  -6.0450  -6.0302
    -6.0276  -6.0273  -6.0127  -6.0095  -6.0078  -6.0053  -6.0008  -5.9959
    -5.9921  -5.9877  -5.9781  -5.9741  -5.9679  -5.9650  -5.9614  -5.9568
    -5.9539  -5.9404  -5.9378  -5.9337  -5.9247  -5.9157  -5.9057  -5.9045
    -5.8944  -5.8931  -5.8849  -5.8817  -5.8793  -5.8755  -5.8715  -5.8699
    -5.8670  -5.8575  -5.8514  -5.8498  -5.8441  -5.8405  -5.8317  -5.8289
    -5.8266  -5.8229  -5.8204  -5.8187  -5.8107  -5.8072  -5.8013  -5.7967
    -5.7951  -5.7933  -5.7892  -5.7825  -5.7803  -5.7750  -5.7699  -5.7673
    -5.7666  -5.7578  -5.7496  -5.7478  -5.7468  -5.7457  -5.7369  -5.7316
    -5.7283  -5.7221  -5.7209  -5.7174  -5.7161  -5.7148  -5.7068  -5.7049
    -5.6990  -5.6976  -5.6921  -5.6883  -5.6864  -5.6766  -5.6742  -5.6697
    -5.6690  -5.6626  -5.6601  -5.6590  -5.6574  -5.6527  -5.6492  -5.6474
    -5.6465  -5.6429  -5.6389  -5.6355  -5.6343  -5.6290  -5.6243  -5.6186
    -5.6179  -5.6153  -5.6109  -5.6079  -5.6025  -5.6016  -5.5982  -5.5961
    -5.5871  -5.5810  -5.5732  -5.5691  -5.5576  -5.5441  -5.5356  -5.5219
    -5.5154  -5.5087  -5.5023  -5.4957  -5.4908  -5.4861  -5.4495  -5.3852
    -5.3619  -5.1086  -5.0996  -4.9733  -4.9483  -4.8973  -4.6571  -4.5777
    -4.5295  -4.3449  -4.2952  -3.9810  -3.6664  -3.5243  -3.4779  -3.4153
    -3.2788  -3.2324  -2.9493  -2.7749  -2.7711  -2.7116  -2.6009  -2.5881
    -2.4626  -2.3039  -2.2191  -2.2080  -2.0358  -1.9829  -1.6253  -1.5838
    -1.4373  -1.2343  -1.1960  -1.0633  -0.8933  -0.6207  -0.5976  -0.5682
    -0.2141  -0.2081  -0.0367  -0.0229   0.1165   0.1791   0.3797   0.4136
     0.5088   0.7591   0.7730   0.8569   1.0036   1.2300   1.4145   1.4631
     1.7806   1.8199   1.8810   1.9638   2.1205   2.2459   2.3341   2.4678
     2.5436   2.5513   2.5924   2.8977   2.9199   2.9546   2.9624   3.2190
     3.2303   3.4189   3.4430   3.6573   3.7196   3.8736   3.9009   3.9049
     3.9204   3.9466   3.9579   4.0941   4.2474   4.3955   4.4743   4.4990
     4.5630   4.6737   4.9175   4.9291   4.9864   5.0437   5.1468   5.1636
     5.3622   5.4296   5.4811   5.5012   5.5296   5.5434   5.5575   5.6721
     5.7173   5.8154   5.8833   5.9217   5.9461   5.9659   5.9990   6.1040
     6.1257   6.1673   6.1984   6.2899   6.3466   6.4026   6.4252   6.4479
     6.5121   6.5474   6.5906   6.6265   6.6755   6.6930   6.7497   6.8736
     6.9609   6.9889   7.0310   7.1134   7.1792   7.2017   7.2306   7.3472
     7.4078   7.4890   7.5034   7.5855   7.6159   7.6535   7.7446   7.7921
     7.8414   7.9211   7.9413   7.9570   8.0275   8.0467   8.1051   8.1623
     8.1737   8.2438

     occupation numbers 
     1.0000   1.0000   1.0000   1.0000   1.0000   1.0000   1.0000   1.0000
     1.0000   1.0000   1.0000   1.0000   1.0000   1.0000   1.0000   1.0000
     1.0000   1.0000   1.0000   1.0000   1.0000   1.0000   1.0000   1.0000
     1.0000   1.0000   1.0000   1.0000   1.0000   1.0000   1.0000   1.0000
     1.0000   1.0000   1.0000   1.0000   1.0000   1.0000   1.0000   1.0000
     1.0000   1.0000   1.0000   1.0000   1.0000   1.0000   1.0000   1.0000
     1.0000   1.0000   1.0000   1.0000   1.0000   1.0000   1.0000   1.0000
     1.0000   1.0000   1.0000   1.0000   1.0000   1.0000   1.0000   1.0000
     1.0000   1.0000   1.0000   1.0000   1.0000   1.0000   1.0000   1.0000
     1.0000   1.0000   1.0000   1.0000   1.0000   1.0000   1.0000   1.0000
     1.0000   1.0000   1.0000   1.0000   1.0000   1.0000   1.0000   1.0000
     1.0000   1.0000   1.0000   1.0000   1.0000   1.0000   1.0000   1.0000
     1.0000   1.0000   1.0000   1.0000   1.0000   1.0000   1.0000   1.0000
     1.0000   1.0000   1.0000   1.0000   1.0000   1.0000   1.0000   1.0000
     1.0000   1.0000   1.0000   1.0000   1.0000   1.0000   1.0000   1.0000
     1.0000   1.0000   1.0000   1.0000   1.0000   1.0000   1.0000   1.0000
     1.0000   1.0000   1.0000   1.0000   1.0000   1.0000   1.0000   1.0000
     1.0000   1.0000   1.0000   1.0000   1.0000   1.0000   1.0000   1.0000
     1.0000   1.0000   1.0000   1.0000   1.0000   1.0000   1.0000   1.0000
     1.0000   1.0000   1.0000   1.0000   1.0000   1.0000   1.0000   1.0000
     1.0000   1.0000   1.0000   1.0000   1.0000   1.0000   1.0000   1.0000
     1.0000   1.0000   1.0000   1.0000   1.0000   1.0000   1.0000   1.0000
     1.0000   1.0000   1.0000   1.0000   1.0000   1.0000   1.0000   1.0000
     1.0000   1.0000   1.0000   1.0000   1.0000   1.0000   1.0000   1.0000
     1.0000   1.0000   1.0000   1.0000   1.0000   1.0000   1.0000   1.0000
     1.0000   1.0000   1.0000   1.0000   1.0000   1.0000   1.0000   1.0000
     1.0000   1.0000   1.0000   1.0000   1.0000   1.0000   1.0000   1.0000
     1.0000   1.0000   1.0000   1.0000   1.0000   1.0000   1.0000   1.0000
[...]
     atom   60 type  4   force =     0.00000000    0.00000000    0.00000000
     atom   61 type  4   force =     0.00000000    0.00000000    0.00000000
     atom   62 type  4   force =     0.00000000    0.00000000    0.00000000
     atom   63 type  4   force =     0.00000000    0.00000000    0.00000000
     The SCF correction term to forces
     atom    1 type  1   force =     0.00000000    0.00000000   -0.00000000
     atom    2 type  1   force =     0.00000000    0.00000000   -0.00000000
     atom    3 type  1   force =     0.00023142    0.00009685    0.00009194
     atom    4 type  1   force =     0.00025300    0.00005630    0.00012055
     atom    5 type  1   force =    -0.00018089   -0.00006293    0.00012053
     atom    6 type  1   force =    -0.00021975   -0.00002068    0.00015185
     atom    7 type  1   force =     0.00000000    0.00000000   -0.00000000
     atom    8 type  1   force =     0.00000000    0.00000000   -0.00000000
     atom    9 type  1   force =     0.00026305    0.00007101    0.00010590
     atom   10 type  1   force =     0.00022333    0.00008125    0.00010138
     atom   11 type  1   force =    -0.00021247   -0.00002826    0.00013688
     atom   12 type  1   force =    -0.00022460   -0.00006700    0.00012609
     atom   13 type  1   force =    -0.00000000   -0.00000000   -0.00000000
     atom   14 type  1   force =    -0.00000000    0.00000000   -0.00000000
     atom   15 type  1   force =    -0.00008829   -0.00001247    0.00003039
     atom   16 type  1   force =    -0.00009136    0.00000580    0.00006558
     atom   17 type  1   force =     0.00023064    0.00010108    0.00013458
     atom   18 type  1   force =     0.00027772    0.00006672    0.00014025
     atom   19 type  1   force =    -0.00000000   -0.00000000   -0.00000000
     atom   20 type  1   force =    -0.00000000    0.00000000   -0.00000000
     atom   21 type  1   force =    -0.00011703    0.00000691    0.00005830
     atom   22 type  1   force =    -0.00006003   -0.00002593    0.00003816
     atom   23 type  1   force =     0.00025481    0.00011659    0.00012959
     atom   24 type  1   force =     0.00025594    0.00005289    0.00014591
     atom   25 type  1   force =    -0.00000000   -0.00000000   -0.00000000
     atom   26 type  1   force =    -0.00000000    0.00000000   -0.00000000
     atom   27 type  1   force =     0.00017105    0.00007558   -0.00002847
     atom   28 type  1   force =     0.00020940    0.00003085   -0.00000164
     atom   29 type  1   force =    -0.00002369    0.00000948    0.00001980
     atom   30 type  1   force =     0.00000611    0.00000914    0.00004552
     atom   31 type  1   force =    -0.00000000   -0.00000000   -0.00000000
     atom   32 type  1   force =    -0.00000000   -0.00000000   -0.00000000
     atom   33 type  1   force =     0.00017801    0.00005553   -0.00002326
     atom   34 type  1   force =     0.00020334    0.00004682   -0.00000930
     atom   35 type  1   force =     0.00001336   -0.00000265    0.00002288
     atom   36 type  1   force =    -0.00003100    0.00002903    0.00004407
     atom   37 type  1   force =     0.00000000    0.00000000   -0.00000000
     atom   38 type  1   force =     0.00000000    0.00000000   -0.00000000
     atom   39 type  1   force =    -0.00019171   -0.00007109   -0.00010489
     atom   40 type  1   force =    -0.00024215   -0.00001512   -0.00006509
     atom   41 type  1   force =     0.00000083   -0.00000345    0.00007945
     atom   42 type  1   force =    -0.00003964    0.00003127   -0.00000266
     atom   43 type  1   force =     0.00000000   -0.00000000   -0.00000000
     atom   44 type  1   force =     0.00000000    0.00000000   -0.00000000
     atom   45 type  1   force =    -0.00020124   -0.00006511   -0.00009310
     atom   46 type  1   force =    -0.00022647   -0.00001897   -0.00008894
     atom   47 type  1   force =    -0.00004270    0.00004612    0.00007774
     atom   48 type  1   force =    -0.00000760   -0.00002084    0.00006443
     atom   49 type  3   force =    -0.00000425    0.00000461    0.00005304
     atom   50 type  3   force =     0.00000245    0.00000029   -0.00001806
     atom   51 type  3   force =     0.00001040    0.00001070   -0.00001601
     atom   52 type  3   force =     0.00001739   -0.00000517   -0.00001189
     atom   53 type  3   force =     0.00001079    0.00000349   -0.00001593
     atom   54 type  3   force =     0.00001306    0.00000341   -0.00001822
     atom   55 type  3   force =     0.00001846    0.00000422   -0.00001281
     atom   56 type  2   force =    -0.00000821    0.00000312    0.00005516
     atom   57 type  2   force =    -0.00002510   -0.00000288   -0.00001733
     atom   58 type  4   force =    -0.00000402    0.00000374   -0.00000142
     atom   59 type  4   force =    -0.00000188   -0.00000463   -0.00000077
     atom   60 type  4   force =     0.00000270   -0.00000236   -0.00000076
     atom   61 type  4   force =     0.00000044    0.00000323   -0.00000167
     atom   62 type  4   force =    -0.00000065    0.00000126   -0.00000232
     atom   63 type  4   force =    -0.00000062   -0.00000182   -0.00000146

     DFT-D3 dispersion contribution to forces:
     atom    1 type  1   force =    -0.00080175   -0.00015690    0.00277418
     atom    2 type  1   force =    -0.00079145   -0.00017179    0.00278386
     atom    3 type  1   force =    -0.00119160   -0.00030909   -0.00263119
     atom    4 type  1   force =    -0.00120115   -0.00030834   -0.00262170
     atom    5 type  1   force =     0.00072217    0.00022570   -0.00173351
     atom    6 type  1   force =     0.00052242    0.00029662   -0.00055214
     atom    7 type  1   force =    -0.00079209   -0.00016113    0.00278386
     atom    8 type  1   force =    -0.00080606   -0.00017048    0.00276489
     atom    9 type  1   force =    -0.00118989   -0.00032482   -0.00263228
     atom   10 type  1   force =    -0.00119550   -0.00030497   -0.00262300
     atom   11 type  1   force =     0.00043906    0.00073817   -0.00114035
     atom   12 type  1   force =     0.00062907   -0.00031274   -0.00090725
     atom   13 type  1   force =     0.00072412    0.00021709    0.00290644
     atom   14 type  1   force =     0.00070810    0.00018513    0.00293097
     atom   15 type  1   force =    -0.00018379   -0.00007704   -0.00078547
     atom   16 type  1   force =    -0.00026334   -0.00006030   -0.00075329
     atom   17 type  1   force =    -0.00019329   -0.00001379   -0.00262056
     atom   18 type  1   force =    -0.00001540   -0.00003012   -0.00249019
     atom   19 type  1   force =     0.00070039    0.00022554    0.00292950
     atom   20 type  1   force =     0.00072767    0.00019441    0.00290792
     atom   21 type  1   force =    -0.00025157   -0.00012427   -0.00075186
     atom   22 type  1   force =    -0.00018347   -0.00006041   -0.00079946
     atom   23 type  1   force =    -0.00008239    0.00003942   -0.00251116
     atom   24 type  1   force =    -0.00014802   -0.00004725   -0.00260769
     atom   25 type  1   force =     0.00063898    0.00017242    0.00278347
     atom   26 type  1   force =     0.00064236    0.00015478    0.00282256
     atom   27 type  1   force =     0.00071093    0.00014256    0.00183051
     atom   28 type  1   force =     0.00073197    0.00014803    0.00184048
     atom   29 type  1   force =     0.00072672    0.00015099   -0.00204584
     atom   30 type  1   force =     0.00071051    0.00018061   -0.00195337
     atom   31 type  1   force =     0.00063793    0.00018091    0.00281570
     atom   32 type  1   force =     0.00063918    0.00016354    0.00279361
     atom   33 type  1   force =     0.00072562    0.00015083    0.00183538
     atom   34 type  1   force =     0.00071066    0.00014553    0.00183624
     atom   35 type  1   force =     0.00073941    0.00015833   -0.00204571
     atom   36 type  1   force =     0.00069599    0.00016725   -0.00193230
     atom   37 type  1   force =     0.00038216    0.00010388    0.00259201
     atom   38 type  1   force =     0.00036735    0.00010533    0.00258478
     atom   39 type  1   force =    -0.00125467   -0.00032853    0.00166689
     atom   40 type  1   force =    -0.00121280   -0.00032280    0.00173910
     atom   41 type  1   force =    -0.00029374   -0.00018079   -0.00433288
     atom   42 type  1   force =     0.00028758    0.00006607   -0.00317350
     atom   43 type  1   force =     0.00037443    0.00010745    0.00259920
     atom   44 type  1   force =     0.00037546    0.00010133    0.00257073
     atom   45 type  1   force =    -0.00124581   -0.00038557    0.00166764
     atom   46 type  1   force =    -0.00125139   -0.00029556    0.00169665
     atom   47 type  1   force =    -0.00012247    0.00035008   -0.00380935
     atom   48 type  1   force =     0.00019419   -0.00053155   -0.00361796
     atom   49 type  3   force =    -0.00002203    0.00001905    0.00011593
     atom   50 type  3   force =    -0.00000635    0.00002430   -0.00004414
     atom   51 type  3   force =    -0.00004844    0.00011778   -0.00012471
     atom   52 type  3   force =     0.00003299   -0.00016464   -0.00007658
     atom   53 type  3   force =    -0.00010926    0.00024265   -0.00032245
     atom   54 type  3   force =     0.00002066   -0.00019194   -0.00015916
     atom   55 type  3   force =    -0.00004455   -0.00003069   -0.00091661
     atom   56 type  2   force =     0.00005378   -0.00004385   -0.00031708
     atom   57 type  2   force =    -0.00028218   -0.00007617   -0.00151288
     atom   58 type  4   force =    -0.00016581   -0.00001491   -0.00173417
     atom   59 type  4   force =    -0.00017724   -0.00009109   -0.00182074
     atom   60 type  4   force =    -0.00000031    0.00000583    0.00001552
     atom   61 type  4   force =    -0.00000406    0.00001850    0.00000791
     atom   62 type  4   force =    -0.00001742   -0.00000099   -0.00017705
     atom   63 type  4   force =    -0.00002260   -0.00000758   -0.00031831

     Total force =     0.005197     Total SCF correction =     0.001185

     DFT-D3 dispersion Force =     0.017877
     SCF correction compared to forces is large: reduce conv_thr to get better values


     Computing stress (Cartesian axis) and pressure


     negative rho (up, down):  3.698E-03 0.000E+00
          total   stress  (Ry/bohr**3)                   (kbar)     P=      -10.62
  -0.00012137  -0.00000309   0.00000435          -17.85       -0.45        0.64
  -0.00000309  -0.00009095   0.00000244           -0.45      -13.38        0.36
   0.00000435   0.00000244  -0.00000426            0.64        0.36       -0.63

     kinetic stress (kbar)  11740.59     19.55      3.89
                               19.55  11678.16     -0.99
                                3.89     -0.99  11711.86

     local   stress (kbar)-819927.53   4761.71   -324.48
                             4761.71-837706.97   -254.15
                             -324.48   -254.15 827082.08

     nonloc. stress (kbar)  -1086.70     -4.69     -1.57
                               -4.69  -1069.46     -0.04
                               -1.57     -0.04  -1105.37

     hartree stress (kbar) 434907.13  -2157.95    205.59
                            -2157.95 442985.88    122.71
                              205.59    122.71-382157.62

     exc-cor stress (kbar)  -5700.25     -1.31     -0.37
                               -1.31  -5695.77      0.04
                               -0.37      0.04  -5702.04

     corecor stress (kbar)    -74.50      0.24      0.08
                                0.24    -75.26     -0.02
                                0.08     -0.02    -75.71

     ewald   stress (kbar) 380130.88  -2618.21    117.67
                            -2618.21 389878.19    132.85
                              117.67    132.85-449749.70

     hubbard stress (kbar)      0.00      0.00      0.00
                                0.00      0.00      0.00
                                0.00      0.00      0.00

     DFT-D   stress (kbar)     -7.46      0.20     -0.17
                                0.20     -8.15     -0.05
                               -0.17     -0.05     -4.14

     XDM     stress (kbar)      0.00      0.00      0.00
                                0.00      0.00      0.00
                                0.00      0.00      0.00

     dft-nl  stress (kbar)      0.00      0.00      0.00
                                0.00      0.00      0.00
                                0.00      0.00      0.00

     TS-vdW  stress (kbar)      0.00      0.00      0.00
                                0.00      0.00      0.00
                                0.00      0.00      0.00

     MDB     stress (kbar)      0.00      0.00      0.00
                                0.00      0.00      0.00
                                0.00      0.00      0.00

     3D-RISM stress (kbar)      0.00      0.00      0.00
                                0.00      0.00      0.00
                                0.00      0.00      0.00

     Energy error            =      4.9E-05 Ry
     Gradient error          =      1.8E-03 Ry/Bohr

     number of scf cycles    =  31
     number of bfgs steps    =  29

     energy             old  =  -22331.0411860712 Ry
     energy             new  =  -22331.0412350095 Ry

     CASE: energy            _new < energy            _old

     new trust radius        =       0.0237196151 bohr
     new conv_thr            =       0.0000000352 Ry


ATOMIC_POSITIONS (angstrom)
Zn              -1.0735560000        1.0841420000        1.1977640000    0   0   0
Zn              -2.3094850000        6.1646920000        1.1977640000    0   0   0
Zn              -4.2347012627        0.2978092246        4.3408030671
Zn              -5.4677005387        5.3825711055        4.3441205446
Zn              -8.1679002768       -0.6737362236        5.8275200275
Zn              -9.3887203829        4.4046619057        5.7745747057
Zn              -1.6915200000        3.6244170000        1.1977640000    0   0   0
Zn              -2.9274500000        8.7049670000        1.1977640000    0   0   0
Zn              -4.8512497793        2.8365805801        4.3455100330
Zn              -6.0867829483        7.9222117929        4.3392267667
Zn              -8.7833401323        1.8670871587        5.8230631789
Zn             -10.0221027749        6.9436745272        5.8210370691
Zn               4.4565960000        1.0841420000        1.1977640000    0   0   0
Zn               3.2206660000        6.1646920000        1.1977640000    0   0   0
Zn               0.4002895609        0.0803047151        3.4880204306
Zn              -0.8378899800        5.1647018798        3.4741421545
Zn              -2.0770118610       -0.5181593110        5.6598337749
Zn              -3.3144922124        4.5616899316        5.6620430093
Zn               3.8386310000        3.6244170000        1.1977640000    0   0   0
Zn               2.6027020000        8.7049670000        1.1977640000    0   0   0
Zn              -0.2186770462        2.6188071424        3.4800506737
Zn              -1.4547896434        7.7012827780        3.4796782794
Zn              -2.6988433580        2.0205582039        5.6619293705
Zn              -3.9280952931        7.1002055690        5.6616301233
Zn               1.6915200000        0.4114910000        0.8555450000    0   0   0
Zn               0.4555910000        5.4920410000        0.8555450000    0   0   0
Zn              -2.2426926941       -0.5486686062        2.8624805856
Zn              -3.4755035465        4.5305624079        2.8675839536
Zn              -6.0664045550       -1.4952054981        4.3944311398
Zn              -7.2916753612        3.5844908910        4.3764808327
Zn               1.0735560000        2.9517660000        0.8555450000    0   0   0
Zn              -0.1623740000        8.0323160000        0.8555450000    0   0   0
Zn              -2.8617992782        1.9900537209        2.8637392138
Zn              -4.0944461578        7.0718049817        2.8664890625
Zn              -6.6814802792        1.0414326460        4.3971219201
Zn              -7.9129842099        6.1334131533        4.3771271264
Zn               7.2216720000        0.4114910000        0.8555450000    0   0   0
Zn               5.9857420000        5.4920410000        0.8555450000    0   0   0
Zn               2.9739966463       -0.6328222953        2.9290815191
Zn               1.7437633362        4.4478844608        2.9169673508
Zn               0.4107914408       -1.2574091263        5.8384842797
Zn              -0.8257034735        3.8266080474        5.8131387138
Zn               6.6037070000        2.9517660000        0.8555450000    0   0   0
Zn               5.3677780000        8.0323160000        0.8555450000    0   0   0
Zn               2.3557846236        1.9043394336        2.9335478414
Zn               1.1214780237        6.9904022541        2.9312458323
Zn              -0.2085774981        1.2895819305        5.8405781678
Zn              -1.4378493980        6.3608540196        5.8452007743
C              -10.6228374869        4.8683822468       14.5304667253
C              -10.4920345887        4.7514505029       13.1170837830
C              -10.7614855123        5.8508042488       12.2778491735
C              -10.1087777042        3.5289395751       12.5305431855
C              -10.6570384473        5.7302401879       10.9010071293
C              -10.0070388100        3.4072528032       11.1537108078
C              -10.2890655068        4.5026115693       10.3091088783
N              -10.7347790950        4.9632621655       15.6891557613
N              -10.1771916858        4.3873858630        8.9428186405
H              -10.1616103788        3.4616233108        8.5260833780
H              -10.6123038181        5.0887760154        8.3491344984
H               -9.8990383462        2.6715441229       13.1706355425
H              -11.0579295236        6.8023835864       12.7198026433
H               -9.7069417485        2.4540500523       10.7143892568
H              -10.8692850866        6.5892244666       10.2621453152



     Writing config-only to output data dir ./tmp/02_Zn101_ABN_topsite_upright.save/ :
     XML data file
     NEW-OLD atomic charge density approx. for the potential

     negative rho (up, down):  3.697E-03 0.000E+00

     total cpu time spent up to now is    45903.6 secs

     Self-consistent Calculation

     iteration #  1     ecut=    40.00 Ry     beta= 0.40
     Davidson diagonalization with overlap

---- Real-time Memory Report at c_bands before calling an iterative solver
           748 MiB given to the printing process from OS
             0 MiB allocation reported by mallinfo(arena+hblkhd)
        178154 MiB available memory on the node where the printing process lives
------------------
     ethr =  1.00E-06,  avg # of iterations =  4.0

     Threshold (ethr) on eigenvalues was too large:
     Diagonalizing with lowered threshold

     Davidson diagonalization with overlap

---- Real-time Memory Report at c_bands before calling an iterative solver
           748 MiB given to the printing process from OS
             0 MiB allocation reported by mallinfo(arena+hblkhd)
        178147 MiB available memory on the node where the printing process lives
------------------
     ethr =  2.37E-08,  avg # of iterations =  2.6

     negative rho (up, down):  3.697E-03 0.000E+00

     total cpu time spent up to now is    46232.1 secs

     total energy              =  -22331.04125514 Ry
     estimated scf accuracy    <       0.00024092 Ry

     iteration #  2     ecut=    40.00 Ry     beta= 0.40
     Davidson diagonalization with overlap

---- Real-time Memory Report at c_bands before calling an iterative solver
           748 MiB given to the printing process from OS
             0 MiB allocation reported by mallinfo(arena+hblkhd)
        178142 MiB available memory on the node where the printing process lives
------------------
